Title
82257
    1SAPS     N    1   1.032   1.949  10.916  0.5785 -0.3635 -0.0330
    1SAPS   HN1    2   1.066   1.853  10.895  2.2964  0.1919  0.1111
    1SAPS   HN2    3   1.005   1.995  10.826  0.0650  0.3663  0.4865
    1SAPS   HN3    4   1.106   2.007  10.961  0.3450 -0.6546  0.7239
    1SAPS   C12    5   0.916   1.939  11.018 -0.7148 -0.2332  0.0533
    1SAPS  H12A    6   0.965   1.921  11.113  0.6997 -0.4636 -0.7005
    1SAPS   C13    7   0.827   2.067  11.026 -0.6597 -0.0658  0.0691
    1SAPS  O13A    8   0.862   2.168  10.958  0.4012  0.5436 -0.5104
    1SAPS  O13B    9   0.713   2.057  11.081  0.5505  0.0340 -0.1411
    1SAPS   C11   10   0.841   1.810  10.963  0.0152 -0.7476  0.3705
    1SAPS  H11A   11   0.815   1.826  10.856  2.1012 -1.3812 -0.2545
    1SAPS  H11B   12   0.745   1.795  11.017  0.4264  0.8545  1.5818
    1SAPS     P   13   0.921   1.590  11.094 -0.1003  0.1070 -0.0633
    1SAPS   O13   14   1.056   1.534  11.099 -0.0641  0.3487 -0.8063
    1SAPS   O14   15   0.870   1.654  11.218  0.3774 -0.4030 -0.8737
    1SAPS   O12   16   0.928   1.696  10.975  0.1145  0.1925 -0.0294
    1SAPS   O11   17   0.816   1.474  11.050 -0.2296  0.1765  0.2930
    1SAPS    C1   18   0.719   1.493  10.951  0.3426 -0.4858 -0.3167
    1SAPS    HA   19   0.638   1.417  10.959  1.5365 -1.9215 -1.6229
    1SAPS    HB   20   0.666   1.591  10.955  0.6492 -0.2921 -0.8382
    1SAPS    C2   21   0.780   1.478  10.804  0.3613  0.7689 -0.1566
    1SAPS    HS   22   0.808   1.581  10.775 -2.1319  1.0082 -1.9072
    1SAPS   O21   23   0.686   1.419  10.716  0.0912  0.9146 -0.0349
    1SAPS   C21   24   0.622   1.502  10.634 -0.5565 -0.4668 -0.7381
    1SAPS   O22   25   0.641   1.622  10.631 -0.1574 -0.9406 -0.2373
    1SAPS   C22   26   0.526   1.422  10.544 -0.3958  0.1099 -0.3486
    1SAPS   H2R   27   0.568   1.320  10.532 -1.0915 -0.3894  1.3022
    1SAPS   H2S   28   0.436   1.416  10.609  1.5885 -1.1841  2.3360
    1SAPS    C3   29   0.903   1.382  10.793 -0.5185  0.2161  0.2288
    1SAPS    HX   30   0.866   1.285  10.834 -3.6620  1.1423 -0.2994
    1SAPS    HY   31   0.984   1.424  10.856  0.4804 -1.0668 -0.1733
    1SAPS   O31   32   0.950   1.361  10.655 -0.4527  0.7616 -0.3719
    1SAPS   C31   33   1.073   1.306  10.653 -0.3366  0.4279  0.5503
    1SAPS   O32   34   1.130   1.263  10.750  0.1209  0.0880  0.4222
    1SAPS   C32   35   1.134   1.315  10.510  0.1866  0.0525 -1.2273
    1SAPS   H2X   36   1.217   1.241  10.509  1.6186  1.6036  0.4631
    1SAPS   H2Y   37   1.190   1.408  10.491 -1.7155  1.3896 -0.4423
    1SAPS   C23   38   0.479   1.486  10.413 -0.7504 -0.1242 -0.2880
    1SAPS   H3R   39   0.484   1.596  10.426  0.1253 -0.1408 -0.4786
    1SAPS   H3S   40   0.380   1.444  10.386 -1.5043  2.1969 -1.2521
    1SAPS   C24   41   0.579   1.463  10.291  0.4733 -0.2764 -0.5073
    1SAPS   H4R   42   0.678   1.497  10.328  0.0950 -0.7539  0.9778
    1SAPS   H4S   43   0.540   1.533  10.215  0.5050  0.7152  0.3830
    1SAPS   C25   44   0.588   1.323  10.240  0.3833  0.8363 -0.4027
    1SAPS   H5R   45   0.623   1.249  10.313 -2.2619 -1.6194 -1.5305
    1SAPS   C26   46   0.564   1.289  10.112 -0.2459  0.5864  0.8860
    1SAPS   H6R   47   0.579   1.184  10.082  1.0306  1.1158 -0.3891
    1SAPS   C27   48   0.515   1.371   9.998 -0.0451  0.1369  0.2951
    1SAPS   H7R   49   0.447   1.448  10.041 -1.3329  0.8169 -2.8227
    1SAPS   H7S   50   0.453   1.307   9.933  0.1061 -0.4373  0.7190
    1SAPS   C28   51   0.623   1.439   9.918 -0.3674  0.1185 -0.1588
    1SAPS   H8R   52   0.691   1.506   9.972 -0.4321  0.3838 -0.4021
    1SAPS   C29   53   0.654   1.417   9.793  0.8508  0.5541  0.6363
    1SAPS   H9R   54   0.743   1.465   9.749  1.6561 -0.6758  0.9042
    1SAPS  C210   55   0.575   1.328   9.698 -0.5166  0.0302 -0.6521
    1SAPS  H10R   56   0.467   1.315   9.721 -0.7955  2.1455 -0.6782
    1SAPS  H10S   57   0.624   1.228   9.705 -0.6783 -0.0634 -0.8542
    1SAPS  C211   58   0.577   1.363   9.548 -0.6215  0.2166 -0.1137
    1SAPS  H11R   59   0.666   1.421   9.519 -1.7411  0.9799 -2.1014
    1SAPS  C212   60   0.491   1.317   9.458  0.0110 -0.3534 -0.8377
    1SAPS  H12R   61   0.510   1.346   9.353  3.1169 -1.8692 -0.7364
    1SAPS  C213   62   0.379   1.221   9.465 -0.1572  0.3337  0.3448
    1SAPS  H13R   63   0.398   1.161   9.557  0.2695  0.6687  0.4753
    1SAPS  H13S   64   0.374   1.167   9.368 -3.2785  1.3384 -0.1193
    1SAPS  C214   65   0.250   1.295   9.480  0.1026 -0.0291  0.7533
    1SAPS  H14R   66   0.251   1.376   9.555 -3.2437  0.9437 -0.1434
    1SAPS  C215   67   0.129   1.252   9.435 -0.7291 -0.0127 -0.5928
    1SAPS  H15R   68   0.055   1.332   9.449  2.0313  2.0804  3.1245
    1SAPS  C216   69   0.089   1.132   9.354 -0.1189  0.0608 -0.7157
    1SAPS  H16R   70   0.063   1.050   9.425 -0.3476  0.2314 -0.6034
    1SAPS  H16S   71   0.176   1.092   9.297  1.0400  1.1933  0.2278
    1SAPS  C217   72  -0.028   1.141   9.245 -0.9742  0.7700 -0.3936
    1SAPS  H17R   73  -0.014   1.246   9.211  0.7123 -0.0417 -2.3410
    1SAPS  H17S   74  -0.127   1.130   9.294  0.6047  0.1226  2.8587
    1SAPS  C218   75  -0.013   1.036   9.133  0.4307 -0.3182 -0.5172
    1SAPS  H18R   76  -0.079   0.951   9.162  0.3781 -0.1887 -0.2532
    1SAPS  H18S   77   0.089   0.991   9.139 -0.0328 -1.4685 -0.9828
    1SAPS  C219   78  -0.033   1.094   8.992 -0.1937  0.0959  0.1261
    1SAPS  H19R   79  -0.136   1.137   8.986  0.6966  2.0977 -1.1616
    1SAPS  H19S   80  -0.019   1.007   8.926  1.5699  0.9263 -0.6162
    1SAPS  C220   81   0.069   1.203   8.943  0.2002  0.2991 -0.1578
    1SAPS  H20R   82   0.058   1.296   9.003  0.7775  0.7877 -0.7995
    1SAPS  H20S   83   0.043   1.233   8.839  2.2562 -0.5779 -0.9546
    1SAPS  H20T   84   0.172   1.164   8.957  1.3857  2.4111 -2.5622
    1SAPS   C33   85   1.029   1.279  10.398 -0.3823 -0.2922 -0.2012
    1SAPS   H3X   86   0.978   1.372  10.365  2.5471  1.9442  1.3195
    1SAPS   H3Y   87   0.953   1.206  10.432 -0.9225  0.0709 -0.6302
    1SAPS   C34   88   1.085   1.224  10.273 -0.2108 -0.4281  0.2180
    1SAPS   H4X   89   1.129   1.123  10.290 -2.0454 -1.0937  1.1371
    1SAPS   H4Y   90   1.167   1.296  10.252  0.7179 -1.0747  1.5117
    1SAPS   C35   91   0.986   1.220  10.154 -0.4114 -0.1186 -0.6655
    1SAPS   H5X   92   0.959   1.325  10.130 -0.7364 -0.1988 -0.6562
    1SAPS   H5Y   93   0.888   1.171  10.173 -0.5026 -0.6190 -2.3762
    1SAPS   C36   94   1.058   1.157  10.037 -0.6299  0.4745  1.4002
    1SAPS   H6X   95   1.068   1.046  10.046  0.9347  0.6985  2.5677
    1SAPS   H6Y   96   1.159   1.200  10.027  0.0290 -1.1140  1.0734
    1SAPS   C37   97   0.990   1.198   9.901 -0.3604  0.5119  0.0940
    1SAPS   H7X   98   0.974   1.307   9.889 -2.2742  0.1883 -0.4198
    1SAPS   H7Y   99   0.889   1.154   9.915  1.1938 -3.7286 -1.2850
    1SAPS   C38  100   1.050   1.123   9.774  0.2299 -0.0359  0.4409
    1SAPS   H8X  101   1.061   1.021   9.816 -0.5197 -0.0060  0.7203
    1SAPS   H8Y  102   1.148   1.161   9.740 -0.3347  0.9912 -0.0526
    1SAPS   C39  103   0.953   1.112   9.653 -0.7748 -0.2408  0.0138
    1SAPS   H9X  104   0.900   1.204   9.620  1.3392  0.2502 -2.1257
    1SAPS   H9Y  105   0.869   1.044   9.677 -1.7446  0.5507 -1.0685
    1SAPS  C310  106   1.021   1.057   9.525 -0.4378 -0.1465  0.0424
    1SAPS  H10X  107   1.071   0.960   9.546  0.5241  0.4699  0.6460
    1SAPS  H10Y  108   1.091   1.133   9.485  0.4636 -0.2867  1.3346
    1SAPS  C311  109   0.907   1.026   9.429  0.1585  0.3067  0.3087
    1SAPS  H11X  110   0.846   1.115   9.401  0.1714  0.7127  1.5636
    1SAPS  H11Y  111   0.839   0.950   9.472  0.7183  1.0540  2.5680
    1SAPS  C312  112   0.969   0.972   9.296  0.6322  0.7372  0.3325
    1SAPS  H12X  113   1.017   0.873   9.316  0.5292  0.7631  0.7028
    1SAPS  H12Y  114   1.040   1.045   9.251  0.5090 -0.9197 -2.7102
    1SAPS  C313  115   0.874   0.928   9.194 -0.4158 -0.4118 -0.2432
    1SAPS  H13X  116   0.809   0.855   9.246 -0.7306  0.0892  0.0715
    1SAPS  H13Y  117   0.931   0.873   9.117  2.3968  0.5249  1.0932
    1SAPS  C314  118   0.785   1.048   9.145  0.3735 -0.4636 -0.0868
    1SAPS  H14X  119   0.839   1.139   9.109 -0.0274 -0.4274 -0.5984
    1SAPS  H14Y  120   0.726   1.078   9.234  2.2179  0.2309  0.9317
    1SAPS  C315  121   0.681   1.001   9.032  0.3459  1.2734 -0.1545
    1SAPS  H15X  122   0.734   0.943   8.954  1.6012  0.6950  1.0853
    1SAPS  H15Y  123   0.646   1.093   8.982 -4.1640 -0.8823 -1.1995
    1SAPS  C316  124   0.565   0.928   9.097 -0.8043 -0.0311 -0.1822
    1SAPS  H16X  125   0.555   0.965   9.201  1.9269  0.4509 -0.0348
    1SAPS  H16Y  126   0.595   0.823   9.117  1.2444  0.4869 -0.4295
    1SAPS  C317  127   0.439   0.935   9.017  0.3305 -0.4285 -0.5197
    1SAPS  H17X  128   0.443   0.879   8.921  0.1125 -1.9557  0.3351
    1SAPS  H17Y  129   0.400   1.039   9.019 -1.0400 -0.9425  1.3193
    1SAPS  C318  130   0.336   0.863   9.106  0.5710 -0.4582 -0.1837
    1SAPS  H18X  131   0.336   0.898   9.212 -4.8148 -0.4465 -0.0128
    1SAPS  H18Y  132   0.347   0.753   9.099  2.2265 -0.1212 -4.2663
    1SAPS  H18Z  133   0.231   0.883   9.073  0.2035 -0.3827  0.9994
    2SAPS     N  134   5.680   1.816  11.169 -0.1063  0.1624  0.1579
    2SAPS   HN1  135   5.586   1.771  11.163  0.8705 -1.8536 -0.3068
    2SAPS   HN2  136   5.737   1.773  11.094  1.3354  0.8907  0.8217
    2SAPS   HN3  137   5.715   1.803  11.266 -0.2085  1.2740  0.3496
    2SAPS   C12  138   5.697   1.960  11.128 -0.2894 -0.0692  0.7920
    2SAPS  H12A  139   5.610   1.990  11.072  0.8569  0.0755 -0.9737
    2SAPS   C13  140   5.705   2.057  11.252  0.7301  0.0960  0.1531
    2SAPS  O13A  141   5.695   2.021  11.371  0.0694 -0.8333 -0.0542
    2SAPS  O13B  142   5.696   2.178  11.224 -0.1511 -0.4340 -0.2878
    2SAPS   C11  143   5.831   1.973  11.039 -1.0775  0.3580 -0.4180
    2SAPS  H11A  144   5.916   1.970  11.110 -1.6478  1.9217  0.3753
    2SAPS  H11B  145   5.839   2.073  10.990  1.5333 -0.8040 -2.4340
    2SAPS     P  146   5.847   1.834  10.795  0.0374 -0.0692  0.7741
    2SAPS   O13  147   5.869   1.690  10.765 -0.2910 -0.5840 -0.5893
    2SAPS   O14  148   5.725   1.891  10.730  0.5092  0.1484 -0.1602
    2SAPS   O12  149   5.846   1.864  10.946  0.3954 -0.6172 -0.1293
    2SAPS   O11  150   5.965   1.926  10.745 -0.5975  0.1025 -0.3912
    2SAPS    C1  151   5.953   2.011  10.626 -0.0157  0.3099 -0.7372
    2SAPS    HA  152   5.848   2.041  10.605 -0.4209 -0.3312  0.3591
    2SAPS    HB  153   6.006   2.106  10.647  0.5993 -0.2127  0.0740
    2SAPS    C2  154   6.013   1.943  10.498  0.2827  0.4778  0.3035
    2SAPS    HS  155   5.995   2.011  10.412 -0.6857  0.1907  0.2792
    2SAPS   O21  156   5.969   1.805  10.476 -0.3895 -0.2103 -0.2488
    2SAPS   C21  157   5.866   1.803  10.405  1.3503 -0.1471  0.0977
    2SAPS   O22  158   5.808   1.902  10.364  0.2794 -0.1176  0.7400
    2SAPS   C22  159   5.817   1.661  10.399 -0.2028  0.8643  0.1388
    2SAPS   H2R  160   5.896   1.596  10.443  0.7655  0.0422 -2.6909
    2SAPS   H2S  161   5.724   1.652  10.459  2.0309  1.5050  3.8562
    2SAPS    C3  162   6.172   1.939  10.501 -0.6048  0.5102  0.0649
    2SAPS    HX  163   6.195   1.889  10.598 -0.4974  2.0781  0.8539
    2SAPS    HY  164   6.219   2.039  10.500  1.0998 -0.2746  0.0619
    2SAPS   O31  165   6.222   1.869  10.380  0.3260 -0.4393 -0.0907
    2SAPS   C31  166   6.280   1.759  10.401  0.6759 -0.1030  0.4521
    2SAPS   O32  167   6.301   1.701  10.505 -0.2234 -0.0836  0.4434
    2SAPS   C32  168   6.331   1.704  10.266 -0.1400 -0.2252 -0.7715
    2SAPS   H2X  169   6.438   1.732  10.251  0.1783 -0.3889  1.0233
    2SAPS   H2Y  170   6.264   1.745  10.188 -0.7383  1.6870  0.6859
    2SAPS   C23  171   5.781   1.615  10.255  0.3881 -0.2118 -0.7969
    2SAPS   H3R  172   5.740   1.704  10.202  1.4710  1.1688  0.6366
    2SAPS   H3S  173   5.700   1.540  10.260  0.0010  0.1431 -1.6349
    2SAPS   C24  174   5.901   1.542  10.174  0.8475 -0.0363 -0.4934
    2SAPS   H4R  175   5.928   1.452  10.232  0.3914  0.1594  0.0333
    2SAPS   H4S  176   5.989   1.609  10.167  1.4780 -0.6385  1.3720
    2SAPS   C25  177   5.862   1.506  10.035  0.5887 -0.1942  0.6688
    2SAPS   H5R  178   5.818   1.406  10.032 -1.6489  0.7821  0.5138
    2SAPS   C26  179   5.887   1.586   9.929  0.1467  0.1543  0.0145
    2SAPS   H6R  180   5.842   1.552   9.834 -1.0796  0.7624  0.3691
    2SAPS   C27  181   5.952   1.725   9.923 -0.1372  0.1516  0.1927
    2SAPS   H7R  182   5.912   1.793  10.001  0.9770  0.6093  0.3786
    2SAPS   H7S  183   5.916   1.770   9.827  0.9162 -0.1068 -0.3375
    2SAPS   C28  184   6.102   1.728   9.932 -0.0796  0.4072  0.1680
    2SAPS   H8R  185   6.138   1.750  10.034 -1.3649  1.5794  0.3773
    2SAPS   C29  186   6.189   1.720   9.829  0.4573 -0.1662 -0.2784
    2SAPS   H9R  187   6.295   1.729   9.856  1.1783  1.1610 -3.2441
    2SAPS  C210  188   6.158   1.718   9.684 -0.4809 -0.0341  0.2830
    2SAPS  H10R  189   6.244   1.741   9.617  0.5500 -1.8093  0.9644
    2SAPS  H10S  190   6.077   1.790   9.660  1.2053  1.7863 -0.1581
    2SAPS  C211  191   6.120   1.580   9.638 -0.1412 -0.0271  0.5781
    2SAPS  H11R  192   6.081   1.513   9.716 -1.6718  0.1877  0.0173
    2SAPS  C212  193   6.100   1.544   9.506  0.1378 -0.1704  0.3753
    2SAPS  H12R  194   6.071   1.438   9.502 -3.2896  0.7267 -0.2067
    2SAPS  C213  195   6.118   1.630   9.386 -0.0599 -0.3450  0.5662
    2SAPS  H13R  196   6.157   1.561   9.307 -1.3136 -0.5632  0.1288
    2SAPS  H13S  197   6.208   1.693   9.404 -0.3462  0.2489 -0.0628
    2SAPS  C214  198   6.003   1.710   9.336 -0.4664  0.8502  0.2516
    2SAPS  H14R  199   5.928   1.735   9.412 -0.1138  1.0942  0.5183
    2SAPS  C215  200   6.004   1.780   9.215  0.0322 -0.3164 -0.5789
    2SAPS  H15R  201   5.924   1.849   9.184  1.3786  0.9525 -1.2960
    2SAPS  C216  202   6.124   1.766   9.123 -0.4169  0.0387 -0.2937
    2SAPS  H16R  203   6.186   1.677   9.147 -2.3236 -1.4993 -0.9205
    2SAPS  H16S  204   6.193   1.853   9.132  1.8057 -1.7434  0.4265
    2SAPS  C217  205   6.101   1.760   8.969 -0.2096 -0.5806 -0.0141
    2SAPS  H17R  206   6.042   1.850   8.940 -0.8105 -1.1191 -0.4693
    2SAPS  H17S  207   6.053   1.662   8.952  1.4433 -1.4983  0.5039
    2SAPS  C218  208   6.225   1.781   8.880  0.0832  0.4029  0.5094
    2SAPS  H18R  209   6.207   1.741   8.778 -1.6729  2.9883 -0.2681
    2SAPS  H18S  210   6.308   1.729   8.932 -0.9677 -1.6602  0.1783
    2SAPS  C219  211   6.264   1.934   8.861  0.0665 -0.1040 -0.1665
    2SAPS  H19R  212   6.290   1.971   8.963  1.0271 -2.0618  0.3251
    2SAPS  H19S  213   6.182   1.991   8.812  0.8166  0.0984 -1.2047
    2SAPS  C220  214   6.386   1.952   8.763 -0.8791  0.9116  0.3543
    2SAPS  H20R  215   6.457   1.867   8.776  0.7389  2.2817  0.5921
    2SAPS  H20S  216   6.450   2.034   8.803 -0.0347 -0.8362  2.7455
    2SAPS  H20T  217   6.358   1.971   8.657 -2.5480  1.1336  0.8200
    2SAPS   C33  218   6.314   1.549  10.255 -0.1616 -0.4210 -0.4940
    2SAPS   H3X  219   6.217   1.528  10.304  1.4706 -2.0822  2.1527
    2SAPS   H3Y  220   6.384   1.501  10.327  0.1232  1.4430  0.5119
    2SAPS   C34  221   6.316   1.494  10.113  0.0301 -0.1285 -0.4652
    2SAPS   H4X  222   6.238   1.536  10.046  0.4437  1.7499  0.2035
    2SAPS   H4Y  223   6.288   1.386  10.111  2.9470 -0.9249 -4.2820
    2SAPS   C35  224   6.460   1.495  10.056  0.5475  0.2363  0.3669
    2SAPS   H5X  225   6.535   1.446  10.120 -0.0768  0.6467  1.4232
    2SAPS   H5Y  226   6.490   1.602  10.051 -2.2901  1.1266  1.4513
    2SAPS   C36  227   6.471   1.435   9.909 -0.5421  0.4161  0.1433
    2SAPS   H6X  228   6.383   1.471   9.852 -1.7138 -2.4812  0.0358
    2SAPS   H6Y  229   6.454   1.326   9.916 -3.0105  0.7222 -0.5424
    2SAPS   C37  230   6.613   1.451   9.845  0.3425 -0.0958  0.4096
    2SAPS   H7X  231   6.685   1.407   9.917  3.8506  2.8214 -1.1665
    2SAPS   H7Y  232   6.636   1.557   9.822 -0.5589  0.1900  0.8041
    2SAPS   C38  233   6.633   1.364   9.715 -0.2826 -0.7563  0.0524
    2SAPS   H8X  234   6.607   1.258   9.731 -3.7824  0.1770  0.8181
    2SAPS   H8Y  235   6.742   1.370   9.692 -0.0113 -2.5394  0.8478
    2SAPS   C39  236   6.541   1.415   9.606  0.2507 -0.1759  0.5843
    2SAPS   H9X  237   6.571   1.521   9.592 -2.4923  0.3060 -2.1291
    2SAPS   H9Y  238   6.437   1.403   9.644 -0.8266  2.0158 -1.5500
    2SAPS  C310  239   6.559   1.342   9.477  0.4585 -0.4313  0.6072
    2SAPS  H10X  240   6.571   1.233   9.494  0.4888 -0.4338  0.5698
    2SAPS  H10Y  241   6.646   1.385   9.422  0.0611  0.3236  0.5617
    2SAPS  C311  242   6.440   1.359   9.375  0.5735  0.3850 -0.2265
    2SAPS  H11X  243   6.394   1.460   9.366  1.2400  1.0022  2.7308
    2SAPS  H11Y  244   6.363   1.293   9.419 -0.0999 -0.0928 -2.0768
    2SAPS  C312  245   6.483   1.303   9.243 -0.2869 -0.5866 -0.1906
    2SAPS  H12X  246   6.517   1.197   9.237  1.8930  0.0461  0.4864
    2SAPS  H12Y  247   6.577   1.357   9.218 -1.3272  1.8571  1.0691
    2SAPS  C313  248   6.376   1.334   9.137 -0.7280  0.6503 -0.6935
    2SAPS  H13X  249   6.340   1.439   9.139 -1.1725  0.5161 -1.6605
    2SAPS  H13Y  250   6.291   1.271   9.171 -0.9522  0.6525 -1.2581
    2SAPS  C314  251   6.415   1.303   8.993  0.6279 -0.4082 -0.1293
    2SAPS  H14X  252   6.416   1.193   8.981  0.4141 -0.5400  1.0017
    2SAPS  H14Y  253   6.512   1.348   8.964 -0.0726  1.4829  0.3761
    2SAPS  C315  254   6.329   1.359   8.880 -0.2124  0.0171  0.4334
    2SAPS  H15X  255   6.373   1.328   8.783 -1.7561  1.2765 -0.6904
    2SAPS  H15Y  256   6.349   1.468   8.893  0.7854 -0.0246 -0.6790
    2SAPS  C316  257   6.182   1.331   8.880 -0.0795 -0.3015  0.2486
    2SAPS  H16X  258   6.121   1.395   8.813  1.1495 -0.6324 -1.2326
    2SAPS  H16Y  259   6.131   1.351   8.976 -3.1008  1.0445 -1.5598
    2SAPS  C317  260   6.144   1.190   8.829  0.5526  1.0506  0.2236
    2SAPS  H17X  261   6.045   1.157   8.867  1.5010 -1.0716  0.8991
    2SAPS  H17Y  262   6.209   1.111   8.872 -2.8385 -1.6248  0.6627
    2SAPS  C318  263   6.143   1.174   8.677  0.1147 -0.1590 -0.0556
    2SAPS  H18X  264   6.234   1.204   8.621  1.4292 -0.3938  1.9055
    2SAPS  H18Y  265   6.064   1.235   8.630  0.1767 -0.1720 -0.1759
    2SAPS  H18Z  266   6.126   1.072   8.636 -2.2131  0.6822 -1.2771
    3SAPS     N  267   6.455   3.871  11.246  0.1768  0.7889  0.7039
    3SAPS   HN1  268   6.513   3.785  11.248 -3.6759 -1.9891 -0.8270
    3SAPS   HN2  269   6.487   3.944  11.179 -0.3531  0.2242 -0.1744
    3SAPS   HN3  270   6.463   3.904  11.344 -2.1424  1.0581  0.8349
    3SAPS   C12  271   6.309   3.847  11.205  0.5380  0.2865  0.1838
    3SAPS  H12A  272   6.277   3.759  11.259  2.0710  0.5825  1.6276
    3SAPS   C13  273   6.221   3.970  11.244  0.6441 -0.0393 -0.2873
    3SAPS  O13A  274   6.265   4.074  11.296 -0.0577 -0.1195  0.7258
    3SAPS  O13B  275   6.096   3.943  11.243  0.1926 -0.2136 -0.5442
    3SAPS   C11  276   6.310   3.843  11.043  0.0119  0.2442 -0.5187
    3SAPS  H11A  277   6.343   3.942  11.007  2.0914 -0.0816  0.4264
    3SAPS  H11B  278   6.208   3.819  11.006  0.1432 -0.5050 -0.4091
    3SAPS     P  279   6.437   3.727  10.845 -0.5075  0.0476  0.4569
    3SAPS   O13  280   6.568   3.792  10.821  0.2999  0.0509  0.0456
    3SAPS   O14  281   6.435   3.584  10.826 -0.1021 -0.3015  0.5360
    3SAPS   O12  282   6.403   3.743  10.996  0.8200  0.0790 -0.0504
    3SAPS   O11  283   6.323   3.789  10.770 -0.0849 -0.0431  0.0084
    3SAPS    C1  284   6.191   3.729  10.760  0.9182 -0.4318  0.0938
    3SAPS    HA  285   6.153   3.681  10.853 -1.3810  1.6506  0.3095
    3SAPS    HB  286   6.119   3.809  10.730  0.4751 -0.2736  1.5339
    3SAPS    C2  287   6.184   3.635  10.635  0.6724  0.2627  0.2848
    3SAPS    HS  288   6.255   3.550  10.645 -1.2721 -1.4698 -0.2394
    3SAPS   O21  289   6.227   3.711  10.516  0.3275  0.0304  0.0204
    3SAPS   C21  290   6.280   3.648  10.413 -0.1877 -0.3069  0.2176
    3SAPS   O22  291   6.325   3.538  10.408  0.2527 -0.2985  0.3372
    3SAPS   C22  292   6.306   3.754  10.301 -0.2920  0.7011 -0.1234
    3SAPS   H2R  293   6.240   3.836  10.337 -2.9975 -1.9516  1.1367
    3SAPS   H2S  294   6.412   3.787  10.310 -0.9972  3.5460 -1.4813
    3SAPS    C3  295   6.041   3.570  10.619  0.4231 -0.3503  0.2143
    3SAPS    HX  296   5.976   3.658  10.600 -0.9955 -0.7347  3.0055
    3SAPS    HY  297   5.993   3.529  10.710  0.3507 -1.9148 -0.5179
    3SAPS   O31  298   6.022   3.483  10.508 -0.3949  0.3363  0.7023
    3SAPS   C31  299   6.061   3.360  10.526  0.0557  0.0628  0.6743
    3SAPS   O32  300   6.133   3.317  10.618  0.0466 -0.0840 -0.4803
    3SAPS   C32  301   5.988   3.282  10.423  0.1745  0.1166 -0.2723
    3SAPS   H2X  302   5.964   3.357  10.345 -0.1291  1.4769  1.1016
    3SAPS   H2Y  303   5.897   3.235  10.468  1.0276  0.4029  1.8113
    3SAPS   C23  304   6.266   3.731  10.155  0.3680  0.2235 -0.8046
    3SAPS   H3R  305   6.284   3.820  10.092 -0.5076  0.1706 -1.1374
    3SAPS   H3S  306   6.156   3.721  10.150  0.1637  2.1573 -0.4743
    3SAPS   C24  307   6.345   3.617  10.096 -0.2166  0.2038 -0.1082
    3SAPS   H4R  308   6.330   3.536  10.170 -2.1094 -1.3513 -2.1267
    3SAPS   H4S  309   6.454   3.639  10.087 -0.3874  0.6171 -1.3226
    3SAPS   C25  310   6.294   3.572   9.959  0.6358  0.7164 -0.2175
    3SAPS   H5R  311   6.210   3.502   9.964  0.3843  1.0901  0.7921
    3SAPS   C26  312   6.343   3.615   9.841  0.8093  0.3483  0.1469
    3SAPS   H6R  313   6.298   3.563   9.755 -2.5231  2.6056  0.4225
    3SAPS   C27  314   6.457   3.713   9.820  0.3465  0.0192  0.1297
    3SAPS   H7R  315   6.471   3.776   9.910  0.6997  1.9317 -1.2263
    3SAPS   H7S  316   6.430   3.769   9.728  0.8628 -0.5906 -0.4009
    3SAPS   C28  317   6.583   3.635   9.802  0.0570 -0.4411  0.3990
    3SAPS   H8R  318   6.638   3.614   9.894  2.6152  2.2033 -0.4619
    3SAPS   C29  319   6.642   3.597   9.684  0.4824  0.6936 -0.3196
    3SAPS   H9R  320   6.734   3.537   9.695  2.2209  3.4818  1.0070
    3SAPS  C210  321   6.604   3.626   9.541 -0.4416  0.1884  0.0447
    3SAPS  H10R  322   6.506   3.678   9.539 -0.4829  0.0939 -0.8064
    3SAPS  H10S  323   6.592   3.532   9.482  0.1783  0.2874 -0.2436
    3SAPS  C211  324   6.707   3.709   9.455 -0.0968  0.2574  0.3603
    3SAPS  H11R  325   6.797   3.652   9.428  0.7459  0.5385  2.4721
    3SAPS  C212  326   6.709   3.841   9.419  0.0887  0.1235 -0.0377
    3SAPS  H12R  327   6.799   3.861   9.359  1.0462 -3.3454  0.1108
    3SAPS  C213  328   6.613   3.951   9.448  0.4176  0.2145 -0.0381
    3SAPS  H13R  329   6.534   3.905   9.511 -1.4999  0.0767 -2.4781
    3SAPS  H13S  330   6.565   3.978   9.352 -1.0973 -1.3823  0.2521
    3SAPS  C214  331   6.671   4.084   9.498  0.1073  0.4357 -0.8195
    3SAPS  H14R  332   6.756   4.120   9.439  1.5080  0.4133  1.1124
    3SAPS  C215  333   6.629   4.165   9.592  0.0761  0.7113 -0.5070
    3SAPS  H15R  334   6.690   4.252   9.619 -2.1242  2.5134 -1.2291
    3SAPS  C216  335   6.509   4.146   9.677 -0.4477  0.7885 -0.0586
    3SAPS  H16R  336   6.436   4.083   9.621  0.6588 -2.2533  1.7843
    3SAPS  H16S  337   6.472   4.250   9.687 -0.4578  0.5962  2.0694
    3SAPS  C217  338   6.537   4.065   9.804 -0.4120 -0.8713 -0.3347
    3SAPS  H17R  339   6.596   3.977   9.770  0.8964  0.5567 -1.8477
    3SAPS  H17S  340   6.445   4.020   9.847  0.9507 -2.6191  0.8065
    3SAPS  C218  341   6.626   4.144   9.902  0.0396 -0.0994 -0.7689
    3SAPS  H18R  342   6.588   4.243   9.935  0.4111 -0.5025  0.8819
    3SAPS  H18S  343   6.718   4.164   9.842 -0.1964 -0.6823 -1.3351
    3SAPS  C219  344   6.671   4.062  10.022  0.1546  0.2456 -0.5258
    3SAPS  H19R  345   6.719   3.966   9.993  0.1916  0.1800 -0.2450
    3SAPS  H19S  346   6.581   4.028  10.076 -0.8503  0.4593 -2.0361
    3SAPS  C220  347   6.774   4.139  10.103  0.0273 -0.4487 -0.4993
    3SAPS  H20R  348   6.842   4.181  10.026  0.5448  2.4039  1.4562
    3SAPS  H20S  349   6.822   4.066  10.171 -2.8630  0.3440  2.5346
    3SAPS  H20T  350   6.733   4.231  10.151 -0.5155  0.4123 -2.5402
    3SAPS   C33  351   6.076   3.167  10.367  0.8568 -0.3283 -0.2243
    3SAPS   H3X  352   6.062   3.076  10.430  0.6591  0.4875  0.9375
    3SAPS   H3Y  353   6.185   3.191  10.359  1.0354 -0.6213  1.1382
    3SAPS   C34  354   6.014   3.117  10.235 -0.2790  0.2231  0.2359
    3SAPS   H4X  355   5.908   3.091  10.255 -0.3189  0.1220 -0.1055
    3SAPS   H4Y  356   6.068   3.027  10.199 -1.5144 -0.7685  0.8517
    3SAPS   C35  357   6.023   3.211  10.116 -0.3521 -0.5721 -0.3032
    3SAPS   H5X  358   6.128   3.200  10.081  0.5324 -0.9879  2.3926
    3SAPS   H5Y  359   6.009   3.315  10.152 -1.3927 -1.0293  0.6103
    3SAPS   C36  360   5.911   3.184  10.018  0.3311 -0.8425  1.3408
    3SAPS   H6X  361   5.806   3.186  10.054 -1.0511 -2.0207 -2.3619
    3SAPS   H6Y  362   5.932   3.083   9.976 -1.7814 -1.3341  1.4260
    3SAPS   C37  363   5.904   3.279   9.905 -0.4653 -0.4958 -0.2283
    3SAPS   H7X  364   5.934   3.377   9.947 -0.0071 -1.7204  2.3862
    3SAPS   H7Y  365   5.805   3.290   9.855 -0.2842 -0.2271 -0.5294
    3SAPS   C38  366   6.002   3.243   9.793  0.0157 -0.5117 -0.4105
    3SAPS   H8X  367   5.974   3.147   9.743 -1.8769  0.4564 -1.2821
    3SAPS   H8Y  368   6.101   3.234   9.842 -0.2972 -0.9719  0.1457
    3SAPS   C39  369   6.014   3.330   9.668  0.3091 -0.8047 -0.1909
    3SAPS   H9X  370   6.018   3.436   9.701 -2.3784 -1.3498  2.1234
    3SAPS   H9Y  371   5.919   3.313   9.614 -0.9706  0.8197  1.4630
    3SAPS  C310  372   6.124   3.283   9.578 -0.4562  0.3009  0.0022
    3SAPS  H10X  373   6.122   3.174   9.556  0.1406  0.3997 -0.5532
    3SAPS  H10Y  374   6.223   3.304   9.622  0.1893  0.8029 -1.6438
    3SAPS  C311  375   6.109   3.370   9.445  0.3114  0.1356 -0.4040
    3SAPS  H11X  376   6.081   3.472   9.478 -3.6514 -1.4433  1.4632
    3SAPS  H11Y  377   6.032   3.335   9.373  0.9320 -0.4536 -0.7948
    3SAPS  C312  378   6.239   3.361   9.369 -1.0090 -0.0040 -0.5603
    3SAPS  H12X  379   6.236   3.269   9.307  0.1749 -0.9866  0.8053
    3SAPS  H12Y  380   6.330   3.357   9.432 -1.5569  1.6778  0.3742
    3SAPS  C313  381   6.251   3.472   9.269  0.3457  0.1133 -0.0072
    3SAPS  H13X  382   6.231   3.568   9.321 -1.5812 -0.3960  0.2233
    3SAPS  H13Y  383   6.164   3.476   9.200 -1.1233 -1.1230  1.7364
    3SAPS  C314  384   6.392   3.473   9.208 -1.0215  0.9133  0.1551
    3SAPS  H14X  385   6.412   3.374   9.163  0.4613  0.7969  1.0541
    3SAPS  H14Y  386   6.463   3.490   9.291  1.5899 -0.5784 -1.6982
    3SAPS  C315  387   6.412   3.576   9.088 -0.1417  0.0388 -0.2497
    3SAPS  H15X  388   6.313   3.584   9.037 -0.3859  1.9659  0.4933
    3SAPS  H15Y  389   6.491   3.535   9.022  1.2272  0.0132  1.3617
    3SAPS  C316  390   6.464   3.715   9.127  0.1102 -0.3951  0.4881
    3SAPS  H16X  391   6.564   3.702   9.173  0.0007  3.2123  1.8972
    3SAPS  H16Y  392   6.396   3.755   9.205 -0.2988  1.6550 -0.8940
    3SAPS  C317  393   6.501   3.807   9.013 -0.5024 -0.9784 -0.9895
    3SAPS  H17X  394   6.400   3.825   8.970 -1.9850 -1.8425  2.0029
    3SAPS  H17Y  395   6.569   3.756   8.942  3.0669  1.4570  0.5799
    3SAPS  C318  396   6.548   3.944   9.053 -0.0767  0.2895  0.5247
    3SAPS  H18X  397   6.628   3.959   9.129  0.9971 -2.1372 -0.0647
    3SAPS  H18Y  398   6.457   4.000   9.084 -0.6580 -0.3840  0.0398
    3SAPS  H18Z  399   6.586   3.986   8.958 -1.8598 -1.3041 -0.9395
    4SAPS     N  400   1.483   4.656  11.032  0.3601 -0.1284  0.2384
    4SAPS   HN1  401   1.571   4.614  10.993 -0.7329 -3.2515  1.0005
    4SAPS   HN2  402   1.476   4.753  10.994 -0.3433 -0.6047 -0.8681
    4SAPS   HN3  403   1.491   4.663  11.135 -1.2634  2.6231  0.2277
    4SAPS   C12  404   1.361   4.592  10.996  0.2697 -0.4821 -0.3024
    4SAPS  H12A  405   1.380   4.488  11.019 -1.6555 -0.4596  1.5926
    4SAPS   C13  406   1.240   4.631  11.084  0.1446  0.3450  0.0927
    4SAPS  O13A  407   1.250   4.713  11.178 -0.0447 -0.0541 -0.0309
    4SAPS  O13B  408   1.136   4.569  11.049 -0.1357 -0.3638 -0.2070
    4SAPS   C11  409   1.332   4.600  10.843 -0.6657 -0.8873  0.3100
    4SAPS  H11A  410   1.346   4.702  10.802 -0.3316 -1.2908 -0.6065
    4SAPS  H11B  411   1.227   4.575  10.815  0.2220 -1.7633 -2.4096
    4SAPS     P  412   1.402   4.356  10.741 -0.1581 -0.0215 -0.0453
    4SAPS   O13  413   1.529   4.286  10.766 -0.4805  0.2354 -0.6256
    4SAPS   O14  414   1.292   4.301  10.823  0.4863 -0.3285  0.0972
    4SAPS   O12  415   1.416   4.514  10.767 -1.0091  0.2846  0.6299
    4SAPS   O11  416   1.363   4.342  10.591 -0.0317 -0.3650  0.2255
    4SAPS    C1  417   1.453   4.406  10.497 -0.8521  0.1035  0.1216
    4SAPS    HA  418   1.459   4.515  10.517 -2.9346  0.5405 -1.5011
    4SAPS    HB  419   1.557   4.372  10.515 -0.8936  0.6995  1.5541
    4SAPS    C2  420   1.413   4.395  10.347 -0.1531 -0.0320  0.4578
    4SAPS    HS  421   1.409   4.286  10.327 -0.4180  0.0259  0.1774
    4SAPS   O21  422   1.511   4.466  10.261  0.0486 -0.5576  0.0976
    4SAPS   C21  423   1.623   4.393  10.241  0.4119 -0.6479  0.3991
    4SAPS   O22  424   1.638   4.279  10.281 -0.2631  0.8202  0.4580
    4SAPS   C22  425   1.732   4.471  10.172  0.7610  0.2415 -0.1846
    4SAPS   H2R  426   1.702   4.578  10.170 -3.3695 -0.8337 -0.9343
    4SAPS   H2S  427   1.817   4.488  10.242 -0.8128  0.0307  1.8566
    4SAPS    C3  428   1.279   4.455  10.309  0.7445  1.0120  0.2182
    4SAPS    HX  429   1.284   4.561  10.340 -0.2911  1.1882 -0.1773
    4SAPS    HY  430   1.211   4.392  10.370  1.8775 -1.1454 -0.6659
    4SAPS   O31  431   1.244   4.450  10.168 -0.4121 -0.0258  0.3640
    4SAPS   C31  432   1.238   4.556  10.093  0.2893  0.0501  0.0823
    4SAPS   O32  433   1.237   4.673  10.135 -0.2032 -0.3943 -0.1794
    4SAPS   C32  434   1.228   4.505   9.949 -0.4815 -0.3318  0.5373
    4SAPS   H2X  435   1.131   4.451   9.946  1.1915 -3.4899 -0.0143
    4SAPS   H2Y  436   1.305   4.426   9.933  0.3156  1.0952 -3.2219
    4SAPS   C23  437   1.779   4.419  10.039 -0.5400  0.3101 -0.2327
    4SAPS   H3R  438   1.818   4.315  10.040  0.7269  0.7775  0.2588
    4SAPS   H3S  439   1.863   4.486  10.011 -1.2307  0.3525 -2.2458
    4SAPS   C24  440   1.681   4.441   9.923 -0.0257 -0.5335 -0.3285
    4SAPS   H4R  441   1.653   4.547   9.908  0.3181 -0.3962  0.0069
    4SAPS   H4S  442   1.582   4.391   9.928 -0.1296 -0.6712 -2.9990
    4SAPS   C25  443   1.748   4.390   9.803 -0.2539 -0.4927  0.2837
    4SAPS   H5R  444   1.826   4.318   9.829  1.6491  1.3495 -0.1171
    4SAPS   C26  445   1.746   4.438   9.675  0.8966  0.7880  0.3258
    4SAPS   H6R  446   1.796   4.381   9.595  0.4401 -0.1728  0.7284
    4SAPS   C27  447   1.664   4.550   9.619  0.3708 -0.3264 -0.3806
    4SAPS   H7R  448   1.731   4.599   9.545  1.6169  0.2880  1.1241
    4SAPS   H7S  449   1.641   4.630   9.692 -1.0039 -0.6137 -0.4850
    4SAPS   C28  450   1.537   4.506   9.562 -0.1179 -0.1490 -0.2897
    4SAPS   H8R  451   1.461   4.485   9.640  2.0479 -0.2796  1.8353
    4SAPS   C29  452   1.491   4.490   9.432  0.4428  0.2692 -0.0492
    4SAPS   H9R  453   1.391   4.451   9.411 -0.4158  2.1168  0.5617
    4SAPS  C210  454   1.576   4.509   9.314 -0.4515  0.2692 -0.3327
    4SAPS  H10R  455   1.555   4.424   9.246  1.1395  0.8751 -1.6255
    4SAPS  H10S  456   1.685   4.499   9.334 -0.2552  2.0359 -0.4565
    4SAPS  C211  457   1.555   4.641   9.240 -0.1144  0.5907 -0.2749
    4SAPS  H11R  458   1.513   4.728   9.292 -1.1174  0.1595 -0.3431
    4SAPS  C212  459   1.574   4.659   9.109  0.7196 -0.6519 -0.0799
    4SAPS  H12R  460   1.550   4.761   9.074  0.0066 -1.3230 -1.5912
    4SAPS  C213  461   1.620   4.566   9.009  0.0649  0.6792 -0.5779
    4SAPS  H13R  462   1.533   4.507   8.974  1.4695  0.5299 -4.0178
    4SAPS  H13S  463   1.707   4.509   9.047  0.7990  2.1679  0.0166
    4SAPS  C214  464   1.668   4.634   8.883  0.7646 -0.3059 -0.2785
    4SAPS  H14R  465   1.688   4.742   8.890  0.7062 -0.3220  0.1360
    4SAPS  C215  466   1.688   4.578   8.763  0.1972 -0.1912 -0.3939
    4SAPS  H15R  467   1.719   4.653   8.687 -1.2153  1.7206  0.8626
    4SAPS  C216  468   1.687   4.429   8.724 -0.3117  0.1842  0.7281
    4SAPS  H16R  469   1.591   4.419   8.669  2.2204 -1.4843 -3.6335
    4SAPS  H16S  470   1.676   4.374   8.821 -2.4635 -1.0778 -0.1789
    4SAPS  C217  471   1.805   4.375   8.637  0.5145 -0.5535  0.4993
    4SAPS  H17R  472   1.805   4.266   8.659 -1.9126 -0.8356 -0.7809
    4SAPS  H17S  473   1.892   4.433   8.675  1.8316 -1.8126 -0.5191
    4SAPS  C218  474   1.776   4.383   8.486 -0.0208 -0.2895 -0.2742
    4SAPS  H18R  475   1.772   4.488   8.450  1.0989 -0.4377 -0.8377
    4SAPS  H18S  476   1.676   4.335   8.479  0.0325 -0.6071  1.1154
    4SAPS  C219  477   1.866   4.298   8.396  0.1480  0.3345  0.6514
    4SAPS  H19R  478   1.843   4.197   8.434  0.6125 -0.3711 -0.9195
    4SAPS  H19S  479   1.970   4.332   8.417  1.0900 -1.7510 -0.4801
    4SAPS  C220  480   1.830   4.298   8.242  0.0217 -0.2884 -0.5641
    4SAPS  H20R  481   1.863   4.389   8.189 -1.4906 -0.9816 -2.7841
    4SAPS  H20S  482   1.719   4.286   8.235  0.0674 -0.3368 -1.2545
    4SAPS  H20T  483   1.875   4.214   8.184 -1.1435  0.1372 -2.1235
    4SAPS   C33  484   1.234   4.625   9.852 -1.1801  0.2851 -0.7044
    4SAPS   H3X  485   1.140   4.685   9.847 -1.4260  0.0239  0.5290
    4SAPS   H3Y  486   1.229   4.582   9.750  0.2189 -0.7474 -0.3492
    4SAPS   C34  487   1.358   4.720   9.856  0.4693 -0.1939 -0.7064
    4SAPS   H4X  488   1.453   4.662   9.859 -0.2175 -1.3786 -1.4438
    4SAPS   H4Y  489   1.340   4.788   9.942 -0.7720 -1.0997 -0.2259
    4SAPS   C35  490   1.359   4.822   9.741  0.2526 -0.4426 -0.1781
    4SAPS   H5X  491   1.266   4.883   9.746  2.1451  2.6571 -1.7808
    4SAPS   H5Y  492   1.369   4.772   9.642  0.8946 -0.9723  0.1501
    4SAPS   C36  493   1.473   4.915   9.742  0.0825  0.2251 -1.0383
    4SAPS   H6X  494   1.571   4.862   9.738 -0.2034 -0.2158 -2.6388
    4SAPS   H6Y  495   1.471   4.971   9.838  0.3582 -0.8619 -0.3916
    4SAPS   C37  496   1.458   5.023   9.629 -0.5468  0.2646 -0.1088
    4SAPS   H7X  497   1.524   5.109   9.658 -0.0266  0.2619 -1.2590
    4SAPS   H7Y  498   1.356   5.066   9.630  0.3918  2.5661  1.6432
    4SAPS   C38  499   1.503   4.977   9.490  0.7097  0.3948  0.5632
    4SAPS   H8X  500   1.413   4.929   9.444  0.2825 -0.0116  1.8158
    4SAPS   H8Y  501   1.575   4.897   9.515 -1.0216 -1.8825 -1.5190
    4SAPS   C39  502   1.556   5.090   9.403 -0.5683  0.5194 -0.1840
    4SAPS   H9X  503   1.645   5.127   9.459 -0.9191  2.0733 -0.6065
    4SAPS   H9Y  504   1.482   5.173   9.403  0.0312  1.0621 -1.1556
    4SAPS  C310  505   1.588   5.055   9.256 -0.5182  0.3403  0.1420
    4SAPS  H10X  506   1.651   4.963   9.244 -2.2188 -0.5731 -1.9856
    4SAPS  H10Y  507   1.650   5.144   9.231 -0.1454 -0.5244 -2.1630
    4SAPS  C311  508   1.458   5.026   9.166 -0.2215 -0.4853 -0.0576
    4SAPS  H11X  509   1.380   5.100   9.191 -0.3582 -0.4702 -0.5334
    4SAPS  H11Y  510   1.419   4.924   9.188  1.7099 -1.4899 -1.0863
    4SAPS  C312  511   1.497   5.025   9.014  0.4113  0.1891  0.6080
    4SAPS  H12X  512   1.585   4.958   9.005  0.0442 -0.0062 -2.0588
    4SAPS  H12Y  513   1.531   5.128   8.987  2.4753 -0.0137  2.3585
    4SAPS  C313  514   1.382   4.979   8.915 -0.6450 -0.6979 -0.2215
    4SAPS  H13X  515   1.297   5.051   8.912  0.9861  1.3283  1.0038
    4SAPS  H13Y  516   1.347   4.889   8.969  0.0433 -0.4693  0.6010
    4SAPS  C314  517   1.437   4.946   8.781  0.7023  0.0334 -1.3545
    4SAPS  H14X  518   1.533   4.891   8.783  0.1761 -0.8526  0.0876
    4SAPS  H14Y  519   1.448   5.031   8.710 -0.5583  1.0863 -0.3165
    4SAPS  C315  520   1.333   4.844   8.712 -0.2054  0.1312 -0.1555
    4SAPS  H15X  521   1.239   4.903   8.713 -1.2005 -1.4328  0.6813
    4SAPS  H15Y  522   1.332   4.759   8.784 -1.9939 -1.2241 -1.7256
    4SAPS  C316  523   1.364   4.777   8.582 -0.4689  0.3064  0.0681
    4SAPS  H16X  524   1.473   4.757   8.575 -0.3921  1.6353 -2.8869
    4SAPS  H16Y  525   1.338   4.839   8.494  0.8396  1.1075  0.2355
    4SAPS  C317  526   1.288   4.643   8.582  0.3540 -0.4875 -0.0033
    4SAPS  H17X  527   1.180   4.670   8.578  0.4096 -0.3650 -0.8103
    4SAPS  H17Y  528   1.273   4.585   8.676  1.8669 -0.4391  0.2739
    4SAPS  C318  529   1.314   4.557   8.461  0.4047 -0.1504  0.3836
    4SAPS  H18X  530   1.230   4.489   8.438  1.4256 -1.5205  0.6480
    4SAPS  H18Y  531   1.413   4.506   8.464  2.0703  2.9723  1.1488
    4SAPS  H18Z  532   1.324   4.630   8.378  1.1160 -1.0528 -0.3300
    5SAPS     N  533   5.376   3.658  11.196 -0.3014  0.3984 -0.0402
    5SAPS   HN1  534   5.378   3.564  11.153 -0.4629  0.5363 -0.3539
    5SAPS   HN2  535   5.438   3.641  11.278  0.2641 -1.2942 -0.7925
    5SAPS   HN3  536   5.278   3.678  11.223 -1.4068 -0.8358 -2.9325
    5SAPS   C12  537   5.435   3.765  11.112  0.0450  0.1240 -0.0277
    5SAPS  H12A  538   5.396   3.748  11.013 -1.4568  0.3119  0.5173
    5SAPS   C13  539   5.411   3.912  11.159  0.2592  0.4325  0.1266
    5SAPS  O13A  540   5.341   3.932  11.264  0.2472  0.2722 -0.3090
    5SAPS  O13B  541   5.470   4.010  11.098 -0.6487  0.6200 -0.0944
    5SAPS   C11  542   5.587   3.744  11.106  0.4969 -0.1759 -0.0119
    5SAPS  H11A  543   5.647   3.727  11.198 -1.4784  1.5314  1.6385
    5SAPS  H11B  544   5.640   3.832  11.065  1.0963 -1.5965 -2.4137
    5SAPS     P  545   5.742   3.626  10.930 -0.1127 -0.0868  0.6946
    5SAPS   O13  546   5.851   3.698  11.000 -0.8529  0.2235 -0.5517
    5SAPS   O14  547   5.758   3.482  10.904 -0.2489  0.0174  0.2002
    5SAPS   O12  548   5.607   3.638  11.017  0.1208  0.2341 -0.0490
    5SAPS   O11  549   5.713   3.711  10.796  0.0467 -0.4376  0.1300
    5SAPS    C1  550   5.590   3.735  10.739  0.6943 -0.0333  0.1819
    5SAPS    HA  551   5.511   3.670  10.784  1.5539 -0.9149  0.4345
    5SAPS    HB  552   5.554   3.839  10.753  0.5340 -0.1861  0.9379
    5SAPS    C2  553   5.595   3.718  10.588 -0.5675  0.0476 -0.4111
    5SAPS    HS  554   5.650   3.805  10.545  1.5573 -0.4355  1.2339
    5SAPS   O21  555   5.455   3.705  10.543  0.1347 -0.1259  0.2162
    5SAPS   C21  556   5.399   3.826  10.533 -0.0786 -0.6848  0.7024
    5SAPS   O22  557   5.453   3.929  10.560 -0.2633  0.5306 -0.0728
    5SAPS   C22  558   5.247   3.816  10.513  0.3692 -0.4479  0.0232
    5SAPS   H2R  559   5.206   3.735  10.577 -0.1446  1.7266  2.5204
    5SAPS   H2S  560   5.206   3.915  10.542 -0.0377 -0.6294  0.0773
    5SAPS    C3  561   5.669   3.586  10.547 -0.8838  0.5491 -0.1909
    5SAPS    HX  562   5.616   3.503  10.598 -0.9497 -1.4950 -3.4052
    5SAPS    HY  563   5.769   3.594  10.595 -0.5397  1.8327 -1.0973
    5SAPS   O31  564   5.675   3.566  10.408 -0.0651 -0.2898  0.0426
    5SAPS   C31  565   5.685   3.445  10.365  0.5102 -0.4345  0.3159
    5SAPS   O32  566   5.685   3.343  10.437 -0.0663  0.3855  0.1813
    5SAPS   C32  567   5.678   3.446  10.219  0.7177  0.2580  0.1834
    5SAPS   H2X  568   5.724   3.351  10.184 -0.5773 -0.5401  0.5719
    5SAPS   H2Y  569   5.736   3.529  10.173 -1.2990  1.3427 -0.4506
    5SAPS   C23  570   5.218   3.794  10.364  0.0912  0.3500  0.1879
    5SAPS   H3R  571   5.110   3.774  10.345  0.5819 -1.7093 -0.5320
    5SAPS   H3S  572   5.267   3.706  10.319 -0.7782 -0.1797  0.2679
    5SAPS   C24  573   5.243   3.919  10.290 -0.5508 -0.0904  0.1740
    5SAPS   H4R  574   5.351   3.943  10.307 -0.7483  1.7049 -0.9998
    5SAPS   H4S  575   5.184   4.006  10.323  2.3596  2.3055 -0.6876
    5SAPS   C25  576   5.226   3.905  10.143 -0.5771  0.1986 -0.3046
    5SAPS   H5R  577   5.309   3.858  10.088 -0.7387  0.2962 -0.6373
    5SAPS   C26  578   5.127   3.936  10.059 -0.1956 -0.1167  0.0050
    5SAPS   H6R  579   5.139   3.916   9.952 -1.1161  2.1745 -0.5466
    5SAPS   C27  580   4.995   3.996  10.107 -0.4220 -0.1081 -0.6256
    5SAPS   H7R  581   5.002   4.106  10.094 -1.2787  0.0622  0.3564
    5SAPS   H7S  582   4.967   3.974  10.213 -0.4297 -1.2913 -0.8600
    5SAPS   C28  583   4.873   3.949  10.025  0.4964 -0.3911 -0.9810
    5SAPS   H8R  584   4.802   3.888  10.083  0.0760  2.1076  1.2390
    5SAPS   C29  585   4.833   3.980   9.894  0.1707  0.3276 -0.3253
    5SAPS   H9R  586   4.739   3.932   9.861  0.2667 -1.3209  1.6776
    5SAPS  C210  587   4.902   4.068   9.793  0.1022  0.7956 -0.0095
    5SAPS  H10R  588   4.977   3.998   9.751 -0.2047  0.0567  0.6541
    5SAPS  H10S  589   4.955   4.152   9.843  0.1131 -0.1425  1.5530
    5SAPS  C211  590   4.812   4.121   9.680  0.0967 -0.0402 -0.5381
    5SAPS  H11R  591   4.723   4.176   9.714  1.1340  0.6162  1.1699
    5SAPS  C212  592   4.829   4.094   9.543  0.4407  0.7695 -0.4302
    5SAPS  H12R  593   4.762   4.140   9.468 -0.7553  0.2842  0.3350
    5SAPS  C213  594   4.944   4.006   9.496  0.1092  0.1204  0.3994
    5SAPS  H13R  595   5.031   4.028   9.561  1.0269 -1.3527 -0.2909
    5SAPS  H13S  596   4.959   4.038   9.391  1.1270 -2.5027 -0.3117
    5SAPS  C214  597   4.914   3.857   9.508  0.0223  0.1276 -0.6610
    5SAPS  H14R  598   4.829   3.836   9.575  1.2435  0.5484  1.0507
    5SAPS  C215  599   4.987   3.755   9.458 -0.1449  0.1322 -0.0364
    5SAPS  H15R  600   4.952   3.652   9.479  1.8617 -0.3041  1.3094
    5SAPS  C216  601   5.113   3.761   9.385 -0.3645  0.1898 -0.5001
    5SAPS  H16R  602   5.189   3.689   9.420 -1.3172 -0.0872  1.0528
    5SAPS  H16S  603   5.155   3.864   9.388 -0.8206  0.3569  0.7160
    5SAPS  C217  604   5.092   3.737   9.234 -0.5310  0.7945 -0.0242
    5SAPS  H17R  605   5.013   3.807   9.197  1.2996  2.0651 -1.6464
    5SAPS  H17S  606   5.062   3.635   9.204  3.0189  0.5319 -3.1746
    5SAPS  C218  607   5.225   3.763   9.162 -0.2832  0.5952 -0.3705
    5SAPS  H18R  608   5.262   3.865   9.190 -1.4079  1.4036 -1.7597
    5SAPS  H18S  609   5.310   3.694   9.179  0.5245  1.4448 -0.9303
    5SAPS  C219  610   5.203   3.769   9.011  0.2646 -0.2463  0.0289
    5SAPS  H19R  611   5.298   3.803   8.963 -0.2923  0.3588 -0.6539
    5SAPS  H19S  612   5.124   3.844   8.989  1.0805  0.6953  0.2533
    5SAPS  C220  613   5.183   3.633   8.946  0.6376  0.0194 -0.1438
    5SAPS  H20R  614   5.091   3.577   8.975  0.6840  0.2183  0.4033
    5SAPS  H20S  615   5.269   3.567   8.971  0.4669 -0.6865 -1.4188
    5SAPS  H20T  616   5.190   3.647   8.836  1.5108 -0.1149 -0.1107
    5SAPS   C33  617   5.525   3.433  10.163  0.0475 -0.0970  0.1775
    5SAPS   H3X  618   5.478   3.534  10.169  1.6109  0.6722 -0.1869
    5SAPS   H3Y  619   5.472   3.368  10.236  0.0603 -0.5475 -0.2115
    5SAPS   C34  620   5.521   3.378  10.022 -0.2370 -0.0142 -0.0713
    5SAPS   H4X  621   5.416   3.348  10.000 -0.0703 -0.2135 -0.6029
    5SAPS   H4Y  622   5.584   3.287  10.008  0.9802  0.4542  2.1901
    5SAPS   C35  623   5.563   3.479   9.914  0.4268  0.3607 -0.8020
    5SAPS   H5X  624   5.664   3.519   9.932 -0.3084  1.9430 -0.1310
    5SAPS   H5Y  625   5.495   3.566   9.923 -0.3049 -0.4439  2.0212
    5SAPS   C36  626   5.554   3.422   9.770  0.9048  0.2831  0.2489
    5SAPS   H6X  627   5.446   3.394   9.764  0.4439  2.2171 -0.9066
    5SAPS   H6Y  628   5.614   3.329   9.759 -0.3726 -0.3650 -1.6464
    5SAPS   C37  629   5.598   3.519   9.657 -0.0664 -0.8137 -0.0062
    5SAPS   H7X  630   5.689   3.575   9.686  1.0478 -2.5871 -0.0240
    5SAPS   H7Y  631   5.522   3.600   9.661  0.8896  0.0554  1.1322
    5SAPS   C38  632   5.609   3.462   9.518  0.1694  0.2061 -0.5553
    5SAPS   H8X  633   5.520   3.405   9.484  0.0242 -0.0938  0.3046
    5SAPS   H8Y  634   5.697   3.395   9.512 -0.4651 -0.8870  1.6492
    5SAPS   C39  635   5.626   3.567   9.408  0.1938 -0.1254 -0.4781
    5SAPS   H9X  636   5.721   3.619   9.430  0.2631 -0.2211 -0.5468
    5SAPS   H9Y  637   5.538   3.631   9.432 -0.6604 -1.5391  0.2551
    5SAPS  C310  638   5.599   3.516   9.269 -0.5050  0.5165  0.1723
    5SAPS  H10X  639   5.604   3.605   9.202 -0.3202 -1.5886 -2.6762
    5SAPS  H10Y  640   5.503   3.460   9.267  1.8015 -3.6160 -0.3971
    5SAPS  C311  641   5.710   3.413   9.228 -0.2440 -1.0607  0.6262
    5SAPS  H11X  642   5.698   3.312   9.271  1.5575 -1.4699  0.2272
    5SAPS  H11Y  643   5.807   3.452   9.266  0.5417  0.1868 -2.4392
    5SAPS  C312  644   5.721   3.394   9.075  0.1640  0.0999 -0.4540
    5SAPS  H12X  645   5.703   3.496   9.034 -1.3102 -0.1168 -0.3735
    5SAPS  H12Y  646   5.645   3.328   9.028  1.0331 -0.2802 -1.3228
    5SAPS  C313  647   5.860   3.350   9.027 -0.6455 -0.3671 -0.1737
    5SAPS  H13X  648   5.945   3.400   9.080 -1.0500 -0.1567  0.2759
    5SAPS  H13Y  649   5.865   3.371   8.918 -2.9478  0.8235 -0.0694
    5SAPS  C314  650   5.902   3.205   9.057  0.5059 -0.2903 -0.3436
    5SAPS  H14X  651   5.832   3.144   8.996 -0.4480 -1.0077  1.4385
    5SAPS  H14Y  652   5.880   3.192   9.165  0.9565 -0.3187 -0.2517
    5SAPS  C315  653   6.044   3.160   9.037  0.0769 -0.2424  0.7629
    5SAPS  H15X  654   6.065   3.055   9.066 -0.0661 -0.8136 -1.1370
    5SAPS  H15Y  655   6.108   3.233   9.090  0.6011 -0.8177  0.9179
    5SAPS  C316  656   6.088   3.136   8.889 -0.5453  0.0860  0.3913
    5SAPS  H16X  657   6.069   3.226   8.827 -1.3897  0.2836  0.9229
    5SAPS  H16Y  658   6.020   3.055   8.856 -0.6953  0.5102 -0.3622
    5SAPS  C317  659   6.230   3.083   8.877 -0.0909  0.4591 -0.5475
    5SAPS  H17X  660   6.261   3.078   8.771  1.7915 -1.8970  0.0720
    5SAPS  H17Y  661   6.221   2.979   8.915  1.8329 -0.3643 -2.2530
    5SAPS  C318  662   6.337   3.157   8.962 -0.3473  0.1751 -0.2341
    5SAPS  H18X  663   6.319   3.265   8.948  1.8455  0.6633  0.5067
    5SAPS  H18Y  664   6.440   3.121   8.941  0.0242  1.4058 -0.5223
    5SAPS  H18Z  665   6.323   3.148   9.072 -1.6482 -0.4592 -0.4364
    6SAPS     N  666   4.972   3.025  10.985  0.9311  0.6249  0.0074
    6SAPS   HN1  667   5.048   3.019  10.914 -0.0127 -0.3092 -0.9288
    6SAPS   HN2  668   4.937   3.122  10.975  2.1159  0.8577 -2.2912
    6SAPS   HN3  669   5.011   3.022  11.082  0.4923  1.3778  0.2166
    6SAPS   C12  670   4.861   2.933  10.972 -0.8939 -0.0184 -0.2904
    6SAPS  H12A  671   4.900   2.834  10.950 -1.0330 -0.0973 -0.1815
    6SAPS   C13  672   4.764   2.929  11.092  0.3940 -0.1710  0.1157
    6SAPS  O13A  673   4.779   3.018  11.177 -0.2917  0.0623 -0.0707
    6SAPS  O13B  674   4.667   2.849  11.091 -0.9213 -0.2149  0.8460
    6SAPS   C11  675   4.776   2.977  10.847 -0.5561  0.1811  0.2125
    6SAPS  H11A  676   4.682   2.918  10.848  0.8647 -2.1105  1.2320
    6SAPS  H11B  677   4.822   2.961  10.748  1.0299  3.5689  0.3153
    6SAPS     P  678   4.621   3.178  10.782  0.1483  0.3964  0.0712
    6SAPS   O13  679   4.505   3.179  10.871 -0.2136  0.5249 -0.1885
    6SAPS   O14  680   4.667   3.309  10.736  0.0087  0.4964  0.5976
    6SAPS   O12  681   4.749   3.114  10.854 -0.0764 -0.1544  0.0116
    6SAPS   O11  682   4.586   3.090  10.654  0.4857  0.2891  0.0701
    6SAPS    C1  683   4.669   3.078  10.541 -0.0719 -0.5433 -0.0506
    6SAPS    HA  684   4.744   3.159  10.536  0.0742 -0.6753 -0.0050
    6SAPS    HB  685   4.727   2.983  10.545  0.6188 -0.1416 -0.3837
    6SAPS    C2  686   4.590   3.072  10.415  0.1912  0.1691  0.2972
    6SAPS    HS  687   4.650   3.025  10.334 -1.7748 -1.8664 -0.0309
    6SAPS   O21  688   4.556   3.203  10.375  0.5541  0.5752 -0.3387
    6SAPS   C21  689   4.657   3.270  10.324 -0.4628  0.7070  0.0865
    6SAPS   O22  690   4.771   3.224  10.306  0.0420  0.7314 -0.3812
    6SAPS   C22  691   4.609   3.409  10.284 -0.4659  0.3859  0.5698
    6SAPS   H2R  692   4.526   3.447  10.347 -2.8024 -0.8176 -1.6373
    6SAPS   H2S  693   4.699   3.473  10.288 -0.9754  1.1794 -0.2444
    6SAPS    C3  694   4.465   2.977  10.427 -0.2672  0.0420 -0.0148
    6SAPS    HX  695   4.399   3.016  10.507 -0.4335  1.0907 -0.6620
    6SAPS    HY  696   4.510   2.882  10.466  0.0822 -0.4905 -1.6777
    6SAPS   O31  697   4.391   2.969  10.302 -0.5084 -0.9974  0.6686
    6SAPS   C31  698   4.287   2.892  10.312  0.0493  0.5861 -0.0374
    6SAPS   O32  699   4.249   2.842  10.420 -0.0116  0.0704 -0.3686
    6SAPS   C32  700   4.227   2.871  10.176 -0.0387 -0.2352 -0.6717
    6SAPS   H2X  701   4.255   2.942  10.095  3.5310 -0.1922  0.4979
    6SAPS   H2Y  702   4.122   2.892  10.204  0.8473 -0.1082  2.8536
    6SAPS   C23  703   4.575   3.412  10.122 -0.1761 -0.0461  1.0600
    6SAPS   H3R  704   4.478   3.361  10.102  0.5192 -0.6074 -1.0144
    6SAPS   H3S  705   4.655   3.350  10.075 -0.1633  1.8012 -1.4312
    6SAPS   C24  706   4.585   3.555  10.072  0.0133 -0.1812  0.4058
    6SAPS   H4R  707   4.519   3.612  10.140  0.5740  0.6370  0.2676
    6SAPS   H4S  708   4.545   3.564   9.969 -0.5782  1.0964  0.7418
    6SAPS   C25  709   4.727   3.606  10.066  0.2871 -0.2342 -0.0037
    6SAPS   H5R  710   4.772   3.614  10.166 -1.0571 -1.2528  0.7093
    6SAPS   C26  711   4.797   3.622   9.952 -0.1440  0.0443 -0.7725
    6SAPS   H6R  712   4.900   3.659   9.961 -0.4623  0.9173 -0.6430
    6SAPS   C27  713   4.742   3.605   9.812  0.0770 -0.0602 -0.0787
    6SAPS   H7R  714   4.812   3.650   9.739 -1.7118 -0.6764 -2.2354
    6SAPS   H7S  715   4.649   3.665   9.807 -0.8995 -1.2664  2.3869
    6SAPS   C28  716   4.723   3.465   9.775  0.2945  0.9242 -0.4073
    6SAPS   H8R  717   4.708   3.394   9.857 -1.2406  1.4314 -0.2274
    6SAPS   C29  718   4.720   3.414   9.649 -0.0076  0.0645  0.3368
    6SAPS   H9R  719   4.706   3.306   9.635 -0.5881  0.1330  0.3823
    6SAPS  C210  720   4.735   3.486   9.516  0.4939  0.4690  0.1073
    6SAPS  H10R  721   4.836   3.457   9.481  0.2868 -0.8160  0.5334
    6SAPS  H10S  722   4.731   3.596   9.529  0.1319  0.7650 -2.3446
    6SAPS  C211  723   4.629   3.447   9.414 -0.0296  0.2187  0.1131
    6SAPS  H11R  724   4.543   3.389   9.451  0.2822 -1.4271 -1.6727
    6SAPS  C212  725   4.653   3.471   9.285 -0.3642 -0.5654 -0.1937
    6SAPS  H12R  726   4.582   3.430   9.211  1.6496 -1.1625 -1.8567
    6SAPS  C213  727   4.778   3.540   9.232  0.2972 -0.0224  0.3117
    6SAPS  H13R  728   4.865   3.471   9.226 -1.8137 -2.6041 -3.0037
    6SAPS  H13S  729   4.804   3.615   9.309  1.7388  0.5959 -0.7689
    6SAPS  C214  730   4.761   3.604   9.095  0.3263  0.0300 -0.2299
    6SAPS  H14R  731   4.719   3.705   9.101  0.2578  0.1100 -1.8382
    6SAPS  C215  732   4.773   3.550   8.973 -0.1426  1.1056 -0.5234
    6SAPS  H15R  733   4.764   3.618   8.887  2.4997 -0.9780 -2.5535
    6SAPS  C216  734   4.815   3.412   8.943 -0.3615  0.0793  0.5707
    6SAPS  H16R  735   4.722   3.351   8.941  1.4582 -2.8722  2.3511
    6SAPS  H16S  736   4.883   3.378   9.024 -0.8951  0.0891  1.0261
    6SAPS  C217  737   4.887   3.396   8.809  0.1283  0.4624 -0.1661
    6SAPS  H17R  738   4.931   3.294   8.802 -0.3782  0.2698 -0.5714
    6SAPS  H17S  739   4.970   3.468   8.823 -1.9909  2.9365  0.2287
    6SAPS  C218  740   4.798   3.418   8.690  0.0167  0.0426  0.1199
    6SAPS  H18R  741   4.749   3.518   8.691  2.2634  1.1946 -1.7917
    6SAPS  H18S  742   4.716   3.343   8.682  0.5010 -0.4476 -0.2683
    6SAPS  C219  743   4.879   3.421   8.560  0.4399 -0.6885 -0.3433
    6SAPS  H19R  744   4.802   3.421   8.480  1.3486 -1.3501 -1.2142
    6SAPS  H19S  745   4.944   3.331   8.565  1.5591  0.0399 -1.5066
    6SAPS  C220  746   4.963   3.547   8.544 -0.5122  0.6533 -0.0661
    6SAPS  H20R  747   4.920   3.628   8.481 -0.5417  1.2449  0.6955
    6SAPS  H20S  748   5.059   3.521   8.495 -0.6356  0.3259 -0.1384
    6SAPS  H20T  749   4.984   3.588   8.646 -2.1746 -1.2290  1.0742
    6SAPS   C33  750   4.254   2.730  10.128 -0.0543 -0.1959  0.0590
    6SAPS   H3X  751   4.235   2.656  10.208 -1.0216 -0.2302 -0.1932
    6SAPS   H3Y  752   4.364   2.720  10.117 -0.2774 -1.8117 -0.7581
    6SAPS   C34  753   4.176   2.683   9.999  0.3522  0.0587 -0.4748
    6SAPS   H4X  754   4.067   2.695  10.015  0.6731  0.2968  1.6512
    6SAPS   H4Y  755   4.179   2.573   9.982 -2.0278 -0.4142  1.8635
    6SAPS   C35  756   4.218   2.739   9.861  0.3743  0.2128 -0.3144
    6SAPS   H5X  757   4.212   2.849   9.856  0.8732  0.3596  1.7321
    6SAPS   H5Y  758   4.160   2.679   9.787  0.6104  0.9000 -1.0525
    6SAPS   C36  759   4.354   2.688   9.817  0.0761  0.5509 -0.6243
    6SAPS   H6X  760   4.365   2.581   9.842 -0.4330 -0.1077 -3.1036
    6SAPS   H6Y  761   4.416   2.749   9.886 -0.3323 -1.5311  1.6357
    6SAPS   C37  762   4.399   2.722   9.673 -0.1124  0.7721 -0.1531
    6SAPS   H7X  763   4.505   2.690   9.668  0.1932  1.8117 -0.2567
    6SAPS   H7Y  764   4.397   2.832   9.663 -0.5396  0.6884 -1.0443
    6SAPS   C38  765   4.317   2.657   9.561 -0.2162 -0.5039  0.2194
    6SAPS   H8X  766   4.213   2.695   9.561 -0.2243 -0.4979 -1.8479
    6SAPS   H8Y  767   4.314   2.548   9.585 -0.4434 -0.3980  0.6705
    6SAPS   C39  768   4.375   2.674   9.421  0.0716 -0.0223 -0.3791
    6SAPS   H9X  769   4.481   2.641   9.419  0.0933 -0.1063  1.3448
    6SAPS   H9Y  770   4.361   2.778   9.384  0.9630  0.7436  1.3355
    6SAPS  C310  771   4.309   2.588   9.316 -0.1687  0.0131  0.2829
    6SAPS  H10X  772   4.205   2.629   9.317  0.7176  2.4481 -2.0313
    6SAPS  H10Y  773   4.316   2.478   9.335  0.8533  0.0774  0.2915
    6SAPS  C311  774   4.381   2.600   9.179  0.5734  0.2155  0.9122
    6SAPS  H11X  775   4.492   2.598   9.190  0.9950  3.2009 -1.8371
    6SAPS  H11Y  776   4.351   2.701   9.143  3.2957  0.3565 -1.1030
    6SAPS  C312  777   4.330   2.502   9.069  0.5671 -0.1808 -1.0432
    6SAPS  H12X  778   4.219   2.503   9.066  0.5729  2.2143 -1.8068
    6SAPS  H12Y  779   4.366   2.401   9.098 -0.7636 -0.4756 -0.3503
    6SAPS  C313  780   4.386   2.509   8.926 -0.1461  0.0832 -0.8762
    6SAPS  H13X  781   4.497   2.509   8.933 -0.2037 -0.3673  0.0846
    6SAPS  H13Y  782   4.362   2.605   8.876 -4.2044 -0.3408  0.0701
    6SAPS  C314  783   4.354   2.392   8.840 -0.1208 -0.1257 -0.4718
    6SAPS  H14X  784   4.415   2.307   8.878  2.3642  1.5708 -0.5001
    6SAPS  H14Y  785   4.398   2.415   8.741  1.3618  2.2878  0.6971
    6SAPS  C315  786   4.201   2.358   8.818 -0.3545 -0.1270 -0.7594
    6SAPS  H15X  787   4.153   2.458   8.804 -0.4255  0.3186  2.2499
    6SAPS  H15Y  788   4.171   2.309   8.913  3.1842 -0.0029  0.4701
    6SAPS  C316  789   4.162   2.273   8.702  0.1029 -0.0066 -0.3251
    6SAPS  H16X  790   4.176   2.330   8.608  0.6762  1.4777  0.6329
    6SAPS  H16Y  791   4.053   2.254   8.710  0.2466  0.2941  3.1453
    6SAPS  C317  792   4.234   2.142   8.693 -0.2807  0.3821 -0.0847
    6SAPS  H17X  793   4.223   2.091   8.792  2.4134 -0.3726 -0.1534
    6SAPS  H17Y  794   4.343   2.161   8.690 -0.2787  0.0896 -1.8774
    6SAPS  C318  795   4.189   2.046   8.578  0.6357  0.9178  0.2309
    6SAPS  H18X  796   4.196   2.092   8.477  0.4308  0.5897  0.0674
    6SAPS  H18Y  797   4.083   2.017   8.595  0.9680 -2.2960 -2.5780
    6SAPS  H18Z  798   4.260   1.961   8.578 -0.3778  0.0409  1.6996
    7SAPS     N  799   0.029   3.527  10.662  0.0197 -0.1184 -0.1033
    7SAPS   HN1  800   0.102   3.460  10.631 -0.1340 -0.0281 -0.6847
    7SAPS   HN2  801  -0.064   3.484  10.678 -0.6326  1.4844  0.5155
    7SAPS   HN3  802   0.019   3.592  10.581  0.3750  1.1356  0.8540
    7SAPS   C12  803   0.077   3.593  10.783 -0.1142  0.2090 -0.2590
    7SAPS  H12A  804   0.043   3.696  10.784  0.2842  0.3398 -0.1186
    7SAPS   C13  805   0.035   3.554  10.927 -0.0466  0.2656  0.1672
    7SAPS  O13A  806  -0.025   3.441  10.943 -0.2432 -0.0656  0.0681
    7SAPS  O13B  807   0.075   3.625  11.021  0.0835 -0.4778  0.1020
    7SAPS   C11  808   0.234   3.613  10.767  0.5529 -0.3779 -0.0835
    7SAPS  H11A  809   0.273   3.510  10.752  0.7685  0.3067 -5.0248
    7SAPS  H11B  810   0.282   3.656  10.858  0.3673  1.8434 -1.0147
    7SAPS     P  811   0.272   3.845  10.646 -0.0183 -0.0161 -0.1441
    7SAPS   O13  812   0.174   3.893  10.736  0.2754 -0.5232 -0.4083
    7SAPS   O14  813   0.407   3.890  10.666  0.1354 -0.4714 -0.3475
    7SAPS   O12  814   0.256   3.691  10.646 -0.2565  0.1559  0.7775
    7SAPS   O11  815   0.227   3.891  10.495 -0.2920  0.6375 -0.3930
    7SAPS    C1  816   0.272   3.837  10.377 -0.1186  0.1099  0.3392
    7SAPS    HA  817   0.318   3.738  10.393 -0.6625 -0.0783  0.7543
    7SAPS    HB  818   0.186   3.836  10.307  1.9288 -1.6659 -2.2598
    7SAPS    C2  819   0.380   3.923  10.307 -0.0562 -0.6699  0.5475
    7SAPS    HS  820   0.467   3.937  10.375  0.8750 -2.0490 -0.3510
    7SAPS   O21  821   0.318   4.054  10.293 -0.0039  0.8368 -0.2478
    7SAPS   C21  822   0.401   4.153  10.267  0.2634 -0.1467  0.6184
    7SAPS   O22  823   0.523   4.144  10.271 -0.4443 -0.0016  0.0409
    7SAPS   C22  824   0.314   4.279  10.272 -0.4157  0.8179  0.5650
    7SAPS   H2R  825   0.261   4.272  10.174 -0.1367 -0.5491  0.5054
    7SAPS   H2S  826   0.247   4.273  10.360  0.5977  0.5166  1.3259
    7SAPS    C3  827   0.432   3.854  10.177  0.4666  0.1383  0.4959
    7SAPS    HX  828   0.486   3.763  10.210  2.2205  1.3733  1.1276
    7SAPS    HY  829   0.508   3.913  10.122  0.0483 -1.7649 -2.2058
    7SAPS   O31  830   0.315   3.822  10.095 -0.1122 -0.0294 -0.1981
    7SAPS   C31  831   0.316   3.881   9.975  0.6514  0.0071  0.1305
    7SAPS   O32  832   0.404   3.946   9.928 -0.7124 -0.3150  0.0293
    7SAPS   C32  833   0.179   3.846   9.904  0.0466  0.5114  0.5845
    7SAPS   H2X  834   0.099   3.833   9.980 -1.7365  0.4433 -1.2741
    7SAPS   H2Y  835   0.197   3.750   9.853 -2.5435  0.1182  0.3620
    7SAPS   C23  836   0.393   4.418  10.273 -0.0308 -0.5233  0.4627
    7SAPS   H3R  837   0.483   4.405  10.209 -1.2160 -1.4323 -1.0721
    7SAPS   H3S  838   0.424   4.431  10.379 -1.3094  0.9246  0.6678
    7SAPS   C24  839   0.306   4.540  10.222 -0.1823  0.2109 -0.2050
    7SAPS   H4R  840   0.305   4.538  10.111 -2.2899 -1.8520 -0.1819
    7SAPS   H4S  841   0.366   4.633  10.234 -1.3007  0.6935  1.9748
    7SAPS   C25  842   0.166   4.546  10.269 -0.1807  0.2827  0.2975
    7SAPS   H5R  843   0.151   4.531  10.377  0.3876  0.3251  0.3841
    7SAPS   C26  844   0.059   4.567  10.187  0.2950 -1.0559  0.9958
    7SAPS   H6R  845  -0.039   4.574  10.237 -0.8019  1.0491 -1.3628
    7SAPS   C27  846   0.060   4.588  10.039 -0.4116  0.3098  0.2373
    7SAPS   H7R  847   0.158   4.626  10.007  0.4335  0.3118  2.6905
    7SAPS   H7S  848  -0.007   4.673  10.014  0.0076  0.5882  0.0773
    7SAPS   C28  849   0.011   4.466   9.966  0.2305 -0.1726 -0.1325
    7SAPS   H8R  850  -0.085   4.431  10.007  0.2381 -0.1538 -0.0993
    7SAPS   C29  851   0.066   4.411   9.857 -0.1171 -0.4132  0.7574
    7SAPS   H9R  852   0.018   4.325   9.810 -0.0140  0.6803 -1.4253
    7SAPS  C210  853   0.188   4.461   9.782 -0.1779  0.0146 -0.0606
    7SAPS  H10R  854   0.233   4.541   9.844 -0.1532  0.3416 -0.4978
    7SAPS  H10S  855   0.150   4.501   9.686 -1.8058  3.0496  1.7629
    7SAPS  C211  856   0.290   4.348   9.757  0.3665 -0.3469 -0.5666
    7SAPS  H11R  857   0.334   4.316   9.853  0.6821  1.4599 -0.0873
    7SAPS  C212  858   0.335   4.289   9.644  1.2301  0.3417 -0.0921
    7SAPS  H12R  859   0.415   4.213   9.650  1.4793  0.6567  0.5343
    7SAPS  C213  860   0.278   4.326   9.507 -0.0861  0.1306  0.6287
    7SAPS  H13R  861   0.302   4.435   9.507  0.7976 -0.0636  0.9220
    7SAPS  H13S  862   0.167   4.326   9.503 -0.0598  1.6057 -0.8339
    7SAPS  C214  863   0.328   4.257   9.382 -0.6881  0.0492 -0.0617
    7SAPS  H14R  864   0.384   4.162   9.390  0.2625  0.7082  1.1660
    7SAPS  C215  865   0.313   4.299   9.258  0.3357 -0.2463  0.0072
    7SAPS  H15R  866   0.339   4.226   9.180 -4.3400 -1.9072 -0.1822
    7SAPS  C216  867   0.239   4.419   9.210  0.0838 -0.1117  0.4735
    7SAPS  H16R  868   0.300   4.495   9.157 -1.8239  1.1868  0.0935
    7SAPS  H16S  869   0.201   4.484   9.291 -1.1578  2.5516 -2.1706
    7SAPS  C217  870   0.105   4.378   9.129 -0.1026  0.8760  0.6433
    7SAPS  H17R  871   0.063   4.479   9.107  0.1658  0.9868  0.6429
    7SAPS  H17S  872   0.037   4.317   9.192  0.6321  0.7938  1.3560
    7SAPS  C218  873   0.139   4.317   8.986 -0.2879  0.1246 -0.3914
    7SAPS  H18R  874   0.175   4.215   9.011  0.1594  0.3558 -0.0691
    7SAPS  H18S  875   0.217   4.383   8.943 -0.1427  0.5363  0.4953
    7SAPS  C219  876   0.019   4.315   8.901  0.4712  0.0088  0.6214
    7SAPS  H19R  877  -0.066   4.275   8.960 -1.2063  0.6484 -1.3259
    7SAPS  H19S  878   0.042   4.240   8.822  2.0614  1.9679 -0.8413
    7SAPS  C220  879  -0.034   4.453   8.857  0.8522 -0.4144  0.6199
    7SAPS  H20R  880  -0.096   4.446   8.766  1.1778 -0.4047  0.3962
    7SAPS  H20S  881   0.051   4.523   8.838  1.5378 -1.2990  0.3534
    7SAPS  H20T  882  -0.100   4.495   8.935  0.6231  0.1940  0.1013
    7SAPS   C33  883   0.128   3.955   9.808 -0.0513 -0.2081 -0.6782
    7SAPS   H3X  884   0.122   4.049   9.867  1.2946 -1.2926  1.2789
    7SAPS   H3Y  885   0.024   3.923   9.785  0.1104 -1.4557  0.2519
    7SAPS   C34  886   0.221   3.970   9.682  0.4487 -0.3190  0.0867
    7SAPS   H4X  887   0.324   3.989   9.718 -0.6945  0.1096  3.2688
    7SAPS   H4Y  888   0.192   4.063   9.628 -0.6459 -0.6893  0.0105
    7SAPS   C35  889   0.220   3.847   9.593  0.0275 -0.3071  0.7900
    7SAPS   H5X  890   0.119   3.811   9.566  1.0665 -2.4973 -0.2590
    7SAPS   H5Y  891   0.265   3.760   9.646  2.0303 -0.0135 -0.3754
    7SAPS   C36  892   0.294   3.884   9.463 -0.4692 -0.6212  0.0601
    7SAPS   H6X  893   0.401   3.914   9.475 -0.8728  0.2795  1.4286
    7SAPS   H6Y  894   0.249   3.970   9.408 -0.7579 -2.2541 -2.3401
    7SAPS   C37  895   0.295   3.764   9.365  0.1329 -0.2361 -0.2489
    7SAPS   H7X  896   0.194   3.758   9.320  0.5196  0.5360 -1.2515
    7SAPS   H7Y  897   0.316   3.681   9.436  2.3012  1.0577  0.6567
    7SAPS   C38  898   0.382   3.769   9.245  0.3143 -0.1509 -0.6767
    7SAPS   H8X  899   0.385   3.674   9.188 -0.0605 -1.3370  1.2390
    7SAPS   H8Y  900   0.487   3.787   9.275  0.4008  0.0886 -1.1152
    7SAPS   C39  901   0.341   3.879   9.146 -0.5569 -0.1177  0.1417
    7SAPS   H9X  902   0.420   3.873   9.068 -0.6191  0.0876  0.0641
    7SAPS   H9Y  903   0.354   3.980   9.190 -2.1510  0.6807 -1.1832
    7SAPS  C310  904   0.215   3.873   9.065  0.2734 -0.0863 -1.1741
    7SAPS  H10X  905   0.215   3.956   8.992  0.1368  0.6056 -0.4004
    7SAPS  H10Y  906   0.134   3.908   9.133  2.2287  0.9813  0.6648
    7SAPS  C311  907   0.177   3.733   9.007 -0.4698 -0.1512 -0.2848
    7SAPS  H11X  908   0.180   3.664   9.093  1.7265  2.1624  1.5768
    7SAPS  H11Y  909   0.266   3.708   8.946 -1.1422 -3.1103 -0.1005
    7SAPS  C312  910   0.053   3.722   8.910 -0.2242  0.1737  0.2074
    7SAPS  H12X  911   0.064   3.803   8.835 -0.8127 -0.2940 -0.3911
    7SAPS  H12Y  912  -0.034   3.746   8.976  0.1001  0.7723  0.4209
    7SAPS  C313  913   0.033   3.580   8.852  0.1153  0.0139 -0.4253
    7SAPS  H13X  914   0.018   3.507   8.935 -3.8836 -0.1210 -1.1960
    7SAPS  H13Y  915   0.126   3.550   8.798  1.1652 -0.0745  1.3812
    7SAPS  C314  916  -0.094   3.571   8.765 -0.1726  0.2223 -0.1108
    7SAPS  H14X  917  -0.084   3.651   8.688 -0.5926  0.2126 -0.1786
    7SAPS  H14Y  918  -0.182   3.598   8.827 -0.2949 -2.1461  0.7845
    7SAPS  C315  919  -0.117   3.422   8.727  0.7581 -0.0472 -0.0840
    7SAPS  H15X  920  -0.132   3.368   8.823 -0.4804 -1.8422 -1.2634
    7SAPS  H15Y  921  -0.024   3.378   8.687  0.9492  0.5715 -0.3273
    7SAPS  C316  922  -0.246   3.418   8.634  0.1275 -0.0170 -0.0636
    7SAPS  H16X  923  -0.229   3.473   8.538 -0.6654 -2.1403 -1.4498
    7SAPS  H16Y  924  -0.323   3.478   8.688  1.2715  0.7797  0.7293
    7SAPS  C317  925  -0.308   3.283   8.606  0.3323  0.0983 -0.0977
    7SAPS  H17X  926  -0.358   3.262   8.704  0.1289  2.5342  0.3498
    7SAPS  H17Y  927  -0.223   3.214   8.591 -1.8302 -2.6204 -0.4155
    7SAPS  C318  928  -0.407   3.272   8.494 -0.2428 -0.0120 -0.3155
    7SAPS  H18X  929  -0.498   3.330   8.520  0.4577  1.6802 -1.5691
    7SAPS  H18Y  930  -0.434   3.168   8.464  0.1309  0.0266 -0.7851
    7SAPS  H18Z  931  -0.369   3.324   8.404 -2.6976  0.7282 -0.9481
    8SAPS     N  932   4.370   5.739  11.462  0.4483 -0.3408  0.1619
    8SAPS   HN1  933   4.440   5.813  11.441 -0.2489  0.1346 -0.4881
    8SAPS   HN2  934   4.273   5.769  11.442 -0.3101 -2.4390  0.6130
    8SAPS   HN3  935   4.382   5.724  11.565  2.8749  2.5823  0.3778
    8SAPS   C12  936   4.427   5.618  11.393  0.0974  0.2515 -1.0016
    8SAPS  H12A  937   4.530   5.626  11.423 -0.7795 -1.1318  2.7131
    8SAPS   C13  938   4.372   5.487  11.452 -0.5216 -0.1104  0.0391
    8SAPS  O13A  939   4.308   5.486  11.562 -0.4826  0.3864 -0.9256
    8SAPS  O13B  940   4.438   5.387  11.417  1.0796 -0.5014  0.5101
    8SAPS   C11  941   4.412   5.625  11.236 -0.0540  0.6330 -0.2527
    8SAPS  H11A  942   4.304   5.627  11.211 -0.0260  1.9373 -0.3229
    8SAPS  H11B  943   4.457   5.534  11.190  3.0044  2.1937 -0.5009
    8SAPS     P  944   4.512   5.757  11.041 -0.1033  0.3227 -0.6021
    8SAPS   O13  945   4.385   5.811  10.989  0.1322  0.0708  0.0533
    8SAPS   O14  946   4.633   5.847  11.031 -0.4292 -0.2515 -1.5551
    8SAPS   O12  947   4.484   5.742  11.190 -0.4908  0.4291  0.3314
    8SAPS   O11  948   4.542   5.617  10.981 -0.3708 -0.2618  0.3618
    8SAPS    C1  949   4.672   5.562  10.966  0.9050 -0.5371 -0.3601
    8SAPS    HA  950   4.740   5.594  11.048 -1.6706 -0.7408  1.9379
    8SAPS    HB  951   4.663   5.453  10.984  0.7518 -0.1639  2.0139
    8SAPS    C2  952   4.736   5.595  10.825 -0.0816 -0.1733  0.4030
    8SAPS    HS  953   4.746   5.706  10.830 -0.0185 -0.0845 -1.4190
    8SAPS   O21  954   4.658   5.547  10.710  1.0452 -0.0638  0.2019
    8SAPS   C21  955   4.574   5.633  10.668  0.1968  0.2034  0.4213
    8SAPS   O22  956   4.567   5.751  10.696  1.1220  0.8287  0.0361
    8SAPS   C22  957   4.506   5.576  10.541  0.6245  0.2037  0.1005
    8SAPS   H2R  958   4.552   5.482  10.504 -0.5316 -0.3255  0.0163
    8SAPS   H2S  959   4.399   5.557  10.564  0.1853  1.8884 -0.4802
    8SAPS    C3  960   4.882   5.542  10.820 -0.3464  0.4392  0.6600
    8SAPS    HX  961   4.880   5.434  10.844 -2.6219  0.3635  0.2074
    8SAPS    HY  962   4.954   5.589  10.891  0.6397 -0.2526  0.1316
    8SAPS   O31  963   4.936   5.543  10.686 -0.1700 -0.0552 -0.4135
    8SAPS   C31  964   4.970   5.663  10.640  0.2209  0.4784 -0.2718
    8SAPS   O32  965   4.990   5.762  10.710  0.3774  0.3998 -0.4752
    8SAPS   C32  966   4.993   5.657  10.483 -0.3694 -0.3193  0.1206
    8SAPS   H2X  967   4.937   5.735  10.428  0.8257 -0.5001 -1.3881
    8SAPS   H2Y  968   4.942   5.566  10.445 -1.8142 -0.0212  1.3009
    8SAPS   C23  969   4.495   5.679  10.427  1.1642 -0.5955 -0.4115
    8SAPS   H3R  970   4.448   5.771  10.467 -0.0029 -1.1527 -0.4655
    8SAPS   H3S  971   4.437   5.626  10.348  0.1730  1.4550 -1.1005
    8SAPS   C24  972   4.629   5.719  10.366 -0.4919 -0.5767  0.2844
    8SAPS   H4R  973   4.691   5.633  10.334  1.4622  0.9954 -0.2456
    8SAPS   H4S  974   4.694   5.768  10.441  0.4234  0.1736 -0.9763
    8SAPS   C25  975   4.599   5.801  10.241  0.5312  0.9807  0.3413
    8SAPS   H5R  976   4.581   5.908  10.259  1.2761  1.5156 -1.9689
    8SAPS   C26  977   4.596   5.756  10.117  0.1952 -0.4448  0.4463
    8SAPS   H6R  978   4.581   5.832  10.039  0.3759  2.6380  3.3061
    8SAPS   C27  979   4.628   5.610  10.081 -0.3636 -0.0324 -0.2718
    8SAPS   H7R  980   4.603   5.544  10.166 -1.3169 -2.3635 -2.3263
    8SAPS   H7S  981   4.736   5.589  10.065 -0.5669 -0.5873 -0.9117
    8SAPS   C28  982   4.565   5.568   9.950 -0.4843  0.4162 -0.9398
    8SAPS   H8R  983   4.487   5.492   9.966 -0.0931 -0.2439 -2.0888
    8SAPS   C29  984   4.603   5.612   9.827 -0.2973  0.2697  0.4346
    8SAPS   H9R  985   4.560   5.558   9.741 -0.6812 -1.8545  1.9111
    8SAPS  C210  986   4.708   5.715   9.807  0.0920  0.2825 -0.0642
    8SAPS  H10R  987   4.811   5.683   9.837  0.2958  0.7163 -0.2922
    8SAPS  H10S  988   4.694   5.797   9.881 -1.0451 -1.8083  2.1260
    8SAPS  C211  989   4.702   5.759   9.666  0.6375  0.1182  0.2142
    8SAPS  H11R  990   4.600   5.786   9.634  1.0676 -1.1285 -2.3686
    8SAPS  C212  991   4.792   5.756   9.568  0.1452  0.7470  0.1348
    8SAPS  H12R  992   4.756   5.793   9.471  0.1637 -1.8955 -0.9346
    8SAPS  C213  993   4.937   5.713   9.564  0.7970  0.2120 -0.4025
    8SAPS  H13R  994   4.954   5.641   9.481  0.1300  0.1465 -0.4870
    8SAPS  H13S  995   4.965   5.646   9.648  1.0792  1.4765  0.5229
    8SAPS  C214  996   5.038   5.832   9.547 -0.0514 -0.2426 -0.7869
    8SAPS  H14R  997   5.069   5.883   9.640  2.5181 -3.7328  0.3501
    8SAPS  C215  998   5.104   5.856   9.434 -0.5467  0.3054  0.0797
    8SAPS  H15R  999   5.153   5.954   9.429 -0.5972  0.3718  0.8338
    8SAPS  C216 1000   5.091   5.774   9.301 -0.2176  0.3643  0.4213
    8SAPS  H16R 1001   5.068   5.671   9.334 -0.2839  0.3864  0.4411
    8SAPS  H16S 1002   5.183   5.761   9.239 -1.2999  0.4335 -1.2136
    8SAPS  C217 1003   4.983   5.844   9.215  0.0987 -0.2119 -0.0987
    8SAPS  H17R 1004   5.018   5.939   9.170 -3.6606  1.8062  1.1233
    8SAPS  H17S 1005   4.896   5.863   9.280  0.9350 -1.7267  1.5194
    8SAPS  C218 1006   4.936   5.765   9.092 -0.3907  0.3561 -0.0877
    8SAPS  H18R 1007   5.018   5.761   9.017  0.8503 -0.6910  1.3046
    8SAPS  H18S 1008   4.843   5.803   9.045 -0.1604  0.2029 -0.6765
    8SAPS  C219 1009   4.907   5.617   9.122 -0.0035  0.4249 -0.1804
    8SAPS  H19R 1010   4.841   5.608   9.211  2.0325 -1.8465  1.1442
    8SAPS  H19S 1011   4.999   5.563   9.152  0.6830  1.4586 -0.4139
    8SAPS  C220 1012   4.859   5.550   8.996  0.6939 -0.5635  0.1085
    8SAPS  H20R 1013   4.753   5.570   8.969  0.7041  1.3755  1.3532
    8SAPS  H20S 1014   4.880   5.442   9.007 -0.1466 -0.8950 -1.5138
    8SAPS  H20T 1015   4.926   5.557   8.908  0.3242  0.8430 -0.0819
    8SAPS   C33 1016   5.143   5.659  10.438  0.1211 -0.5234  0.5035
    8SAPS   H3X 1017   5.196   5.591  10.509  1.5474  1.0644  0.9742
    8SAPS   H3Y 1018   5.189   5.759  10.447  3.4180 -2.0559  1.5502
    8SAPS   C34 1019   5.156   5.612  10.290 -0.1796  0.1230  0.1582
    8SAPS   H4X 1020   5.125   5.506  10.287  0.5772 -0.1366  1.1179
    8SAPS   H4Y 1021   5.259   5.621  10.249  0.0472  3.1302  1.2317
    8SAPS   C35 1022   5.080   5.714  10.201 -0.4658 -0.5046 -0.1637
    8SAPS   H5X 1023   5.108   5.814  10.240 -0.2595  0.8133 -3.4837
    8SAPS   H5Y 1024   4.970   5.706  10.213 -0.7244  1.3475 -1.0832
    8SAPS   C36 1025   5.136   5.704  10.053  1.1249 -0.2880 -1.3015
    8SAPS   H6X 1026   5.243   5.730  10.060  0.9401 -0.3569  2.9442
    8SAPS   H6Y 1027   5.083   5.772   9.983  1.0559  0.3205 -0.6603
    8SAPS   C37 1028   5.117   5.564   9.979  0.2009 -0.4515  0.0013
    8SAPS   H7X 1029   5.011   5.550   9.949  0.5300  0.3006 -1.5268
    8SAPS   H7Y 1030   5.147   5.487  10.054  1.2245 -0.0484  0.0137
    8SAPS   C38 1031   5.220   5.572   9.857  1.0669 -0.7341  0.4265
    8SAPS   H8X 1032   5.317   5.590   9.909  0.4493 -0.5486  1.5097
    8SAPS   H8Y 1033   5.186   5.654   9.790 -0.4090 -1.2115  0.5789
    8SAPS   C39 1034   5.235   5.441   9.781 -0.1063 -0.3758  0.4919
    8SAPS   H9X 1035   5.139   5.415   9.732 -0.3937 -0.9747  1.3717
    8SAPS   H9Y 1036   5.258   5.368   9.861  0.7468 -1.5304 -0.7774
    8SAPS  C310 1037   5.336   5.441   9.676 -0.2252 -0.4377 -0.2928
    8SAPS  H10X 1038   5.349   5.338   9.637  0.3681 -0.6708  0.5357
    8SAPS  H10Y 1039   5.436   5.480   9.703 -0.8617  0.6930  0.4908
    8SAPS  C311 1040   5.307   5.532   9.553  0.5246  0.7349  0.2256
    8SAPS  H11X 1041   5.296   5.636   9.591 -2.2499  0.3999  0.4426
    8SAPS  H11Y 1042   5.205   5.510   9.516  0.1171  0.1804  1.6237
    8SAPS  C312 1043   5.399   5.511   9.438  0.3908  0.4156  0.5957
    8SAPS  H12X 1044   5.399   5.404   9.412  0.5878  0.6235 -0.2602
    8SAPS  H12Y 1045   5.506   5.533   9.459  0.7979 -1.0360  0.0339
    8SAPS  C313 1046   5.365   5.584   9.307  0.2606 -0.2616  0.0965
    8SAPS  H13X 1047   5.362   5.693   9.328 -0.0414 -0.6175  2.0695
    8SAPS  H13Y 1048   5.263   5.556   9.273  0.0954  0.1524  0.2508
    8SAPS  C314 1049   5.454   5.568   9.183 -0.4471 -0.4765 -0.1193
    8SAPS  H14X 1050   5.469   5.459   9.168 -1.0263 -0.7466  1.1552
    8SAPS  H14Y 1051   5.557   5.599   9.208  0.0627 -2.8155  0.8788
    8SAPS  C315 1052   5.397   5.646   9.064 -0.0966 -0.0100  0.2757
    8SAPS  H15X 1053   5.400   5.749   9.105  0.7297  0.1290 -0.1267
    8SAPS  H15Y 1054   5.293   5.634   9.027 -0.6549  1.5312  1.3076
    8SAPS  C316 1055   5.487   5.643   8.937  0.0799 -0.2315 -0.9920
    8SAPS  H16X 1056   5.492   5.543   8.889 -3.1327 -1.3468  0.8302
    8SAPS  H16Y 1057   5.593   5.672   8.955 -0.0663 -0.5518  0.4726
    8SAPS  C317 1058   5.428   5.734   8.826  0.6474 -0.4243  0.1070
    8SAPS  H17X 1059   5.398   5.826   8.881  1.0053 -0.7323  0.8180
    8SAPS  H17Y 1060   5.332   5.695   8.787 -0.0379  0.8485  0.4822
    8SAPS  C318 1061   5.516   5.767   8.692  0.6155  0.2152  0.0465
    8SAPS  H18X 1062   5.567   5.865   8.703  0.8591  0.0900  0.0139
    8SAPS  H18Y 1063   5.444   5.796   8.613  0.1483  0.0115  0.3941
    8SAPS  H18Z 1064   5.588   5.684   8.680  0.0575 -0.4158  0.9925
    9SAPS     N 1065   0.536   2.064   6.349  0.8041  0.4699  1.3235
    9SAPS   HN1 1066   0.473   2.018   6.418  0.2362 -0.1498  0.4058
    9SAPS   HN2 1067   0.475   2.124   6.290  1.7226  0.2158  0.1140
    9SAPS   HN3 1068   0.572   1.988   6.288  2.2921  2.3828 -0.2216
    9SAPS   C12 1069   0.638   2.154   6.398  0.2132  0.1842 -0.1381
    9SAPS  H12A 1070   0.704   2.184   6.317  0.2857 -0.7796 -0.4393
    9SAPS   C13 1071   0.578   2.290   6.448 -0.7679 -0.4085 -0.9277
    9SAPS  O13A 1072   0.459   2.307   6.429 -0.1874  0.4238 -0.0378
    9SAPS  O13B 1073   0.658   2.388   6.465  0.0096  0.3646 -0.1448
    9SAPS   C11 1074   0.713   2.091   6.517  0.4748 -0.8965  0.3199
    9SAPS  H11A 1075   0.649   2.045   6.596  1.3844 -2.8193 -0.0314
    9SAPS  H11B 1076   0.774   2.170   6.566  0.9775  1.1162 -3.3561
    9SAPS     P 1077   0.841   1.850   6.510 -0.3978 -0.3649 -0.1093
    9SAPS   O13 1078   0.722   1.796   6.576 -0.1891  0.0459 -0.6042
    9SAPS   O14 1079   0.897   1.780   6.396  0.2298  0.0045  0.2195
    9SAPS   O12 1080   0.809   1.996   6.461 -0.6266  0.2548 -0.8312
    9SAPS   O11 1081   0.954   1.873   6.619 -0.1414 -0.4377  0.0494
    9SAPS    C1 1082   0.956   1.971   6.725  0.3350  0.3555  1.0479
    9SAPS    HA 1083   0.858   1.973   6.776 -0.7804 -3.1677 -0.7622
    9SAPS    HB 1084   1.024   1.924   6.800  2.7525 -0.7914 -1.7637
    9SAPS    C2 1085   1.031   2.097   6.697  0.0045  0.3050 -1.1854
    9SAPS    HS 1086   0.966   2.163   6.635 -3.9028 -1.6041  0.7346
    9SAPS   O21 1087   1.165   2.060   6.643  0.3793 -0.1002 -0.1878
    9SAPS   C21 1088   1.226   2.157   6.584 -0.2354 -0.2726 -0.6385
    9SAPS   O22 1089   1.181   2.271   6.567  0.0252  0.6975  0.1257
    9SAPS   C22 1090   1.370   2.122   6.543  0.0351  0.0071 -0.0369
    9SAPS   H2R 1091   1.370   2.039   6.469 -2.8991 -0.7680  0.7920
    9SAPS   H2S 1092   1.411   2.212   6.492 -3.2535  1.8410  0.4469
    9SAPS    C3 1093   1.055   2.171   6.830 -0.0679 -0.1872  0.4149
    9SAPS    HX 1094   1.115   2.258   6.797 -0.3460  0.7614  2.3532
    9SAPS    HY 1095   1.114   2.107   6.900 -0.7206 -1.0499  0.1876
    9SAPS   O31 1096   0.929   2.204   6.897 -0.6326  0.1484 -0.2114
    9SAPS   C31 1097   0.939   2.312   6.968 -0.0290  0.0224  0.4083
    9SAPS   O32 1098   1.046   2.367   6.993 -0.3355  0.0058 -0.2740
    9SAPS   C32 1099   0.800   2.372   7.003 -0.6455 -0.3133  0.0556
    9SAPS   H2X 1100   0.730   2.339   6.924 -3.3239 -0.7987  2.5238
    9SAPS   H2Y 1101   0.804   2.483   7.001 -1.8926 -0.2480  0.8085
    9SAPS   C23 1102   1.463   2.084   6.663  0.4795  0.8331  0.1153
    9SAPS   H3R 1103   1.540   2.011   6.628  1.0971 -0.2510  3.5521
    9SAPS   H3S 1104   1.407   2.028   6.741  0.8893 -0.0556 -0.2184
    9SAPS   C24 1105   1.531   2.200   6.736  0.7972  0.5881  0.0548
    9SAPS   H4R 1106   1.591   2.244   6.654 -0.0902  3.1648  0.7477
    9SAPS   H4S 1107   1.603   2.159   6.810 -1.2301 -0.4335  1.5184
    9SAPS   C25 1108   1.422   2.301   6.781 -0.7805  0.2646  0.0408
    9SAPS   H5R 1109   1.396   2.370   6.700  2.8304  2.1686  0.3723
    9SAPS   C26 1110   1.379   2.322   6.907 -1.0970 -0.2362 -0.1825
    9SAPS   H6R 1111   1.295   2.392   6.918 -1.4250 -0.7524  0.6182
    9SAPS   C27 1112   1.422   2.248   7.026  0.1272  0.8254 -0.7858
    9SAPS   H7R 1113   1.486   2.161   6.999  0.6158  1.1367 -0.6454
    9SAPS   H7S 1114   1.337   2.190   7.066 -0.4398  2.0755 -0.1290
    9SAPS   C28 1115   1.485   2.329   7.134 -0.5611  0.1233 -0.1673
    9SAPS   H8R 1116   1.574   2.380   7.094 -1.3878  2.1338  0.4543
    9SAPS   C29 1117   1.441   2.360   7.257 -0.5409  0.9034  0.1225
    9SAPS   H9R 1118   1.510   2.416   7.322  0.1832 -0.6966  0.7634
    9SAPS  C210 1119   1.313   2.313   7.314  0.3127 -0.2329 -0.4331
    9SAPS  H10R 1120   1.335   2.233   7.388  1.1270 -0.3792 -0.8253
    9SAPS  H10S 1121   1.245   2.267   7.240  0.3550 -0.4440 -0.3437
    9SAPS  C211 1122   1.218   2.409   7.376 -0.0620 -0.6348 -0.2415
    9SAPS  H11R 1123   1.192   2.498   7.316  1.4861  1.0826  1.5961
    9SAPS  C212 1124   1.174   2.412   7.502  0.0965 -0.5816 -0.4835
    9SAPS  H12R 1125   1.113   2.500   7.525  0.5338 -0.0674 -1.2860
    9SAPS  C213 1126   1.200   2.316   7.622  0.5385 -0.4987  0.6881
    9SAPS  H13R 1127   1.235   2.216   7.588 -0.4743  0.1767 -2.4998
    9SAPS  H13S 1128   1.105   2.287   7.671 -1.0091 -1.0780 -2.4986
    9SAPS  C214 1129   1.297   2.389   7.718  0.7004  0.1047 -1.0324
    9SAPS  H14R 1130   1.367   2.461   7.673  0.6482  0.0790 -1.1550
    9SAPS  C215 1131   1.323   2.373   7.850 -0.4816  0.3410  0.5980
    9SAPS  H15R 1132   1.403   2.431   7.899  1.0502 -2.1443  1.1573
    9SAPS  C216 1133   1.255   2.265   7.936 -0.1236 -0.1550  0.4572
    9SAPS  H16R 1134   1.330   2.214   8.000 -1.0987 -1.3592  0.6554
    9SAPS  H16S 1135   1.210   2.190   7.868  1.2531  0.5781 -1.3070
    9SAPS  C217 1136   1.139   2.326   8.016  0.3827  0.5850  0.2381
    9SAPS  H17R 1137   1.074   2.263   8.079 -0.1333 -1.3480 -2.1631
    9SAPS  H17S 1138   1.075   2.383   7.945 -0.6597 -0.7220  0.1147
    9SAPS  C218 1139   1.188   2.416   8.129 -0.0769 -0.1074  0.2881
    9SAPS  H18R 1140   1.230   2.510   8.087 -0.1537 -1.4410 -2.9005
    9SAPS  H18S 1141   1.269   2.365   8.187 -0.0449 -0.6467 -0.2306
    9SAPS  C219 1142   1.075   2.478   8.220 -0.0265 -0.0854 -0.4857
    9SAPS  H19R 1143   1.036   2.398   8.287 -0.4294 -1.0343 -1.8366
    9SAPS  H19S 1144   0.993   2.500   8.148  0.6664 -2.9933 -2.2824
    9SAPS  C220 1145   1.116   2.606   8.302  0.2721  0.0014  0.6452
    9SAPS  H20R 1146   1.202   2.594   8.371 -0.4709  0.7239  1.7109
    9SAPS  H20S 1147   1.041   2.650   8.371 -0.3433  2.4542 -1.4899
    9SAPS  H20T 1148   1.146   2.694   8.242 -1.6769  0.5594  0.4727
    9SAPS   C33 1149   0.741   2.320   7.138  0.2479  0.6012 -0.3714
    9SAPS   H3X 1150   0.760   2.211   7.148  0.6494  0.7559  0.6519
    9SAPS   H3Y 1151   0.631   2.334   7.129  0.1342  2.2896  2.7312
    9SAPS   C34 1152   0.778   2.396   7.263  0.2893  0.2174  0.4673
    9SAPS   H4X 1153   0.776   2.503   7.233 -3.8281  0.1459  0.1704
    9SAPS   H4Y 1154   0.882   2.363   7.281  0.9789  1.7925 -0.5114
    9SAPS   C35 1155   0.688   2.383   7.382  0.3248 -0.3501  0.2087
    9SAPS   H5X 1156   0.659   2.276   7.393  0.2671 -0.4626 -0.9463
    9SAPS   H5Y 1157   0.589   2.434   7.373  0.4197  0.0616  1.5174
    9SAPS   C36 1158   0.755   2.423   7.514 -0.1062  0.1276 -0.6312
    9SAPS   H6X 1159   0.766   2.532   7.529 -0.4263  0.0356  0.3048
    9SAPS   H6Y 1160   0.858   2.380   7.515  0.5174  1.5660 -1.2733
    9SAPS   C37 1161   0.682   2.371   7.643  0.5177 -0.7039  0.1354
    9SAPS   H7X 1162   0.646   2.267   7.629 -0.3478 -0.5806  1.3589
    9SAPS   H7Y 1163   0.588   2.429   7.654  1.9137  2.0949 -2.0889
    9SAPS   C38 1164   0.775   2.381   7.767  0.6252  0.2085 -0.2007
    9SAPS   H8X 1165   0.813   2.485   7.770  1.0281  0.1500 -2.3644
    9SAPS   H8Y 1166   0.866   2.323   7.743 -0.1794 -1.8765  1.5630
    9SAPS   C39 1167   0.714   2.340   7.900  0.4582 -0.7180 -0.3797
    9SAPS   H9X 1168   0.667   2.240   7.892 -1.7328  0.3663 -1.4943
    9SAPS   H9Y 1169   0.633   2.411   7.930  0.2753  0.1097 -2.7826
    9SAPS  C310 1170   0.820   2.326   7.993 -0.0032 -0.4051  1.2705
    9SAPS  H10X 1171   0.861   2.429   7.983 -0.1341 -0.5046 -0.4282
    9SAPS  H10Y 1172   0.905   2.261   7.963 -0.6133 -1.4558  1.8204
    9SAPS  C311 1173   0.772   2.301   8.141 -0.0501 -0.1604 -0.1713
    9SAPS  H11X 1174   0.679   2.358   8.164  0.5320  0.0758  1.6895
    9SAPS  H11Y 1175   0.848   2.338   8.213 -1.6508  1.8711  0.5540
    9SAPS  C312 1176   0.734   2.152   8.162  0.3918  0.6755 -0.5598
    9SAPS  H12X 1177   0.818   2.079   8.151  0.8247  0.8024  1.6474
    9SAPS  H12Y 1178   0.653   2.111   8.098 -0.4946  0.7309  0.5088
    9SAPS  C313 1179   0.700   2.131   8.310 -0.6948 -0.1152  0.2281
    9SAPS  H13X 1180   0.605   2.182   8.337  0.5315  1.4738  1.6756
    9SAPS  H13Y 1181   0.780   2.150   8.385 -3.1517 -0.5835  3.0275
    9SAPS  C314 1182   0.673   1.981   8.331 -0.1373 -0.6828  0.2334
    9SAPS  H14X 1183   0.747   1.934   8.263  1.8886  0.6228  1.4366
    9SAPS  H14Y 1184   0.577   1.957   8.282  0.6359 -0.1435 -1.6241
    9SAPS  C315 1185   0.704   1.930   8.474 -0.6141 -0.4543  0.5748
    9SAPS  H15X 1186   0.681   2.019   8.537 -0.9069  1.1667 -1.7357
    9SAPS  H15Y 1187   0.813   1.914   8.490 -0.4422 -0.7674 -0.8960
    9SAPS  C316 1188   0.651   1.796   8.526  0.3505 -0.1116  0.1563
    9SAPS  H16X 1189   0.698   1.707   8.480 -2.0217 -0.8023 -1.0509
    9SAPS  H16Y 1190   0.546   1.776   8.494  0.3599  1.7672 -1.1616
    9SAPS  C317 1191   0.641   1.793   8.681  0.5532  0.9733  0.3994
    9SAPS  H17X 1192   0.586   1.703   8.715 -0.1255  1.4064  0.4737
    9SAPS  H17Y 1193   0.571   1.871   8.719 -1.2608  1.0114 -2.7565
    9SAPS  C318 1194   0.771   1.792   8.758 -0.1746 -0.0233 -0.0342
    9SAPS  H18X 1195   0.838   1.875   8.726  0.3242  0.3538  1.9157
    9SAPS  H18Y 1196   0.829   1.697   8.755 -2.1272 -1.1997 -2.5308
    9SAPS  H18Z 1197   0.746   1.807   8.866 -2.9995  0.6485 -0.7339
   10SAPS     N 1198   1.189   1.751   6.511  0.2237  0.0068 -0.2104
   10SAPS   HN1 1199   1.193   1.831   6.444 -0.0467 -0.7078 -1.0849
   10SAPS   HN2 1200   1.109   1.768   6.575  0.1992  2.4592 -0.8393
   10SAPS   HN3 1201   1.280   1.740   6.561  0.2036 -2.8133 -0.7667
   10SAPS   C12 1202   1.178   1.631   6.427 -0.4726  0.0071  0.8525
   10SAPS  H12A 1203   1.094   1.638   6.360 -0.3075  0.4405  0.6890
   10SAPS   C13 1204   1.301   1.597   6.338 -0.0242 -0.1981  0.1415
   10SAPS  O13A 1205   1.404   1.677   6.328  0.1133 -0.4512  0.1842
   10SAPS  O13B 1206   1.276   1.509   6.244 -0.3675 -0.5933 -0.1079
   10SAPS   C11 1207   1.156   1.507   6.518 -0.0362  0.1990  0.0750
   10SAPS  H11A 1208   1.253   1.482   6.566 -1.3770 -1.0921  2.2506
   10SAPS  H11B 1209   1.115   1.425   6.455 -1.3572  0.6198  0.3752
   10SAPS     P 1210   0.965   1.414   6.683 -0.4604  0.4767 -0.2048
   10SAPS   O13 1211   0.840   1.471   6.726  0.8263 -0.0942  0.0097
   10SAPS   O14 1212   0.947   1.309   6.580  0.0069  0.2408 -0.0744
   10SAPS   O12 1213   1.056   1.532   6.628 -0.2849  0.2181  0.1576
   10SAPS   O11 1214   1.040   1.352   6.811  0.2613  0.6962 -0.5648
   10SAPS    C1 1215   1.153   1.414   6.866 -0.1664 -0.3775  0.1043
   10SAPS    HA 1216   1.210   1.335   6.919  1.1114  0.9233  0.6971
   10SAPS    HB 1217   1.232   1.454   6.798  0.0820  2.2560  1.8679
   10SAPS    C2 1218   1.111   1.523   6.977 -1.3338 -0.1374  0.1086
   10SAPS    HS 1219   1.185   1.531   7.060 -1.4484 -1.2447  0.3183
   10SAPS   O21 1220   0.985   1.487   7.036 -0.1475  0.2207  1.1428
   10SAPS   C21 1221   0.997   1.396   7.138  0.6716 -0.1906 -0.7247
   10SAPS   O22 1222   1.102   1.348   7.173  0.3935 -0.2194 -0.1269
   10SAPS   C22 1223   0.859   1.379   7.199 -0.3235  0.3814  0.0027
   10SAPS   H2R 1224   0.811   1.475   7.229 -2.5003 -0.4979 -0.5457
   10SAPS   H2S 1225   0.796   1.312   7.137 -0.9304  0.1764  0.8187
   10SAPS    C3 1226   1.103   1.677   6.923 -0.4806 -0.5327  0.8835
   10SAPS    HX 1227   1.035   1.683   6.835 -0.1193  1.7870  0.7121
   10SAPS    HY 1228   1.201   1.712   6.882 -0.9432 -0.3341 -0.0806
   10SAPS   O31 1229   1.062   1.761   7.034  0.0609  0.2331  0.4275
   10SAPS   C31 1230   0.927   1.780   7.047 -0.8553  0.4337  0.2737
   10SAPS   O32 1231   0.844   1.740   6.968 -0.5033  0.3271 -0.3439
   10SAPS   C32 1232   0.894   1.860   7.174 -0.1403 -0.0762 -0.1809
   10SAPS   H2X 1233   0.852   1.785   7.244 -1.8984  1.3859  0.3665
   10SAPS   H2Y 1234   0.811   1.923   7.134 -1.5265 -2.1127 -0.5886
   10SAPS   C23 1235   0.873   1.289   7.330 -0.2161 -0.0368 -0.1127
   10SAPS   H3R 1236   0.942   1.208   7.299  0.1315 -0.2010  1.0960
   10SAPS   H3S 1237   0.773   1.245   7.351 -1.8651  1.8574 -3.4343
   10SAPS   C24 1238   0.920   1.379   7.451 -0.2111  0.2860 -0.5273
   10SAPS   H4R 1239   0.841   1.442   7.498 -1.5897 -2.1711  0.5373
   10SAPS   H4S 1240   0.997   1.446   7.408  1.7213 -0.6294  1.4022
   10SAPS   C25 1241   1.007   1.290   7.543 -0.1339  0.3657  0.2676
   10SAPS   H5R 1242   1.095   1.245   7.497 -1.4529 -0.2534 -1.7337
   10SAPS   C26 1243   0.971   1.276   7.672 -0.2788  0.5284  0.0856
   10SAPS   H6R 1244   1.030   1.210   7.738 -0.7257  0.9433  0.8958
   10SAPS   C27 1245   0.850   1.330   7.744  0.3575  0.4516 -0.7236
   10SAPS   H7R 1246   0.784   1.384   7.672 -1.7256 -1.3543 -0.2121
   10SAPS   H7S 1247   0.885   1.407   7.816 -1.3513  0.1175  0.4789
   10SAPS   C28 1248   0.757   1.223   7.805  0.0795  0.5470 -0.7584
   10SAPS   H8R 1249   0.685   1.171   7.740  0.1031  0.3760 -0.6484
   10SAPS   C29 1250   0.755   1.192   7.932  0.4167  0.2675 -0.7458
   10SAPS   H9R 1251   0.686   1.110   7.959  0.6544  0.3195  0.0337
   10SAPS  C210 1252   0.827   1.241   8.053 -0.1825  0.8569  0.3051
   10SAPS  H10R 1253   0.766   1.231   8.146 -2.2288  0.9346 -1.0042
   10SAPS  H10S 1254   0.855   1.349   8.044  1.2583  0.4697  0.0260
   10SAPS  C211 1255   0.960   1.164   8.058 -0.0176 -0.3370  0.7151
   10SAPS  H11R 1256   1.022   1.184   7.969 -2.0831 -0.4630 -0.7843
   10SAPS  C212 1257   1.017   1.080   8.146 -0.7850 -0.3661  1.1497
   10SAPS  H12R 1258   1.113   1.037   8.113 -0.9226  1.8608 -2.4697
   10SAPS  C213 1259   0.954   1.016   8.270 -0.1734  0.3395  0.1685
   10SAPS  H13R 1260   0.929   0.912   8.240  1.0408 -1.1778  4.1925
   10SAPS  H13S 1261   0.860   1.070   8.296  0.8742  2.1672  0.2289
   10SAPS  C214 1262   1.056   1.017   8.370 -0.3636  0.7294  0.0238
   10SAPS  H14R 1263   1.079   1.117   8.411 -0.0412  0.5948  0.1786
   10SAPS  C215 1264   1.122   0.909   8.422 -0.1664  0.7341 -0.0986
   10SAPS  H15R 1265   1.195   0.911   8.504  1.2547  1.4019 -1.3718
   10SAPS  C216 1266   1.099   0.764   8.383 -0.2746  0.1863  0.3480
   10SAPS  H16R 1267   1.010   0.752   8.317 -1.2063 -1.3242  1.8399
   10SAPS  H16S 1268   1.082   0.706   8.476 -0.9560  0.4965  0.4233
   10SAPS  C217 1269   1.212   0.694   8.308 -0.3936  0.0445 -0.6947
   10SAPS  H17R 1270   1.247   0.767   8.232  0.2030 -0.0842 -0.5384
   10SAPS  H17S 1271   1.166   0.604   8.261  2.5568 -1.7896 -0.1636
   10SAPS  C218 1272   1.331   0.646   8.389  0.5395 -0.1388 -0.1090
   10SAPS  H18R 1273   1.296   0.581   8.472 -1.4281  1.5998  0.4895
   10SAPS  H18S 1274   1.395   0.729   8.426  2.6881 -3.0495  2.9699
   10SAPS  C219 1275   1.422   0.552   8.308  0.0564  0.3707  0.0285
   10SAPS  H19R 1276   1.358   0.461   8.301  1.8593 -0.8291 -1.2944
   10SAPS  H19S 1277   1.515   0.516   8.357  2.3486  1.7137 -3.1051
   10SAPS  C220 1278   1.461   0.612   8.172  0.6979  0.5589  0.1163
   10SAPS  H20R 1279   1.493   0.530   8.105 -3.6952 -0.9522 -0.2400
   10SAPS  H20S 1280   1.541   0.688   8.188  0.2612  1.0890 -0.2315
   10SAPS  H20T 1281   1.373   0.654   8.120 -0.6294  1.2538  2.8173
   10SAPS   C33 1282   1.008   1.936   7.239  0.6024  0.1663  1.1511
   10SAPS   H3X 1283   1.074   1.990   7.169  0.7344 -0.0422  1.1146
   10SAPS   H3Y 1284   1.066   1.856   7.290  2.2280 -0.3659 -1.4509
   10SAPS   C34 1285   0.954   2.040   7.345  0.6675 -0.1827 -0.0473
   10SAPS   H4X 1286   0.897   2.120   7.293  1.3001  2.6932  3.5350
   10SAPS   H4Y 1287   1.045   2.094   7.379 -0.8797  1.3737  1.7029
   10SAPS   C35 1288   0.865   1.974   7.454  0.0839 -0.2125 -0.1033
   10SAPS   H5X 1289   0.911   1.874   7.468  1.1707  0.7064  3.2059
   10SAPS   H5Y 1290   0.759   1.968   7.420 -0.5601  0.0712  1.8270
   10SAPS   C36 1291   0.888   2.039   7.589 -0.3905 -0.0285  0.6122
   10SAPS   H6X 1292   0.847   2.142   7.586 -1.6445 -0.4949  1.5450
   10SAPS   H6Y 1293   0.997   2.058   7.598 -0.2168 -1.1996  1.0161
   10SAPS   C37 1294   0.822   1.960   7.699 -0.1675  0.0578 -0.3941
   10SAPS   H7X 1295   0.836   1.852   7.679  0.1960 -0.1932  1.1518
   10SAPS   H7Y 1296   0.714   1.987   7.701 -0.7413 -2.1163 -0.5899
   10SAPS   C38 1297   0.880   1.984   7.842 -0.5188  0.2371  0.0251
   10SAPS   H8X 1298   0.800   1.981   7.919 -2.1043 -0.8997 -1.6287
   10SAPS   H8Y 1299   0.937   2.079   7.840 -0.9740  0.4970 -1.7901
   10SAPS   C39 1300   0.987   1.876   7.876  0.0399  0.6448 -0.7085
   10SAPS   H9X 1301   1.050   1.836   7.793 -0.0488 -0.3748 -0.2909
   10SAPS   H9Y 1302   0.926   1.786   7.899 -0.9287  1.5348  0.2567
   10SAPS  C310 1303   1.079   1.911   7.994  0.7903  0.3402  0.3737
   10SAPS  H10X 1304   1.025   1.924   8.090  1.9088  2.3340  0.7472
   10SAPS  H10Y 1305   1.125   2.010   7.977 -1.5329  1.2641 -0.6389
   10SAPS  C311 1306   1.174   1.799   8.007  0.3263 -0.1481  0.3500
   10SAPS  H11X 1307   1.249   1.829   8.083 -0.1673 -0.9809  1.1832
   10SAPS  H11Y 1308   1.226   1.790   7.910 -0.1250  0.5819  0.0341
   10SAPS  C312 1309   1.132   1.658   8.050 -0.0407  0.0236  0.1525
   10SAPS  H12X 1310   1.232   1.612   8.063 -0.4753 -0.7966  0.6588
   10SAPS  H12Y 1311   1.072   1.612   7.968 -0.6023  0.8541  0.0899
   10SAPS  C313 1312   1.039   1.662   8.179 -0.3791  0.0200 -1.1618
   10SAPS  H13X 1313   0.940   1.699   8.145 -2.2825 -0.9246  3.0380
   10SAPS  H13Y 1314   1.091   1.737   8.241  2.6173 -1.6633 -1.5098
   10SAPS  C314 1315   1.030   1.527   8.244 -0.3263  0.0088  0.4279
   10SAPS  H14X 1316   1.125   1.505   8.297 -0.0129  0.2065 -0.0584
   10SAPS  H14Y 1317   1.019   1.454   8.160 -2.8302 -0.6720  1.2922
   10SAPS  C315 1318   0.906   1.512   8.334 -0.1587 -0.7986  0.3583
   10SAPS  H15X 1319   0.809   1.502   8.282  0.4117  1.7280 -1.2541
   10SAPS  H15Y 1320   0.897   1.606   8.391 -0.5359 -0.4972 -0.1993
   10SAPS  C316 1321   0.917   1.396   8.433  0.2533 -0.2525 -0.1359
   10SAPS  H16X 1322   1.000   1.424   8.502  0.1752 -1.9950  0.6777
   10SAPS  H16Y 1323   0.957   1.310   8.376 -0.6213 -0.1928 -0.8298
   10SAPS  C317 1324   0.799   1.368   8.526  0.4401 -0.7304  0.3684
   10SAPS  H17X 1325   0.705   1.347   8.470  0.2441 -1.4947  0.9666
   10SAPS  H17Y 1326   0.782   1.464   8.579  0.3185 -1.2908  1.3515
   10SAPS  C318 1327   0.827   1.249   8.621 -0.1999 -0.0600  0.6177
   10SAPS  H18X 1328   0.924   1.264   8.672 -0.3654 -1.0532  1.2446
   10SAPS  H18Y 1329   0.837   1.151   8.571 -1.5148 -0.5549  1.2941
   10SAPS  H18Z 1330   0.753   1.236   8.703  0.0090 -1.6613  0.5566
   11SAPS     N 1331   3.558   4.550   6.252  0.3759 -0.4752  0.1829
   11SAPS   HN1 1332   3.482   4.605   6.297  0.0751 -0.9363  0.2365
   11SAPS   HN2 1333   3.526   4.452   6.260  1.0690 -0.9352 -2.2039
   11SAPS   HN3 1334   3.645   4.565   6.307  0.5038 -1.8711  0.3642
   11SAPS   C12 1335   3.583   4.587   6.115  0.4618 -0.7090 -0.2423
   11SAPS  H12A 1336   3.573   4.693   6.096  1.3737 -0.7520 -1.0179
   11SAPS   C13 1337   3.705   4.540   6.043 -1.4175 -0.1737  0.2399
   11SAPS  O13A 1338   3.794   4.471   6.097  0.0940 -0.3216  0.2321
   11SAPS  O13B 1339   3.714   4.560   5.918  0.0352 -0.1285  0.0857
   11SAPS   C11 1340   3.458   4.535   6.032 -0.3480 -0.3354 -0.0072
   11SAPS  H11A 1341   3.459   4.425   6.043  1.2010 -0.5252 -1.8556
   11SAPS  H11B 1342   3.471   4.565   5.926  0.2007  1.1433  0.4584
   11SAPS     P 1343   3.207   4.537   5.991 -0.0945  0.0545 -0.1205
   11SAPS   O13 1344   3.211   4.606   5.866  0.1683  0.4680  0.6101
   11SAPS   O14 1345   3.210   4.387   5.990 -0.2306 -0.4432 -0.0399
   11SAPS   O12 1346   3.332   4.589   6.079 -0.0944  0.2767 -0.1953
   11SAPS   O11 1347   3.083   4.580   6.086  0.0156  0.7536 -0.1578
   11SAPS    C1 1348   3.097   4.586   6.228 -0.0697  0.1891  0.0063
   11SAPS    HA 1349   3.199   4.607   6.266  1.2500 -1.7448 -2.3422
   11SAPS    HB 1350   3.038   4.671   6.270 -1.0685  0.1728 -1.3333
   11SAPS    C2 1351   3.054   4.449   6.291  0.7384 -0.0792 -0.2934
   11SAPS    HS 1352   3.119   4.367   6.251  0.4476 -0.3374 -0.2392
   11SAPS   O21 1353   2.915   4.429   6.262  0.0842  0.0481  0.3098
   11SAPS   C21 1354   2.877   4.297   6.268 -0.6551  0.1447 -0.3020
   11SAPS   O22 1355   2.955   4.207   6.282 -0.4500 -0.2345  0.6363
   11SAPS   C22 1356   2.723   4.284   6.258  0.2181  0.0079  0.7546
   11SAPS   H2R 1357   2.677   4.372   6.307 -3.4197  0.4928 -3.2068
   11SAPS   H2S 1358   2.702   4.279   6.149 -0.0234 -0.0796  0.8038
   11SAPS    C3 1359   3.074   4.440   6.447 -0.3115  0.2009 -0.7078
   11SAPS    HX 1360   3.054   4.333   6.466  3.4646 -0.8684 -2.2141
   11SAPS    HY 1361   3.007   4.513   6.496 -0.3856  1.5146 -2.7198
   11SAPS   O31 1362   3.208   4.465   6.484 -0.1483  0.2668 -0.6616
   11SAPS   C31 1363   3.239   4.465   6.606  0.6835 -0.3565  0.2122
   11SAPS   O32 1364   3.162   4.440   6.701 -0.7570 -0.7052  0.4766
   11SAPS   C32 1365   3.386   4.505   6.618 -0.5070 -0.1884  0.5572
   11SAPS   H2X 1366   3.391   4.615   6.632  1.4608  0.1122 -2.1943
   11SAPS   H2Y 1367   3.434   4.485   6.520  1.0739  0.8653  1.1054
   11SAPS   C23 1368   2.681   4.152   6.326  0.1032 -0.2647 -0.4645
   11SAPS   H3R 1369   2.708   4.142   6.433  0.8003 -0.6002 -0.6636
   11SAPS   H3S 1370   2.721   4.066   6.268  0.6161 -0.8448  0.7395
   11SAPS   C24 1371   2.532   4.125   6.326  0.4360  0.2932  0.2812
   11SAPS   H4R 1372   2.510   4.029   6.377  1.3636  0.6327  1.3557
   11SAPS   H4S 1373   2.507   4.109   6.219 -2.0523  1.1249  0.6928
   11SAPS   C25 1374   2.442   4.236   6.378 -0.4441  1.1948  0.6828
   11SAPS   H5R 1375   2.414   4.307   6.298 -0.9314 -0.7204 -0.9009
   11SAPS   C26 1376   2.408   4.261   6.504  0.3911 -0.1732  0.4760
   11SAPS   H6R 1377   2.329   4.335   6.527 -2.4567 -2.6288 -0.9463
   11SAPS   C27 1378   2.450   4.171   6.614  0.5430 -0.4942 -0.4101
   11SAPS   H7R 1379   2.545   4.119   6.592  0.8549 -1.8552  3.8349
   11SAPS   H7S 1380   2.372   4.093   6.630  1.2663 -0.9439  0.9701
   11SAPS   C28 1381   2.467   4.238   6.743 -0.2947  0.8433  0.3425
   11SAPS   H8R 1382   2.416   4.183   6.823 -0.5001  1.8620  0.9253
   11SAPS   C29 1383   2.555   4.330   6.776  0.1144 -0.2108 -0.0082
   11SAPS   H9R 1384   2.564   4.358   6.882 -3.0488  1.7084 -0.1781
   11SAPS  C210 1385   2.663   4.401   6.690  0.5297  1.1759  0.1358
   11SAPS  H10R 1386   2.634   4.395   6.583  0.9687  2.3261 -0.0555
   11SAPS  H10S 1387   2.743   4.325   6.700 -2.0963 -1.4279  2.3462
   11SAPS  C211 1388   2.717   4.542   6.720 -0.3520  0.0648 -0.7298
   11SAPS  H11R 1389   2.688   4.617   6.645 -2.8660 -1.7868 -1.6816
   11SAPS  C212 1390   2.784   4.580   6.827  0.2775 -0.2925 -0.8998
   11SAPS  H12R 1391   2.827   4.681   6.834  2.2543 -1.1915  0.6617
   11SAPS  C213 1392   2.830   4.497   6.943 -0.0624 -0.9891 -0.0318
   11SAPS  H13R 1393   2.824   4.388   6.923  0.6871 -1.1127  0.3802
   11SAPS  H13S 1394   2.757   4.511   7.025 -0.2612 -1.0142 -0.2068
   11SAPS  C214 1395   2.963   4.533   7.005 -0.0031 -0.4914 -0.0011
   11SAPS  H14R 1396   3.037   4.565   6.930 -1.9138  1.1201 -1.2248
   11SAPS  C215 1397   3.007   4.526   7.132 -0.2224 -0.1988  0.6789
   11SAPS  H15R 1398   3.105   4.572   7.153 -0.6799  1.2016 -0.1053
   11SAPS  C216 1399   2.923   4.478   7.246 -0.5234  0.7859 -0.3408
   11SAPS  H16R 1400   2.989   4.402   7.292 -1.5403 -0.0078 -0.1905
   11SAPS  H16S 1401   2.830   4.431   7.209  2.1673 -3.6577 -1.7829
   11SAPS  C217 1402   2.901   4.593   7.348  1.1795  0.6926 -0.4754
   11SAPS  H17R 1403   2.842   4.679   7.310 -0.2107  0.7732  1.7881
   11SAPS  H17S 1404   2.998   4.641   7.373  1.3820  0.6706 -1.2044
   11SAPS  C218 1405   2.823   4.543   7.473  0.0732 -0.6424  0.5756
   11SAPS  H18R 1406   2.878   4.465   7.529 -0.3580 -0.3835  1.3567
   11SAPS  H18S 1407   2.731   4.493   7.438  0.6466 -1.8782  0.8107
   11SAPS  C219 1408   2.794   4.670   7.559  0.0666  0.2341 -0.0970
   11SAPS  H19R 1409   2.703   4.721   7.520 -0.9659 -0.9530  0.6802
   11SAPS  H19S 1410   2.887   4.731   7.555 -0.2471  0.6557 -1.1645
   11SAPS  C220 1411   2.754   4.642   7.703  0.5693 -0.6095 -0.6786
   11SAPS  H20R 1412   2.717   4.734   7.753  0.2493 -1.4245  0.6122
   11SAPS  H20S 1413   2.840   4.610   7.766 -1.7877 -0.2413  2.8424
   11SAPS  H20T 1414   2.681   4.559   7.708 -0.6832  0.5018 -0.3142
   11SAPS   C33 1415   3.439   4.419   6.735  0.1183  0.1963  0.0334
   11SAPS   H3X 1416   3.424   4.314   6.699  1.9630 -0.3534  0.8207
   11SAPS   H3Y 1417   3.387   4.420   6.833  1.2854 -0.7149  0.6824
   11SAPS   C34 1418   3.584   4.449   6.775 -0.3436  0.4711 -0.2203
   11SAPS   H4X 1419   3.643   4.462   6.681 -1.4112  0.0957 -0.9508
   11SAPS   H4Y 1420   3.615   4.360   6.833  0.4366  1.3814  0.7805
   11SAPS   C35 1421   3.602   4.574   6.867  0.0179  0.2616  0.8383
   11SAPS   H5X 1422   3.583   4.667   6.809  2.2714  0.3866  0.2469
   11SAPS   H5Y 1423   3.706   4.585   6.905  0.0190 -1.1642  1.2616
   11SAPS   C36 1424   3.517   4.575   6.990 -0.0747 -0.5079 -0.6603
   11SAPS   H6X 1425   3.536   4.471   7.025 -1.4557 -1.8619 -3.7447
   11SAPS   H6Y 1426   3.410   4.597   6.970  0.1794  0.5358 -0.8806
   11SAPS   C37 1427   3.558   4.681   7.100 -0.1893  0.2734 -0.3146
   11SAPS   H7X 1428   3.510   4.775   7.065  0.4587  0.4422 -0.7712
   11SAPS   H7Y 1429   3.668   4.689   7.113 -0.2163 -0.4528  0.3574
   11SAPS   C38 1430   3.505   4.633   7.237  0.0526  0.1513  0.1112
   11SAPS   H8X 1431   3.529   4.715   7.307  1.0327 -0.3875  0.4299
   11SAPS   H8Y 1432   3.558   4.540   7.268 -2.0338 -1.3121 -0.6422
   11SAPS   C39 1433   3.358   4.617   7.240 -0.4333  0.1148  1.1488
   11SAPS   H9X 1434   3.308   4.535   7.185  0.6273 -0.6761  1.3353
   11SAPS   H9Y 1435   3.324   4.711   7.191 -1.0642 -0.4662  0.4664
   11SAPS  C310 1436   3.304   4.618   7.383 -0.1442 -0.1673 -0.0871
   11SAPS  H10X 1437   3.209   4.676   7.374  0.6275  1.2342  0.7404
   11SAPS  H10Y 1438   3.366   4.667   7.460 -1.1434  1.8255 -0.5076
   11SAPS  C311 1439   3.276   4.478   7.437 -0.3178 -0.1577  0.0709
   11SAPS  H11X 1440   3.373   4.428   7.455 -0.7391 -1.3259 -0.7933
   11SAPS  H11Y 1441   3.223   4.425   7.355  1.0457  0.2394 -1.0927
   11SAPS  C312 1442   3.188   4.469   7.563 -0.0484  0.1129 -0.3274
   11SAPS  H12X 1443   3.165   4.362   7.585  2.6766 -0.6577 -1.1712
   11SAPS  H12Y 1444   3.090   4.518   7.546  0.4803  1.8065  1.3492
   11SAPS  C313 1445   3.245   4.529   7.690  0.0951  0.0208  0.5695
   11SAPS  H13X 1446   3.230   4.636   7.664  1.6670  0.0147 -0.4198
   11SAPS  H13Y 1447   3.350   4.495   7.700 -0.0005 -1.0574 -1.7122
   11SAPS  C314 1448   3.172   4.491   7.822  0.3497 -0.4080  0.7291
   11SAPS  H14X 1449   3.186   4.385   7.850 -2.7068 -0.9342  0.5175
   11SAPS  H14Y 1450   3.062   4.500   7.804  0.5791 -0.3262 -0.7284
   11SAPS  C315 1451   3.207   4.591   7.937 -0.1574  0.9643 -1.0382
   11SAPS  H15X 1452   3.164   4.690   7.911 -1.3484  1.2448  1.7698
   11SAPS  H15Y 1453   3.313   4.622   7.942 -0.7661  2.7744  4.7589
   11SAPS  C316 1454   3.166   4.536   8.077 -0.3154  0.2355 -0.7570
   11SAPS  H16X 1455   3.196   4.430   8.080 -0.7641  0.0901 -1.3015
   11SAPS  H16Y 1456   3.055   4.525   8.076 -0.3532  0.6211 -1.4656
   11SAPS  C317 1457   3.217   4.602   8.205 -0.4938 -0.0788 -0.2801
   11SAPS  H17X 1458   3.328   4.594   8.201 -0.3326  1.2603  1.0948
   11SAPS  H17Y 1459   3.177   4.541   8.289  0.7505  0.6678  0.8815
   11SAPS  C318 1460   3.171   4.745   8.232  0.7053 -0.6763  0.6244
   11SAPS  H18X 1461   3.210   4.816   8.156  2.2638 -0.7483  1.3280
   11SAPS  H18Y 1462   3.207   4.781   8.331 -1.5423  0.1997  1.1503
   11SAPS  H18Z 1463   3.060   4.749   8.229  0.5885 -0.4983  3.3668
   12SAPS     N 1464   2.296   5.908   6.057 -0.3026 -0.2802 -0.1512
   12SAPS   HN1 1465   2.243   5.927   6.145 -0.0806 -0.5131  0.0333
   12SAPS   HN2 1466   2.387   5.873   6.093 -0.8578 -2.0672 -0.4535
   12SAPS   HN3 1467   2.311   5.995   6.002  1.0616  0.4762  1.3870
   12SAPS   C12 1468   2.237   5.805   5.976  0.1940 -1.2236  0.1141
   12SAPS  H12A 1469   2.132   5.825   5.993  0.1593 -0.6219 -0.7630
   12SAPS   C13 1470   2.257   5.814   5.819 -0.1612  0.7887  0.1765
   12SAPS  O13A 1471   2.310   5.915   5.773 -1.0777 -0.3806  0.3267
   12SAPS  O13B 1472   2.196   5.739   5.736 -0.2816 -0.1594  0.0763
   12SAPS   C11 1473   2.279   5.670   6.020  0.0658 -0.2316  0.0440
   12SAPS  H11A 1474   2.387   5.660   5.995  0.0913 -1.9652  0.7565
   12SAPS  H11B 1475   2.217   5.598   5.963 -1.5337  0.4943  0.8419
   12SAPS     P 1476   2.340   5.519   6.217 -0.8746  0.2307  0.1371
   12SAPS   O13 1477   2.247   5.403   6.208 -0.0820 -0.1976  0.0930
   12SAPS   O14 1478   2.466   5.504   6.142 -0.3128  0.3632  0.0814
   12SAPS   O12 1479   2.268   5.650   6.161 -0.5921  0.7462  0.4007
   12SAPS   O11 1480   2.368   5.558   6.364  0.8991 -0.2061 -0.1134
   12SAPS    C1 1481   2.475   5.656   6.388  0.6633  0.3334 -0.1952
   12SAPS    HA 1482   2.570   5.606   6.415  0.4208  0.4500  0.8875
   12SAPS    HB 1483   2.499   5.708   6.292  1.8557  1.4273  0.6866
   12SAPS    C2 1484   2.429   5.745   6.499 -0.3357 -1.3763  0.3655
   12SAPS    HS 1485   2.510   5.820   6.513  0.6727 -2.2291 -0.7479
   12SAPS   O21 1486   2.407   5.660   6.617 -0.3467  0.4695 -0.1155
   12SAPS   C21 1487   2.495   5.638   6.706 -0.0133 -0.5191 -0.0858
   12SAPS   O22 1488   2.615   5.665   6.696  0.6859  0.2812  0.4398
   12SAPS   C22 1489   2.428   5.567   6.816 -0.3834  0.1444 -0.5839
   12SAPS   H2R 1490   2.326   5.533   6.787 -0.3607 -0.5990  0.1677
   12SAPS   H2S 1491   2.496   5.492   6.862 -0.0542  0.3252 -0.7781
   12SAPS    C3 1492   2.302   5.824   6.470  0.0258  0.1595  0.0025
   12SAPS    HX 1493   2.215   5.756   6.483 -0.7141  1.2377  0.7568
   12SAPS    HY 1494   2.303   5.841   6.360 -0.3415  1.2750  0.1651
   12SAPS   O31 1495   2.275   5.939   6.556  0.5627  0.4161 -0.1803
   12SAPS   C31 1496   2.333   6.052   6.514 -0.1632  0.1290  0.7059
   12SAPS   O32 1497   2.407   6.061   6.419  0.5655  0.1284  0.1561
   12SAPS   C32 1498   2.295   6.175   6.605 -0.1949 -0.3609 -0.8144
   12SAPS   H2X 1499   2.196   6.149   6.647 -0.5367  2.1526 -0.0212
   12SAPS   H2Y 1500   2.273   6.251   6.527 -2.8448 -0.0435  0.2061
   12SAPS   C23 1501   2.414   5.656   6.947 -0.2189 -0.0836  0.0051
   12SAPS   H3R 1502   2.337   5.735   6.940  0.1401  0.3055  0.4190
   12SAPS   H3S 1503   2.510   5.710   6.961 -1.1450  1.1884  1.5764
   12SAPS   C24 1504   2.405   5.576   7.084 -0.3341 -0.4729  0.1516
   12SAPS   H4R 1505   2.313   5.515   7.073  0.2799 -1.3095 -0.3371
   12SAPS   H4S 1506   2.391   5.662   7.154 -0.3116  0.8504 -1.4456
   12SAPS   C25 1507   2.507   5.481   7.119 -0.4527 -0.3146 -0.1252
   12SAPS   H5R 1508   2.555   5.413   7.046 -1.0821  0.2935 -1.1107
   12SAPS   C26 1509   2.563   5.479   7.240 -1.0280 -0.4558  0.1679
   12SAPS   H6R 1510   2.640   5.400   7.248 -1.5985 -1.2147 -1.5048
   12SAPS   C27 1511   2.536   5.566   7.360 -0.6128 -0.3366 -0.2006
   12SAPS   H7R 1512   2.493   5.666   7.339  1.6148  0.5021 -0.9151
   12SAPS   H7S 1513   2.631   5.600   7.405 -1.3317  1.1732  0.1926
   12SAPS   C28 1514   2.451   5.497   7.462  0.3742  0.1391 -0.3386
   12SAPS   H8R 1515   2.349   5.475   7.427  0.0127  0.5749  0.4353
   12SAPS   C29 1516   2.479   5.469   7.586  0.1311  0.1073 -0.3889
   12SAPS   H9R 1517   2.400   5.420   7.646 -0.6846  1.9224  0.0634
   12SAPS  C210 1518   2.614   5.498   7.653 -0.0382 -0.7186 -0.6013
   12SAPS  H10R 1519   2.612   5.596   7.705 -1.3837 -0.4273 -1.1907
   12SAPS  H10S 1520   2.691   5.514   7.574 -0.6679  2.2633 -0.6877
   12SAPS  C211 1521   2.660   5.377   7.732 -0.2013 -0.2627  0.1812
   12SAPS  H11R 1522   2.625   5.278   7.698 -0.8211  0.1125 -0.2869
   12SAPS  C212 1523   2.715   5.386   7.849  0.2965  0.6698  0.1111
   12SAPS  H12R 1524   2.761   5.295   7.890 -0.6209 -0.7913 -2.0636
   12SAPS  C213 1525   2.753   5.498   7.929  0.0954 -0.1359  0.0217
   12SAPS  H13R 1526   2.751   5.474   8.037 -1.2992 -0.4032 -0.0577
   12SAPS  H13S 1527   2.689   5.587   7.907  1.2014  0.6442 -0.0972
   12SAPS  C214 1528   2.885   5.556   7.867 -0.6120 -0.5990  0.1681
   12SAPS  H14R 1529   2.863   5.650   7.815  2.6030 -0.7091 -1.5490
   12SAPS  C215 1530   3.013   5.512   7.865  0.1767 -0.3618 -0.0162
   12SAPS  H15R 1531   3.079   5.573   7.801  1.1906 -1.5477 -0.1252
   12SAPS  C216 1532   3.059   5.383   7.929  0.4266  0.0101  0.4383
   12SAPS  H16R 1533   3.108   5.321   7.851  0.2653  2.0134 -1.2957
   12SAPS  H16S 1534   2.972   5.325   7.967 -1.4841  0.2608 -3.3535
   12SAPS  C217 1535   3.177   5.391   8.032 -0.1965  0.6272  0.5032
   12SAPS  H17R 1536   3.206   5.287   8.058  0.7549  0.2020 -2.0815
   12SAPS  H17S 1537   3.144   5.443   8.125 -1.8668 -0.8536  0.7479
   12SAPS  C218 1538   3.310   5.465   7.992  0.3879  0.3613 -1.1908
   12SAPS  H18R 1539   3.382   5.479   8.076 -0.2431 -0.6439 -0.4586
   12SAPS  H18S 1540   3.275   5.563   7.954 -0.5636  0.2293 -0.6853
   12SAPS  C219 1541   3.379   5.383   7.882 -0.1071 -0.3017 -0.8920
   12SAPS  H19R 1542   3.312   5.370   7.795 -1.1046 -0.3081 -0.1334
   12SAPS  H19S 1543   3.398   5.281   7.921  1.7664  0.9261  1.5571
   12SAPS  C220 1544   3.505   5.451   7.849 -0.8613  0.7458  0.3078
   12SAPS  H20R 1545   3.532   5.406   7.751 -0.3569 -1.1357  1.2972
   12SAPS  H20S 1546   3.595   5.443   7.914 -1.5143 -1.2963  0.9778
   12SAPS  H20T 1547   3.498   5.561   7.836  0.6238  0.7697 -0.3728
   12SAPS   C33 1548   2.404   6.227   6.708  0.4332 -0.4787 -0.5509
   12SAPS   H3X 1549   2.355   6.314   6.757 -1.6065 -1.5755 -0.6111
   12SAPS   H3Y 1550   2.493   6.266   6.654  0.2318 -0.4852 -0.8838
   12SAPS   C34 1551   2.447   6.131   6.823 -0.2577 -0.4067  0.6783
   12SAPS   H4X 1552   2.558   6.141   6.829 -0.3457  1.5020 -0.4061
   12SAPS   H4Y 1553   2.431   6.029   6.783  0.3799  0.0045 -0.6726
   12SAPS   C35 1554   2.393   6.157   6.959 -0.4346  0.3293 -0.1468
   12SAPS   H5X 1555   2.284   6.171   6.943 -0.6461 -2.3982 -1.3535
   12SAPS   H5Y 1556   2.429   6.250   7.009 -0.8017  0.2690  0.2348
   12SAPS   C36 1557   2.400   6.030   7.049 -0.1674 -1.3163 -0.0390
   12SAPS   H6X 1558   2.505   6.011   7.081  0.5296 -0.4765 -1.7914
   12SAPS   H6Y 1559   2.370   5.940   6.991 -1.8987  0.8714 -2.6356
   12SAPS   C37 1560   2.322   6.040   7.182 -0.5779  0.1030  0.3325
   12SAPS   H7X 1561   2.212   6.045   7.168 -0.5015  0.1907 -0.2336
   12SAPS   H7Y 1562   2.352   6.134   7.233  3.0430 -1.2554  0.8596
   12SAPS   C38 1563   2.349   5.923   7.275  0.7227 -0.1229  0.0131
   12SAPS   H8X 1564   2.455   5.891   7.271  1.1992  1.4081  0.4085
   12SAPS   H8Y 1565   2.279   5.841   7.245  0.0615  0.9656 -1.5333
   12SAPS   C39 1566   2.319   5.969   7.422 -0.5697 -0.0167  0.4391
   12SAPS   H9X 1567   2.216   6.012   7.425 -0.9137 -0.6608 -1.6354
   12SAPS   H9Y 1568   2.386   6.057   7.431 -1.7328  0.8071  1.4488
   12SAPS  C310 1569   2.357   5.859   7.530 -0.2848 -0.8763 -0.1955
   12SAPS  H10X 1570   2.465   5.834   7.522 -0.5178 -1.7034 -0.7909
   12SAPS  H10Y 1571   2.302   5.773   7.486 -1.0954 -0.3387 -0.2434
   12SAPS  C311 1572   2.310   5.902   7.666  0.4731 -0.5522 -0.4439
   12SAPS  H11X 1573   2.200   5.900   7.674  0.5367 -3.0371  0.1285
   12SAPS  H11Y 1574   2.339   6.007   7.688  1.0204 -1.1217  1.6184
   12SAPS  C312 1575   2.369   5.808   7.773  0.2654  0.6294 -0.4554
   12SAPS  H12X 1576   2.348   5.851   7.873 -0.7217  2.2729 -1.3300
   12SAPS  H12Y 1577   2.470   5.766   7.756 -1.7467 -4.5026 -0.5384
   12SAPS  C313 1578   2.291   5.669   7.784  0.5015  0.1119 -0.6983
   12SAPS  H13X 1579   2.304   5.624   7.682  0.1367 -2.5908  0.3949
   12SAPS  H13Y 1580   2.183   5.680   7.802  0.4972 -2.5737  1.1367
   12SAPS  C314 1581   2.343   5.561   7.875 -0.2549  0.0772 -0.1041
   12SAPS  H14X 1582   2.454   5.560   7.886 -0.1656  0.9009 -0.8797
   12SAPS  H14Y 1583   2.319   5.457   7.848  2.2669 -1.5380  3.3739
   12SAPS  C315 1584   2.294   5.573   8.021 -0.5177 -0.8878 -0.2771
   12SAPS  H15X 1585   2.190   5.614   8.026  0.5536  2.0895 -1.1302
   12SAPS  H15Y 1586   2.353   5.653   8.070  0.7567 -2.0003  0.0276
   12SAPS  C316 1587   2.300   5.439   8.089  0.3040  0.2300 -0.0707
   12SAPS  H16X 1588   2.389   5.380   8.057  1.2027  2.5115 -1.9350
   12SAPS  H16Y 1589   2.213   5.381   8.053 -0.7516  2.1938 -0.7462
   12SAPS  C317 1590   2.322   5.433   8.242 -0.1637  0.0914  0.3820
   12SAPS  H17X 1591   2.373   5.340   8.275 -1.9917  0.0302  3.1851
   12SAPS  H17Y 1592   2.221   5.435   8.287 -0.8316 -1.6756 -0.9905
   12SAPS  C318 1593   2.410   5.547   8.298  0.8936  0.0561 -0.9363
   12SAPS  H18X 1594   2.443   5.528   8.403 -1.6692 -0.1484 -0.1439
   12SAPS  H18Y 1595   2.372   5.651   8.299 -0.9623 -0.5725  2.4179
   12SAPS  H18Z 1596   2.507   5.545   8.244  1.4518 -1.2471  0.0866
   13SAPS     N 1597   2.969   2.192   6.043  0.3541  0.0813 -0.5374
   13SAPS   HN1 1598   2.909   2.121   5.997  1.6347 -1.0217 -0.5276
   13SAPS   HN2 1599   3.066   2.156   6.055  0.0234 -0.9882 -1.0490
   13SAPS   HN3 1600   2.928   2.207   6.138  1.8247 -1.0197  0.3066
   13SAPS   C12 1601   2.977   2.321   5.966  0.2317 -0.2236 -0.3666
   13SAPS  H12A 1602   3.069   2.327   5.910 -0.8229  1.3238 -1.9693
   13SAPS   C13 1603   2.865   2.331   5.855  0.1120  0.9612 -0.2514
   13SAPS  O13A 1604   2.776   2.243   5.869  0.1454  0.1996 -0.2573
   13SAPS  O13B 1605   2.833   2.440   5.805 -0.0995  0.5050 -0.4738
   13SAPS   C11 1606   2.978   2.445   6.062 -0.3067 -0.2950  0.8290
   13SAPS  H11A 1607   2.875   2.432   6.104 -0.0720 -3.2583  0.5694
   13SAPS  H11B 1608   2.985   2.540   6.004 -2.6320 -0.5911 -0.0178
   13SAPS     P 1609   3.224   2.490   6.131 -0.0815 -0.2149  0.0183
   13SAPS   O13 1610   3.339   2.425   6.197  0.3682 -0.5124  0.0140
   13SAPS   O14 1611   3.225   2.517   5.983  0.1139  0.0754 -0.0911
   13SAPS   O12 1612   3.087   2.427   6.164  0.1700 -0.5957 -0.1557
   13SAPS   O11 1613   3.213   2.636   6.192 -1.0028 -0.2807 -0.1631
   13SAPS    C1 1614   3.225   2.665   6.332 -0.0091  0.6377  0.0425
   13SAPS    HA 1615   3.321   2.622   6.367  0.7948  0.5716 -2.1672
   13SAPS    HB 1616   3.234   2.773   6.356  1.5196  0.7306 -0.8678
   13SAPS    C2 1617   3.104   2.617   6.422  0.2034 -0.6821  0.0890
   13SAPS    HS 1618   3.091   2.507   6.413  0.1154 -0.5514 -1.4809
   13SAPS   O21 1619   2.985   2.686   6.370  0.3357  0.0466  0.3527
   13SAPS   C21 1620   2.868   2.615   6.383 -0.3452 -0.2743 -0.6297
   13SAPS   O22 1621   2.866   2.507   6.439 -0.4202 -0.9816  0.6525
   13SAPS   C22 1622   2.748   2.688   6.323  0.0120 -0.3628  0.0455
   13SAPS   H2R 1623   2.775   2.796   6.330 -0.2070 -0.0130 -3.6215
   13SAPS   H2S 1624   2.748   2.663   6.215 -2.9922  0.5456 -0.2168
   13SAPS    C3 1625   3.129   2.663   6.569  0.1838 -0.3617  0.0074
   13SAPS    HX 1626   3.033   2.641   6.621 -0.2925  0.9177 -0.2994
   13SAPS    HY 1627   3.142   2.774   6.573 -1.3034 -0.1670 -0.2129
   13SAPS   O31 1628   3.245   2.592   6.613  0.1760 -0.4687 -0.1500
   13SAPS   C31 1629   3.361   2.657   6.615  0.6877  0.2243  0.4462
   13SAPS   O32 1630   3.381   2.768   6.574 -0.1636  0.3416  0.3375
   13SAPS   C32 1631   3.479   2.573   6.671  0.0898 -0.4320 -0.0718
   13SAPS   H2X 1632   3.568   2.604   6.613 -1.4680  0.6360 -1.9151
   13SAPS   H2Y 1633   3.460   2.465   6.651  3.3090 -0.8179 -1.2655
   13SAPS   C23 1634   2.616   2.671   6.389 -0.0366 -0.4187 -0.1739
   13SAPS   H3R 1635   2.596   2.562   6.399 -0.5339 -0.4895 -1.8641
   13SAPS   H3S 1636   2.539   2.699   6.314 -0.0862  1.3585  0.5249
   13SAPS   C24 1637   2.603   2.742   6.523  0.0070 -0.3589 -0.5306
   13SAPS   H4R 1638   2.676   2.688   6.587 -0.8002 -0.7590  0.0591
   13SAPS   H4S 1639   2.504   2.722   6.568 -1.6156  3.9449 -1.9213
   13SAPS   C25 1640   2.625   2.893   6.504 -0.2176 -0.0274 -0.1608
   13SAPS   H5R 1641   2.545   2.948   6.452  0.4715  0.4132 -0.7731
   13SAPS   C26 1642   2.726   2.973   6.546  0.0851 -0.4867  0.1705
   13SAPS   H6R 1643   2.726   3.082   6.529  2.2451 -0.2581  1.4195
   13SAPS   C27 1644   2.846   2.945   6.629  0.2791  0.0555 -1.1068
   13SAPS   H7R 1645   2.920   3.019   6.593  0.2441  1.1565  1.0239
   13SAPS   H7S 1646   2.887   2.845   6.603 -0.7611 -0.4146 -0.9669
   13SAPS   C28 1647   2.830   2.954   6.783  0.1247  0.2683  0.2641
   13SAPS   H8R 1648   2.725   2.944   6.814 -0.3387 -0.4277 -1.4545
   13SAPS   C29 1649   2.927   2.977   6.874  0.4674 -0.2483 -0.4402
   13SAPS   H9R 1650   2.899   2.980   6.981 -0.8837  1.0533 -0.8082
   13SAPS  C210 1651   3.078   2.997   6.861  0.1259  0.0497  0.6546
   13SAPS  H10R 1652   3.115   3.092   6.905  1.8332 -1.4933  2.6760
   13SAPS  H10S 1653   3.120   2.992   6.758 -1.6225  1.0163 -0.1156
   13SAPS  C211 1654   3.151   2.889   6.936  1.3188  0.1553  0.1259
   13SAPS  H11R 1655   3.142   2.790   6.887  2.3726  0.1870 -0.1411
   13SAPS  C212 1656   3.218   2.909   7.051 -0.2872 -0.1190 -0.6530
   13SAPS  H12R 1657   3.258   2.823   7.107  0.4303 -0.0256 -1.0185
   13SAPS  C213 1658   3.238   3.047   7.125  0.9892 -0.0688  0.5445
   13SAPS  H13R 1659   3.134   3.063   7.162  0.0558 -2.1984 -1.0519
   13SAPS  H13S 1660   3.277   3.117   7.049 -1.0443 -0.9044 -1.3433
   13SAPS  C214 1661   3.342   3.055   7.239  0.3047  0.0110  0.2233
   13SAPS  H14R 1662   3.447   3.059   7.204  0.6119 -1.1569  1.0148
   13SAPS  C215 1663   3.316   3.064   7.372  0.1857  0.6772  0.4554
   13SAPS  H15R 1664   3.403   3.075   7.438  0.6172 -0.4311  0.0816
   13SAPS  C216 1665   3.189   3.056   7.446 -0.5487 -0.4329  0.4491
   13SAPS  H16R 1666   3.100   3.019   7.390 -0.3088  2.2262 -1.8188
   13SAPS  H16S 1667   3.148   3.154   7.482 -2.1788 -1.5122  1.6094
   13SAPS  C217 1668   3.209   2.967   7.572  0.3463  0.3620  0.6627
   13SAPS  H17R 1669   3.254   2.869   7.547  0.8797  0.9170 -0.5731
   13SAPS  H17S 1670   3.109   2.938   7.613  0.7228 -0.8410  0.7439
   13SAPS  C218 1671   3.292   3.031   7.690 -0.0451  0.3347 -0.7874
   13SAPS  H18R 1672   3.242   3.130   7.698  0.5791  0.4183  2.5722
   13SAPS  H18S 1673   3.400   3.046   7.666  0.1722  0.5109  0.2823
   13SAPS  C219 1674   3.280   2.955   7.821 -0.8021  0.3756  0.1843
   13SAPS  H19R 1675   3.331   3.007   7.905 -2.1872  0.2106  1.1524
   13SAPS  H19S 1676   3.348   2.870   7.802 -1.8226  0.5056 -4.4882
   13SAPS  C220 1677   3.133   2.906   7.861 -0.6403 -0.0857 -0.0029
   13SAPS  H20R 1678   3.106   2.825   7.790 -1.1221 -0.4721  0.6125
   13SAPS  H20S 1679   3.065   2.991   7.839 -1.3466 -0.2813  1.3604
   13SAPS  H20T 1680   3.128   2.878   7.969 -1.0878 -0.7341 -0.1897
   13SAPS   C33 1681   3.497   2.595   6.827  0.2260  0.3853  0.0111
   13SAPS   H3X 1682   3.500   2.705   6.843  0.5464  0.0225  2.7288
   13SAPS   H3Y 1683   3.595   2.553   6.858  1.4423  3.3719  0.4287
   13SAPS   C34 1684   3.384   2.543   6.910  0.4152  0.9429 -0.2809
   13SAPS   H4X 1685   3.369   2.437   6.880  1.1021  0.8407 -0.2552
   13SAPS   H4Y 1686   3.294   2.591   6.866 -0.4798  0.7342  1.2621
   13SAPS   C35 1687   3.395   2.553   7.053 -0.2802 -0.4500  0.2817
   13SAPS   H5X 1688   3.415   2.658   7.083  1.0449 -0.7439  0.4821
   13SAPS   H5Y 1689   3.482   2.492   7.086 -0.7965 -1.2467  0.1804
   13SAPS   C36 1690   3.274   2.503   7.146 -0.5582 -0.2310 -0.5811
   13SAPS   H6X 1691   3.235   2.405   7.113 -1.5352  0.1502 -0.5860
   13SAPS   H6Y 1692   3.189   2.573   7.129 -0.2307  0.6957  1.4880
   13SAPS   C37 1693   3.320   2.514   7.287  0.0028  0.2620 -0.0133
   13SAPS   H7X 1694   3.365   2.612   7.314  3.2729 -0.8228 -1.2926
   13SAPS   H7Y 1695   3.397   2.437   7.310  0.1462  0.1783 -0.7813
   13SAPS   C38 1696   3.202   2.483   7.386  0.0465  0.7895 -0.1297
   13SAPS   H8X 1697   3.187   2.373   7.390 -0.3442  0.8707  0.8524
   13SAPS   H8Y 1698   3.106   2.529   7.352 -0.2321 -0.2998 -0.8473
   13SAPS   C39 1699   3.242   2.530   7.529  1.4069  0.0499 -0.0615
   13SAPS   H9X 1700   3.276   2.634   7.546  2.6184 -0.3855  0.2105
   13SAPS   H9Y 1701   3.335   2.470   7.543  0.9674 -0.2986  1.4982
   13SAPS  C310 1702   3.117   2.491   7.622  0.1843 -0.2816  0.6988
   13SAPS  H10X 1703   3.089   2.388   7.593 -0.7083  0.3844 -0.9086
   13SAPS  H10Y 1704   3.026   2.551   7.598 -0.5102 -1.9745 -1.0873
   13SAPS  C311 1705   3.151   2.496   7.768 -0.1194 -0.0561  0.1410
   13SAPS  H11X 1706   3.197   2.593   7.795 -0.5334  0.1811 -0.0001
   13SAPS  H11Y 1707   3.240   2.430   7.775 -0.8384 -1.0313  0.1785
   13SAPS  C312 1708   3.034   2.439   7.855 -0.5609  0.1389  0.2988
   13SAPS  H12X 1709   2.991   2.352   7.801 -2.4699  0.9146  0.5315
   13SAPS  H12Y 1710   2.956   2.516   7.874 -1.6331 -0.6978 -0.6303
   13SAPS  C313 1711   3.091   2.393   7.989  0.5130 -0.3731  0.2939
   13SAPS  H13X 1712   3.146   2.472   8.043  1.0157  0.2686 -1.1484
   13SAPS  H13Y 1713   3.160   2.306   7.984 -1.6668 -2.2561  1.6422
   13SAPS  C314 1714   2.984   2.341   8.093  0.4032 -0.5057  0.6678
   13SAPS  H14X 1715   2.947   2.244   8.052  3.9364 -1.5856 -0.1372
   13SAPS  H14Y 1716   2.901   2.414   8.105  2.0419  1.1110  2.6432
   13SAPS  C315 1717   3.048   2.310   8.232  0.1738 -0.2715 -0.4780
   13SAPS  H15X 1718   3.088   2.405   8.272  0.0407  0.4012 -1.9174
   13SAPS  H15Y 1719   3.135   2.243   8.215  0.1590 -1.3972  3.2905
   13SAPS  C316 1720   2.927   2.265   8.320  0.1619  0.1275 -0.3199
   13SAPS  H16X 1721   2.885   2.170   8.279 -0.1296  0.6159 -1.1540
   13SAPS  H16Y 1722   2.848   2.340   8.306 -0.7210 -0.4563  1.3794
   13SAPS  C317 1723   2.958   2.257   8.471  0.1513 -0.3026  0.2989
   13SAPS  H17X 1724   3.058   2.301   8.493 -0.2920  0.7746  0.2101
   13SAPS  H17Y 1725   2.953   2.150   8.500 -4.2387  0.5273  3.1042
   13SAPS  C318 1726   2.859   2.334   8.556  0.2854 -0.0686 -0.1859
   13SAPS  H18X 1727   2.770   2.272   8.580  1.1348 -1.3131 -0.2118
   13SAPS  H18Y 1728   2.840   2.428   8.501  0.7780 -0.1610 -0.5166
   13SAPS  H18Z 1729   2.905   2.367   8.652 -0.3360 -0.7867  0.3612
   14SAPS     N 1730   2.518   4.751   5.485  0.2652 -0.2595  0.6651
   14SAPS   HN1 1731   2.420   4.786   5.481  0.7742  1.0167 -1.1172
   14SAPS   HN2 1732   2.576   4.834   5.508 -2.1273  2.0957 -1.3873
   14SAPS   HN3 1733   2.530   4.725   5.385 -1.3141  3.0262 -0.4731
   14SAPS   C12 1734   2.524   4.628   5.580 -0.4901  0.7134  0.3211
   14SAPS  H12A 1735   2.431   4.578   5.561  0.8050 -0.8436 -2.2421
   14SAPS   C13 1736   2.624   4.513   5.543 -0.2021 -0.2631 -0.0137
   14SAPS  O13A 1737   2.697   4.530   5.435  0.1304  0.2514 -0.4605
   14SAPS  O13B 1738   2.644   4.415   5.622 -0.3370  0.7569  0.0291
   14SAPS   C11 1739   2.547   4.667   5.729  0.4691 -0.0361  0.0903
   14SAPS  H11A 1740   2.635   4.734   5.737  0.0342  0.5537 -0.0787
   14SAPS  H11B 1741   2.551   4.570   5.784  2.2582 -0.3178 -0.4930
   14SAPS     P 1742   2.303   4.689   5.850 -0.2012 -0.3087 -0.0052
   14SAPS   O13 1743   2.216   4.799   5.878 -0.4176 -0.3640  0.0923
   14SAPS   O14 1744   2.248   4.577   5.773 -0.1872  0.2229 -0.9167
   14SAPS   O12 1745   2.423   4.743   5.766 -0.0409  0.4574  0.0265
   14SAPS   O11 1746   2.376   4.644   5.988 -0.3423  0.9825  0.4514
   14SAPS    C1 1747   2.445   4.739   6.063 -0.0657  0.8025 -0.0506
   14SAPS    HA 1748   2.548   4.704   6.087 -0.4613 -0.5978 -0.3398
   14SAPS    HB 1749   2.461   4.830   6.002 -0.8011  0.4250 -0.8213
   14SAPS    C2 1750   2.362   4.762   6.184 -0.1458 -0.3711  0.1229
   14SAPS    HS 1751   2.263   4.805   6.158 -0.7230 -0.9019  1.4128
   14SAPS   O21 1752   2.428   4.839   6.288  1.0982 -0.5867 -0.1614
   14SAPS   C21 1753   2.425   4.964   6.272 -0.4823 -0.0054  0.2645
   14SAPS   O22 1754   2.373   5.028   6.176 -0.2448 -0.6574 -0.2887
   14SAPS   C22 1755   2.501   5.034   6.384 -1.2967  0.0247 -0.1947
   14SAPS   H2R 1756   2.469   4.994   6.482  0.5325  0.1368  0.4563
   14SAPS   H2S 1757   2.608   5.007   6.374 -1.7496 -1.3775 -1.6046
   14SAPS    C3 1758   2.315   4.628   6.246 -0.2625 -0.4513  0.2721
   14SAPS    HX 1759   2.398   4.555   6.234 -0.1586 -0.0048 -2.0572
   14SAPS    HY 1760   2.222   4.607   6.188  0.6497 -0.5863 -1.1724
   14SAPS   O31 1761   2.267   4.636   6.382 -0.2900  0.2812 -0.3683
   14SAPS   C31 1762   2.369   4.636   6.481 -0.2295 -0.2595 -0.0029
   14SAPS   O32 1763   2.487   4.620   6.468 -0.5290 -0.7950  0.0834
   14SAPS   C32 1764   2.297   4.643   6.618  0.6624  0.1951 -0.4438
   14SAPS   H2X 1765   2.243   4.546   6.624  1.8813 -0.6096 -2.1276
   14SAPS   H2Y 1766   2.221   4.720   6.595 -0.0243 -1.2259 -3.1461
   14SAPS   C23 1767   2.488   5.185   6.379 -0.6051  0.2233 -0.1018
   14SAPS   H3R 1768   2.384   5.210   6.348 -0.7018  0.2627  0.2519
   14SAPS   H3S 1769   2.554   5.228   6.300  2.3296  1.0946  2.6934
   14SAPS   C24 1770   2.525   5.259   6.513  0.0391  0.4794  0.1168
   14SAPS   H4R 1771   2.448   5.234   6.589 -0.3562 -1.7740 -0.9854
   14SAPS   H4S 1772   2.510   5.367   6.489 -0.3569  0.3531 -0.2058
   14SAPS   C25 1773   2.674   5.234   6.542  0.5203  0.0550 -0.2234
   14SAPS   H5R 1774   2.739   5.261   6.457  1.2052  0.5823  0.4587
   14SAPS   C26 1775   2.735   5.181   6.652  0.0772 -0.1322 -0.3121
   14SAPS   H6R 1776   2.845   5.175   6.647  0.3239  2.6221  0.7791
   14SAPS   C27 1777   2.658   5.124   6.770 -0.3420  0.2964 -0.6062
   14SAPS   H7R 1778   2.554   5.095   6.745  0.2338 -3.1339  0.7231
   14SAPS   H7S 1779   2.640   5.197   6.852 -1.7360 -0.4341 -0.2634
   14SAPS   C28 1780   2.730   5.006   6.827  0.1337  0.7066 -0.0902
   14SAPS   H8R 1781   2.732   4.922   6.755  0.0562  0.9433 -0.3717
   14SAPS   C29 1782   2.784   4.990   6.947  0.4912 -0.5041 -0.0792
   14SAPS   H9R 1783   2.818   4.886   6.964  1.0146 -0.2249  0.5936
   14SAPS  C210 1784   2.795   5.081   7.063 -0.9003  0.5775  0.3804
   14SAPS  H10R 1785   2.773   5.024   7.155 -2.1303  1.3018  0.5498
   14SAPS  H10S 1786   2.718   5.162   7.065 -0.2126  1.2814 -1.0542
   14SAPS  C211 1787   2.928   5.151   7.055  0.5749  0.0013  0.1366
   14SAPS  H11R 1788   2.952   5.185   6.953  1.0608 -0.2074  0.1805
   14SAPS  C212 1789   3.015   5.164   7.152 -0.0471  0.3009 -0.1726
   14SAPS  H12R 1790   3.112   5.214   7.136  0.1909 -0.2210 -0.3425
   14SAPS  C213 1791   2.995   5.116   7.295  0.6534  0.2688 -0.3379
   14SAPS  H13R 1792   3.079   5.145   7.361 -1.5477  0.0372  2.7122
   14SAPS  H13S 1793   3.001   5.005   7.286 -4.1399 -0.1917  0.8235
   14SAPS  C214 1794   2.874   5.142   7.384  0.5050  0.2411  0.1510
   14SAPS  H14R 1795   2.781   5.179   7.338  0.8339  0.9649  0.0614
   14SAPS  C215 1796   2.882   5.116   7.517  0.3865 -0.0968 -0.0462
   14SAPS  H15R 1797   2.806   5.157   7.585  2.0140  0.6506  1.3691
   14SAPS  C216 1798   3.007   5.064   7.587  0.6481 -0.3353 -0.1556
   14SAPS  H16R 1799   3.102   5.114   7.561  1.1079 -1.4494 -0.5974
   14SAPS  H16S 1800   3.023   4.958   7.561 -0.9450 -1.3124  2.6054
   14SAPS  C217 1801   2.971   5.071   7.739 -0.0815  0.4404 -0.4239
   14SAPS  H17R 1802   2.868   5.031   7.749 -0.0048  0.1989 -0.5935
   14SAPS  H17S 1803   2.965   5.177   7.772  1.7362  0.1360  0.9880
   14SAPS  C218 1804   3.070   4.995   7.829  0.3527 -0.4096  0.3172
   14SAPS  H18R 1805   3.172   5.032   7.811 -0.3517  1.3922 -0.0260
   14SAPS  H18S 1806   3.068   4.887   7.801  0.8446 -0.0876 -0.9570
   14SAPS  C219 1807   3.039   5.019   7.973  0.1501  0.0102 -0.1682
   14SAPS  H19R 1808   3.051   5.125   8.004  0.2317 -0.7992  2.7335
   14SAPS  H19S 1809   3.105   4.952   8.033  1.2780  0.8780 -0.4189
   14SAPS  C220 1810   2.888   4.980   8.016 -1.1204 -0.0957 -0.1867
   14SAPS  H20R 1811   2.876   4.989   8.126 -0.8334 -5.1221  0.3759
   14SAPS  H20S 1812   2.883   4.874   7.984  1.2449  0.0371 -1.1344
   14SAPS  H20T 1813   2.821   5.049   7.960  0.2947  1.8908  0.4671
   14SAPS   C33 1814   2.375   4.681   6.742 -0.2952 -0.4694 -0.1582
   14SAPS   H3X 1815   2.379   4.792   6.734  3.5055 -0.4884  0.4770
   14SAPS   H3Y 1816   2.480   4.649   6.722 -0.0918 -0.2468  0.5577
   14SAPS   C34 1817   2.308   4.638   6.870  0.5923 -0.7899 -0.1069
   14SAPS   H4X 1818   2.300   4.527   6.879  2.7893 -0.9937 -0.3683
   14SAPS   H4Y 1819   2.211   4.689   6.886  0.2706 -1.9927  1.9224
   14SAPS   C35 1820   2.410   4.659   6.995  0.4402  0.6735  0.1259
   14SAPS   H5X 1821   2.441   4.766   6.996  2.3208  0.1331 -0.0625
   14SAPS   H5Y 1822   2.503   4.600   6.984  0.6694  1.0158  0.2488
   14SAPS   C36 1823   2.345   4.634   7.133 -0.2007  0.3852  0.2892
   14SAPS   H6X 1824   2.257   4.702   7.131 -0.1432  0.4351 -1.3863
   14SAPS   H6Y 1825   2.417   4.652   7.215 -2.9025  0.2759  2.7606
   14SAPS   C37 1826   2.296   4.488   7.151  0.4705  0.4119 -0.2332
   14SAPS   H7X 1827   2.382   4.424   7.125  0.2739 -0.0378  0.2070
   14SAPS   H7Y 1828   2.215   4.462   7.080 -0.1619 -0.3542  0.7468
   14SAPS   C38 1829   2.259   4.438   7.286  0.9895 -0.4153 -0.7268
   14SAPS   H8X 1830   2.212   4.339   7.272 -1.4256  0.8328 -1.8342
   14SAPS   H8Y 1831   2.174   4.497   7.325  1.9107  2.0735 -2.3060
   14SAPS   C39 1832   2.364   4.453   7.400  0.1493  0.0520 -0.1333
   14SAPS   H9X 1833   2.374   4.557   7.439 -0.9217  0.1745 -0.1847
   14SAPS   H9Y 1834   2.466   4.428   7.365 -0.7260 -1.1957 -1.8093
   14SAPS  C310 1835   2.329   4.352   7.516  0.0861 -0.1563 -0.0958
   14SAPS  H10X 1836   2.222   4.326   7.504 -0.3566  1.3910  0.3944
   14SAPS  H10Y 1837   2.342   4.386   7.621 -0.8028 -1.8405  0.5791
   14SAPS  C311 1838   2.403   4.221   7.499 -0.0461  0.4926  0.2951
   14SAPS  H11X 1839   2.512   4.242   7.492 -0.1164  0.2143 -2.3196
   14SAPS  H11Y 1840   2.384   4.187   7.395  0.8537  1.1466 -0.0942
   14SAPS  C312 1841   2.368   4.114   7.605 -0.1892  0.3658  0.3416
   14SAPS  H12X 1842   2.406   4.015   7.575  1.3443  0.6836  1.2247
   14SAPS  H12Y 1843   2.257   4.117   7.594 -0.1929 -0.8768 -0.0066
   14SAPS  C313 1844   2.410   4.144   7.755  0.0511  0.1887 -0.1447
   14SAPS  H13X 1845   2.361   4.241   7.779 -2.2010 -1.2356  1.1271
   14SAPS  H13Y 1846   2.518   4.172   7.755 -0.3162  1.6839 -2.0987
   14SAPS  C314 1847   2.357   4.038   7.854  0.4743 -0.4273 -1.3866
   14SAPS  H14X 1848   2.393   3.939   7.818  2.5645 -0.0312 -0.4461
   14SAPS  H14Y 1849   2.248   4.060   7.849  0.6259  0.9931  1.0299
   14SAPS  C315 1850   2.388   4.038   8.003  0.5840  0.9402  0.3816
   14SAPS  H15X 1851   2.497   4.042   8.024  0.8574  1.9112 -1.1362
   14SAPS  H15Y 1852   2.333   3.946   8.033  1.5933 -0.0953 -0.8682
   14SAPS  C316 1853   2.306   4.148   8.070 -0.9719  0.1901 -0.2587
   14SAPS  H16X 1854   2.198   4.131   8.048 -1.2413  2.5671 -0.8971
   14SAPS  H16Y 1855   2.340   4.247   8.032 -1.8823  1.6512  2.5468
   14SAPS  C317 1856   2.317   4.130   8.223  0.0663 -0.2184 -0.3237
   14SAPS  H17X 1857   2.425   4.144   8.247  1.0660 -0.4555 -4.3018
   14SAPS  H17Y 1858   2.292   4.025   8.248 -0.7587  0.5339  2.1821
   14SAPS  C318 1859   2.217   4.217   8.304 -0.7481  0.1960  0.5951
   14SAPS  H18X 1860   2.203   4.174   8.405 -0.2792  0.7443  0.8970
   14SAPS  H18Y 1861   2.121   4.209   8.249 -1.2921  1.1519  1.3826
   14SAPS  H18Z 1862   2.242   4.325   8.314  0.0931  0.0611 -0.0135
   15SAPS     N 1863   3.318   4.255   5.725  0.4574 -0.4535 -0.5106
   15SAPS   HN1 1864   3.271   4.264   5.818  2.3995 -4.8989  1.0519
   15SAPS   HN2 1865   3.415   4.291   5.732  0.5159 -0.2392 -2.4096
   15SAPS   HN3 1866   3.267   4.318   5.660 -0.0999  2.3039  2.4625
   15SAPS   C12 1867   3.321   4.114   5.700 -0.0200  0.7553  0.7255
   15SAPS  H12A 1868   3.222   4.075   5.718 -0.8466  2.0953 -0.8312
   15SAPS   C13 1869   3.363   4.070   5.553  0.4551  0.5653 -0.1635
   15SAPS  O13A 1870   3.379   4.157   5.467 -0.3019 -0.5448 -0.6493
   15SAPS  O13B 1871   3.328   3.952   5.529 -0.1126  0.4209 -0.3085
   15SAPS   C11 1872   3.426   4.046   5.794  0.4875  0.6009  0.4338
   15SAPS  H11A 1873   3.530   4.083   5.783 -0.0464  2.2715  0.8411
   15SAPS  H11B 1874   3.438   3.939   5.768 -0.8750  0.7543 -0.8779
   15SAPS     P 1875   3.275   3.972   5.988 -0.1816 -0.1807  0.0106
   15SAPS   O13 1876   3.144   4.020   5.937 -0.8662 -0.0017  0.0619
   15SAPS   O14 1877   3.320   3.835   5.950 -0.0054 -0.4144 -0.5380
   15SAPS   O12 1878   3.388   4.062   5.930 -0.6467 -0.0029  0.2348
   15SAPS   O11 1879   3.280   3.988   6.147  0.2627 -0.2215 -0.0176
   15SAPS    C1 1880   3.290   4.122   6.198 -0.5352  0.2530  0.4240
   15SAPS    HA 1881   3.365   4.185   6.146 -1.8816  1.8840  0.4246
   15SAPS    HB 1882   3.194   4.178   6.185 -0.4310  0.3063 -0.1333
   15SAPS    C2 1883   3.314   4.124   6.357  0.8502 -0.0524  0.8090
   15SAPS    HS 1884   3.289   4.225   6.398 -0.8469  0.5033 -1.4544
   15SAPS   O21 1885   3.441   4.081   6.385  0.1156  0.5825  1.0112
   15SAPS   C21 1886   3.533   4.175   6.374 -0.1117  0.0940 -0.2299
   15SAPS   O22 1887   3.509   4.288   6.336  0.4987 -0.4464  0.6212
   15SAPS   C22 1888   3.666   4.120   6.436  0.8070 -0.1637  0.6363
   15SAPS   H2R 1889   3.631   4.075   6.531  1.1688 -1.3623  0.2090
   15SAPS   H2S 1890   3.701   4.038   6.370 -3.9134 -1.9553  0.1998
   15SAPS    C3 1891   3.209   4.027   6.424 -0.5233 -0.2256  0.3528
   15SAPS    HX 1892   3.235   3.928   6.381  0.4715 -0.3760  1.2844
   15SAPS    HY 1893   3.109   4.056   6.387 -0.6485 -0.2547  0.6649
   15SAPS   O31 1894   3.218   4.032   6.569 -0.2675 -0.1250  0.2361
   15SAPS   C31 1895   3.287   3.936   6.622  0.3122  0.1593  0.2566
   15SAPS   O32 1896   3.315   3.830   6.571  0.4522 -0.0145  0.1402
   15SAPS   C32 1897   3.335   3.965   6.764  1.0595  0.4363  0.2936
   15SAPS   H2X 1898   3.287   3.892   6.834  1.7629  0.7410  1.1053
   15SAPS   H2Y 1899   3.319   4.071   6.791 -2.2016  0.3401 -1.1008
   15SAPS   C23 1900   3.785   4.217   6.459 -0.5390  0.0671  0.1276
   15SAPS   H3R 1901   3.746   4.319   6.482 -1.1884  0.0752 -0.9472
   15SAPS   H3S 1902   3.817   4.237   6.354  2.0295 -0.4850  0.7939
   15SAPS   C24 1903   3.889   4.173   6.547 -0.1765  0.4756  0.4594
   15SAPS   H4R 1904   3.983   4.232   6.544 -0.9398  1.6809 -0.2710
   15SAPS   H4S 1905   3.921   4.068   6.529 -1.3600  0.4611 -1.6579
   15SAPS   C25 1906   3.830   4.184   6.691 -0.2158  1.1077  0.2756
   15SAPS   H5R 1907   3.723   4.159   6.699  0.4067 -1.7849  0.3478
   15SAPS   C26 1908   3.886   4.216   6.811 -0.1205 -0.8427 -0.0014
   15SAPS   H6R 1909   3.824   4.204   6.901  0.3584  3.1167  0.9679
   15SAPS   C27 1910   4.015   4.277   6.839  0.3294  0.8355 -0.1871
   15SAPS   H7R 1911   4.057   4.304   6.740  2.0705  3.2477  1.1305
   15SAPS   H7S 1912   4.083   4.210   6.895 -1.6726  0.4476  1.8395
   15SAPS   C28 1913   4.006   4.409   6.916  1.1113 -0.8669  0.7566
   15SAPS   H8R 1914   4.016   4.498   6.853 -2.3237 -1.0318 -0.1624
   15SAPS   C29 1915   3.989   4.418   7.046 -0.0543  0.1694  0.4386
   15SAPS   H9R 1916   3.994   4.521   7.084  0.0891  0.4716 -0.3968
   15SAPS  C210 1917   3.975   4.307   7.144  0.3487 -0.4819 -0.3037
   15SAPS  H10R 1918   4.049   4.314   7.227 -0.4127 -0.1747  0.3492
   15SAPS  H10S 1919   3.991   4.208   7.096 -0.3364 -1.1228  0.7604
   15SAPS  C211 1920   3.831   4.313   7.188  0.5742  0.2385  0.0747
   15SAPS  H11R 1921   3.761   4.320   7.104 -0.6195 -0.1718  1.0244
   15SAPS  C212 1922   3.786   4.308   7.315 -0.0334 -0.0362  0.2467
   15SAPS  H12R 1923   3.678   4.327   7.328  0.3358  0.4409  2.9817
   15SAPS  C213 1924   3.872   4.299   7.439 -0.0211  0.4806 -0.1911
   15SAPS  H13R 1925   3.837   4.360   7.524  0.7829 -3.1501  2.8863
   15SAPS  H13S 1926   3.977   4.323   7.409  0.3373 -4.2029 -3.3231
   15SAPS  C214 1927   3.869   4.148   7.473 -0.2482 -0.1023  0.9776
   15SAPS  H14R 1928   3.851   4.080   7.389  1.0102  0.6222  0.1005
   15SAPS  C215 1929   3.891   4.092   7.593  0.9903  0.0662  0.0005
   15SAPS  H15R 1930   3.874   3.984   7.603  1.9608 -0.2335 -1.4173
   15SAPS  C216 1931   3.917   4.174   7.722  0.1560  0.5690  0.0774
   15SAPS  H16R 1932   3.960   4.270   7.687 -1.1947  0.6963 -1.2851
   15SAPS  H16S 1933   3.994   4.110   7.770 -1.3493 -2.4618 -1.3446
   15SAPS  C217 1934   3.789   4.190   7.803  0.2615  0.1178  0.0302
   15SAPS  H17R 1935   3.744   4.090   7.820  2.2193 -0.8652 -0.3823
   15SAPS  H17S 1936   3.706   4.247   7.757 -0.0251 -1.2769 -1.2390
   15SAPS  C218 1937   3.815   4.250   7.943 -0.4708 -0.9672 -0.0259
   15SAPS  H18R 1938   3.856   4.352   7.932  2.5214 -1.8711  2.3318
   15SAPS  H18S 1939   3.903   4.193   7.980 -0.1573 -0.9337 -0.7091
   15SAPS  C219 1940   3.696   4.267   8.035  0.5150  0.3261  0.8686
   15SAPS  H19R 1941   3.659   4.163   8.049  1.6841 -0.3098 -0.6386
   15SAPS  H19S 1942   3.624   4.330   7.978  0.0895 -0.8403  0.0978
   15SAPS  C220 1943   3.731   4.326   8.175  0.0746 -0.0062 -0.7674
   15SAPS  H20R 1944   3.758   4.432   8.153  1.1578 -0.0038  0.5300
   15SAPS  H20S 1945   3.798   4.264   8.238 -2.0665 -2.4050 -0.7656
   15SAPS  H20T 1946   3.633   4.339   8.227  0.4243 -1.2349  0.2214
   15SAPS   C33 1947   3.486   3.947   6.783 -1.3537 -0.1384 -0.0318
   15SAPS   H3X 1948   3.529   4.040   6.740  1.5735 -1.6571 -0.4692
   15SAPS   H3Y 1949   3.525   3.860   6.727  0.2432  0.6279 -0.1262
   15SAPS   C34 1950   3.522   3.933   6.927 -1.0554  0.0046  0.3310
   15SAPS   H4X 1951   3.628   3.907   6.942 -0.7110  1.8473  1.2387
   15SAPS   H4Y 1952   3.453   3.861   6.976 -1.3372  0.4895  0.6592
   15SAPS   C35 1953   3.497   4.057   7.003  0.1128  0.3032  0.1579
   15SAPS   H5X 1954   3.392   4.091   6.994 -0.9602 -2.0866  2.8911
   15SAPS   H5Y 1955   3.568   4.133   6.963 -0.0027 -0.0410 -0.7095
   15SAPS   C36 1956   3.532   4.040   7.148 -0.0135 -0.0192 -0.0184
   15SAPS   H6X 1957   3.601   4.125   7.170 -2.0319  1.3927  0.9446
   15SAPS   H6Y 1958   3.587   3.946   7.172  0.2905  0.5545  1.5784
   15SAPS   C37 1959   3.419   4.052   7.247  0.5756 -0.2716 -0.2931
   15SAPS   H7X 1960   3.358   3.960   7.244 -1.2543  0.9379 -0.9356
   15SAPS   H7Y 1961   3.354   4.140   7.229 -0.5193 -1.3429 -1.7062
   15SAPS   C38 1962   3.469   4.073   7.394  0.8823  0.0526 -0.0453
   15SAPS   H8X 1963   3.551   4.147   7.403 -0.4832  1.4725  0.9298
   15SAPS   H8Y 1964   3.513   3.982   7.439 -0.7000 -0.2578  0.9130
   15SAPS   C39 1965   3.366   4.107   7.501  0.0328  0.2036  0.6238
   15SAPS   H9X 1966   3.275   4.051   7.471  0.3860 -0.2094  0.3243
   15SAPS   H9Y 1967   3.339   4.215   7.491 -3.4710 -0.4569  2.3627
   15SAPS  C310 1968   3.417   4.068   7.643 -0.6798 -0.3321 -0.5734
   15SAPS  H10X 1969   3.517   4.111   7.665  0.5595 -2.7555 -1.2428
   15SAPS  H10Y 1970   3.427   3.957   7.641  1.5706 -0.1264 -1.6848
   15SAPS  C311 1971   3.309   4.106   7.751  0.3947  0.4436 -0.3559
   15SAPS  H11X 1972   3.228   4.030   7.750  0.3513  0.4860 -0.1330
   15SAPS  H11Y 1973   3.250   4.197   7.729  1.5605  1.3528  0.2152
   15SAPS  C312 1974   3.374   4.114   7.891 -0.8574 -0.1443  0.4334
   15SAPS  H12X 1975   3.443   4.201   7.895 -0.4556 -0.5345  2.7098
   15SAPS  H12Y 1976   3.433   4.022   7.913 -0.9437 -0.5029 -0.7765
   15SAPS  C313 1977   3.278   4.147   8.008  0.0525  0.1323 -0.5778
   15SAPS  H13X 1978   3.195   4.074   8.006  1.1625 -1.2423  1.4766
   15SAPS  H13Y 1979   3.250   4.254   8.010  1.1909  0.5983 -4.8339
   15SAPS  C314 1980   3.350   4.115   8.145 -0.2012 -0.7180 -0.6117
   15SAPS  H14X 1981   3.432   4.188   8.165  0.4322 -1.8566  1.0286
   15SAPS  H14Y 1982   3.387   4.011   8.143  0.4897 -0.5272  1.3912
   15SAPS  C315 1983   3.248   4.142   8.262 -0.0392 -0.1234 -0.0482
   15SAPS  H15X 1984   3.169   4.067   8.238  1.0107 -1.4301  0.4684
   15SAPS  H15Y 1985   3.216   4.248   8.269  0.9968  0.1625  0.4572
   15SAPS  C316 1986   3.319   4.109   8.392 -0.0846  0.2121 -0.2913
   15SAPS  H16X 1987   3.370   4.012   8.375 -0.8568 -0.1124 -0.7905
   15SAPS  H16Y 1988   3.241   4.083   8.466 -0.2616 -1.4114 -1.0318
   15SAPS  C317 1989   3.407   4.216   8.446  0.4033 -0.1021  0.1331
   15SAPS  H17X 1990   3.351   4.310   8.465  2.3915  0.7327  2.1578
   15SAPS  H17Y 1991   3.492   4.243   8.380 -2.0079 -0.2188 -3.0896
   15SAPS  C318 1992   3.483   4.175   8.576 -0.3102 -0.1207  0.0739
   15SAPS  H18X 1993   3.407   4.144   8.651  0.0569  2.0589  1.3859
   15SAPS  H18Y 1994   3.535   4.261   8.624  1.2376  0.2174 -2.1203
   15SAPS  H18Z 1995   3.559   4.097   8.552 -0.3119  0.3834 -1.6950
   16SAPS     N 1996   5.776   6.632   6.401  0.6035 -0.4035  0.2456
   16SAPS   HN1 1997   5.694   6.570   6.413 -0.2915  0.9734  1.4184
   16SAPS   HN2 1998   5.755   6.724   6.446  3.9209  1.2753 -1.4239
   16SAPS   HN3 1999   5.789   6.646   6.299  1.5440  2.1668  0.6598
   16SAPS   C12 2000   5.908   6.574   6.445  0.1780 -0.1977  0.1744
   16SAPS  H12A 2001   5.914   6.472   6.412  2.5020  0.3917 -1.2749
   16SAPS   C13 2002   6.038   6.655   6.394 -0.2289 -0.1203 -0.3022
   16SAPS  O13A 2003   6.024   6.748   6.314 -0.7353 -0.1833  0.0178
   16SAPS  O13B 2004   6.149   6.622   6.445  0.4401 -0.1055  0.4050
   16SAPS   C11 2005   5.913   6.586   6.602 -0.7770 -0.3496 -0.1684
   16SAPS  H11A 2006   5.916   6.694   6.632 -1.0211 -0.1128 -0.9915
   16SAPS  H11B 2007   6.006   6.545   6.647 -0.0172  0.9967 -0.4480
   16SAPS     P 2008   5.783   6.379   6.703  0.5902 -0.0789 -0.0756
   16SAPS   O13 2009   5.826   6.308   6.586  0.3443  0.4110  1.0500
   16SAPS   O14 2010   5.858   6.364   6.830  0.3671  0.5633 -0.0311
   16SAPS   O12 2011   5.795   6.530   6.664  0.3373 -0.1521  0.1193
   16SAPS   O11 2012   5.628   6.359   6.719  0.2187  0.0485 -0.0080
   16SAPS    C1 2013   5.552   6.470   6.761 -0.3970 -0.5799 -0.3020
   16SAPS    HA 2014   5.612   6.535   6.829 -0.0853 -1.0323 -0.1413
   16SAPS    HB 2015   5.515   6.533   6.678  3.2948  2.4513  0.1808
   16SAPS    C2 2016   5.423   6.410   6.836 -0.2179  0.3838 -0.2309
   16SAPS    HS 2017   5.357   6.494   6.865 -1.3103 -0.8331  0.8120
   16SAPS   O21 2018   5.459   6.324   6.952 -0.7821 -0.6488  0.6000
   16SAPS   C21 2019   5.522   6.383   7.049 -0.7458 -0.2692 -0.0503
   16SAPS   O22 2020   5.559   6.501   7.056 -0.3302  0.0704  0.6664
   16SAPS   C22 2021   5.554   6.281   7.152 -0.0834 -0.6852 -0.5857
   16SAPS   H2R 2022   5.464   6.221   7.175 -2.1145  3.4223  2.9247
   16SAPS   H2S 2023   5.626   6.212   7.103  1.6124  0.1732  0.6274
   16SAPS    C3 2024   5.343   6.316   6.735  0.5757  0.2412 -0.0177
   16SAPS    HX 2025   5.419   6.243   6.701 -0.3307  0.1185 -1.8705
   16SAPS    HY 2026   5.320   6.382   6.648  0.2028 -0.0838 -0.1687
   16SAPS   O31 2027   5.223   6.248   6.789 -0.3514  0.2926 -0.4154
   16SAPS   C31 2028   5.121   6.336   6.807 -0.2708  0.2911  0.1993
   16SAPS   O32 2029   5.123   6.454   6.787 -0.4988  0.3342  0.4177
   16SAPS   C32 2030   5.011   6.256   6.873 -0.4625 -0.2975  0.2710
   16SAPS   H2X 2031   4.967   6.182   6.803  2.6848 -1.2741 -0.7552
   16SAPS   H2Y 2032   4.924   6.319   6.902 -1.3841 -1.7222  0.6911
   16SAPS   C23 2033   5.620   6.338   7.286  0.2942  0.0217 -0.0678
   16SAPS   H3R 2034   5.685   6.426   7.268  1.5543 -1.0324 -0.7581
   16SAPS   H3S 2035   5.688   6.253   7.308  1.7010  0.8212 -1.2070
   16SAPS   C24 2036   5.523   6.358   7.400 -0.3482  0.2290  0.3446
   16SAPS   H4R 2037   5.457   6.270   7.418  1.9962 -2.2761 -2.6364
   16SAPS   H4S 2038   5.464   6.449   7.378  0.1157  0.4174 -0.1269
   16SAPS   C25 2039   5.600   6.391   7.528 -0.1114  0.0357  0.2651
   16SAPS   H5R 2040   5.686   6.458   7.514 -0.7400  0.5192 -1.4675
   16SAPS   C26 2041   5.583   6.319   7.646  0.4067  0.1168 -0.5887
   16SAPS   H6R 2042   5.648   6.349   7.729 -1.7175  2.8953  0.1716
   16SAPS   C27 2043   5.492   6.205   7.675 -0.5644 -0.3960  0.4738
   16SAPS   H7R 2044   5.517   6.129   7.598  0.4905  0.0963  0.3194
   16SAPS   H7S 2045   5.387   6.232   7.647 -0.7830 -1.0245  0.6694
   16SAPS   C28 2046   5.487   6.137   7.803 -0.1280 -1.0214 -0.1946
   16SAPS   H8R 2047   5.491   6.028   7.804 -1.0389 -1.0834  2.4556
   16SAPS   C29 2048   5.477   6.189   7.922  0.6436 -0.1685  0.2202
   16SAPS   H9R 2049   5.502   6.123   8.006  0.7140 -1.5351 -0.8575
   16SAPS  C210 2050   5.467   6.332   7.963  0.2932 -0.8118 -0.7469
   16SAPS  H10R 2051   5.360   6.362   7.966  1.3626  3.2335 -0.3921
   16SAPS  H10S 2052   5.501   6.404   7.886 -0.2615  0.1116 -0.1424
   16SAPS  C211 2053   5.540   6.352   8.090  0.2738  0.3800 -0.3676
   16SAPS  H11R 2054   5.647   6.333   8.078 -0.1470 -1.0020 -2.1855
   16SAPS  C212 2055   5.486   6.383   8.214 -0.3140  0.4188  0.5720
   16SAPS  H12R 2056   5.550   6.384   8.303  2.0707  0.6148 -1.1025
   16SAPS  C213 2057   5.334   6.384   8.237 -0.5855 -0.8524  0.4957
   16SAPS  H13R 2058   5.288   6.286   8.216  1.5508 -2.0052  1.0119
   16SAPS  H13S 2059   5.295   6.460   8.167 -3.0651 -2.3052  0.2373
   16SAPS  C214 2060   5.287   6.430   8.378  0.9107  0.0266 -0.3921
   16SAPS  H14R 2061   5.256   6.346   8.441  0.0538  1.6327  1.3523
   16SAPS  C215 2062   5.287   6.550   8.430 -0.3139 -0.1529  0.3238
   16SAPS  H15R 2063   5.252   6.557   8.534 -3.6687  4.7658 -0.9422
   16SAPS  C216 2064   5.328   6.673   8.354 -0.1759  0.0213 -0.3135
   16SAPS  H16R 2065   5.247   6.748   8.340  0.2780  0.8838  1.4276
   16SAPS  H16S 2066   5.369   6.652   8.253  1.9868  1.3723  0.2335
   16SAPS  C217 2067   5.433   6.746   8.449 -0.4915 -0.3576 -0.3981
   16SAPS  H17R 2068   5.406   6.739   8.557 -1.1325  0.8009 -0.4827
   16SAPS  H17S 2069   5.446   6.852   8.420 -0.1129 -0.2346  0.2083
   16SAPS  C218 2070   5.570   6.673   8.452  0.8530 -0.2214 -0.4626
   16SAPS  H18R 2071   5.611   6.664   8.349  0.0387  0.3405 -0.8457
   16SAPS  H18S 2072   5.557   6.566   8.475 -0.5207  0.4014  1.8577
   16SAPS  C219 2073   5.674   6.737   8.537 -0.2351 -0.5568  0.9111
   16SAPS  H19R 2074   5.652   6.726   8.645 -2.7066  0.5282  0.5714
   16SAPS  H19S 2075   5.679   6.845   8.513  0.0221 -0.6608  0.4879
   16SAPS  C220 2076   5.814   6.678   8.510 -0.2403 -0.2788  0.0766
   16SAPS  H20R 2077   5.900   6.724   8.562 -0.8708 -0.0612  0.9379
   16SAPS  H20S 2078   5.837   6.675   8.402  1.6165  0.3654  0.4400
   16SAPS  H20T 2079   5.813   6.571   8.541  2.2257 -0.1982  0.5406
   16SAPS   C33 2080   5.044   6.189   7.007  0.0516 -0.7989  0.2565
   16SAPS   H3X 2081   5.112   6.105   6.981 -0.0858  0.0555 -3.0351
   16SAPS   H3Y 2082   4.951   6.152   7.055 -0.0133  0.2834  0.9764
   16SAPS   C34 2083   5.108   6.289   7.104 -0.2004  0.3580 -0.0891
   16SAPS   H4X 2084   5.023   6.353   7.136  0.9477  0.8951  1.9339
   16SAPS   H4Y 2085   5.186   6.345   7.048  1.5538 -0.1603  1.7926
   16SAPS   C35 2086   5.166   6.215   7.230 -0.3237 -1.2327  0.0018
   16SAPS   H5X 2087   5.212   6.297   7.289 -1.3780 -0.8433  0.2928
   16SAPS   H5Y 2088   5.246   6.148   7.193  0.1230  0.5362 -2.3100
   16SAPS   C36 2089   5.066   6.134   7.308 -0.2865 -0.5921 -0.7624
   16SAPS   H6X 2090   5.014   6.060   7.243  0.8932 -2.2429  0.1279
   16SAPS   H6Y 2091   4.982   6.203   7.334  0.0881 -0.2781 -0.3827
   16SAPS   C37 2092   5.123   6.072   7.439 -0.1919 -0.2889 -0.1803
   16SAPS   H7X 2093   5.041   6.084   7.514 -2.1932 -0.1213 -2.3522
   16SAPS   H7Y 2094   5.217   6.126   7.463 -1.1971  0.8868  1.2449
   16SAPS   C38 2095   5.172   5.926   7.436  0.2822  0.6001  0.6001
   16SAPS   H8X 2096   5.213   5.899   7.337  0.5116 -1.3496  1.2189
   16SAPS   H8Y 2097   5.081   5.862   7.436  0.3993  0.4270 -0.4348
   16SAPS   C39 2098   5.264   5.895   7.555  0.0805 -0.3024  0.0912
   16SAPS   H9X 2099   5.343   5.972   7.566 -1.0940  0.9150  0.1365
   16SAPS   H9Y 2100   5.320   5.801   7.534  0.2606 -0.2970  0.5459
   16SAPS  C310 2101   5.182   5.865   7.680 -0.1852  0.3480 -0.4934
   16SAPS  H10X 2102   5.101   5.793   7.655 -2.0544  2.4767 -0.6736
   16SAPS  H10Y 2103   5.144   5.964   7.712  0.4654  1.1325 -2.1273
   16SAPS  C311 2104   5.275   5.808   7.793  0.0199 -0.0444  0.2992
   16SAPS  H11X 2105   5.347   5.887   7.823  1.9474 -0.8940 -1.9204
   16SAPS  H11Y 2106   5.343   5.727   7.758  1.8776  1.9981 -0.9087
   16SAPS  C312 2107   5.196   5.768   7.915 -0.4710 -0.0294 -0.4188
   16SAPS  H12X 2108   5.139   5.683   7.873 -1.0101  1.7001 -3.3903
   16SAPS  H12Y 2109   5.135   5.856   7.946  1.5275  1.1122  0.3446
   16SAPS  C313 2110   5.284   5.742   8.033 -0.3851 -0.0241 -0.1587
   16SAPS  H13X 2111   5.353   5.661   8.002  0.6075  0.8417 -0.2394
   16SAPS  H13Y 2112   5.215   5.699   8.109  1.3610  1.2500  2.2136
   16SAPS  C314 2113   5.355   5.866   8.092  0.3492  0.0310  0.8537
   16SAPS  H14X 2114   5.280   5.945   8.113 -0.1122 -0.4070  0.8686
   16SAPS  H14Y 2115   5.419   5.910   8.013  1.7616 -3.2845  0.0342
   16SAPS  C315 2116   5.429   5.815   8.220 -0.1301 -0.6591 -0.4688
   16SAPS  H15X 2117   5.481   5.721   8.191 -0.2050 -0.7500 -0.3071
   16SAPS  H15Y 2118   5.348   5.790   8.293  1.1678  0.6792  1.4896
   16SAPS  C316 2119   5.529   5.920   8.274 -0.6019  0.3377  0.4362
   16SAPS  H16X 2120   5.598   5.955   8.195  0.1529 -0.4822  0.7329
   16SAPS  H16Y 2121   5.590   5.879   8.358 -1.2198 -1.1855  0.1367
   16SAPS  C317 2122   5.455   6.029   8.362 -0.6269 -0.1431  0.0432
   16SAPS  H17X 2123   5.385   5.971   8.425 -0.2483  0.9253  1.4894
   16SAPS  H17Y 2124   5.403   6.103   8.297 -2.2218  0.6077  2.1224
   16SAPS  C318 2125   5.554   6.107   8.453 -0.4989  0.0269  0.3512
   16SAPS  H18X 2126   5.606   6.034   8.519  0.3904  0.7765  0.4844
   16SAPS  H18Y 2127   5.507   6.178   8.524  1.9802  0.1939  1.9024
   16SAPS  H18Z 2128   5.627   6.154   8.384 -1.0986 -0.7166 -0.8082
   17SAPC     N 2129   1.874   2.287  10.235  0.2474  0.2102 -0.2785
   17SAPC   C12 2130   1.858   2.162  10.315 -0.3736  0.1886  0.4151
   17SAPC  H12A 2131   1.767   2.115  10.282 -0.0701 -0.3812  0.3750
   17SAPC  H12B 2132   1.833   2.173  10.419  0.0857 -2.8666  0.9070
   17SAPC   C13 2133   1.763   2.384  10.259 -0.5538  0.0551 -0.2434
   17SAPC  H13A 2134   1.763   2.430  10.357  1.7212 -0.7019  0.1452
   17SAPC  H13B 2135   1.767   2.469  10.192 -1.1002  1.1607  1.0986
   17SAPC  H13C 2136   1.669   2.334  10.244  0.3234 -1.6153 -0.2041
   17SAPC   C14 2137   2.004   2.357  10.274 -0.2991 -0.0116 -0.1628
   17SAPC  H14A 2138   2.006   2.380  10.380 -1.2843 -0.0153 -0.1335
   17SAPC  H14B 2139   2.085   2.291  10.250 -0.4252 -0.0786 -0.4026
   17SAPC  H14C 2140   2.016   2.446  10.213  1.6518 -0.4297 -0.4240
   17SAPC   C15 2141   1.874   2.257  10.091 -0.7480 -0.0754 -0.3995
   17SAPC  H15A 2142   1.868   2.352  10.039 -2.4558 -0.0016 -0.0825
   17SAPC  H15B 2143   1.959   2.192  10.075 -0.8424  0.5561 -3.8931
   17SAPC  H15C 2144   1.790   2.202  10.052 -0.5871 -1.6836  1.4569
   17SAPC   C11 2145   1.978   2.061  10.304  0.7541  0.6136 -0.4549
   17SAPC  H11A 2146   2.019   2.050  10.201 -0.8904  1.6393 -1.2522
   17SAPC  H11B 2147   1.930   1.969  10.344 -1.8608  0.5920 -3.4247
   17SAPC     P 2148   2.231   2.058  10.389  0.0499 -0.2484 -0.1800
   17SAPC   O13 2149   2.296   2.116  10.276  0.3677 -0.0158  0.3048
   17SAPC   O14 2150   2.301   2.079  10.521 -0.0302  0.3169  0.0076
   17SAPC   O12 2151   2.082   2.107  10.393 -0.6444  0.1372  0.5835
   17SAPC   O11 2152   2.229   1.905  10.380 -0.4306  0.8652 -0.3531
   17SAPC    C1 2153   2.353   1.833  10.353  0.1568 -0.2506  0.2798
   17SAPC    HA 2154   2.441   1.901  10.356  0.1973 -0.2730 -0.3305
   17SAPC    HB 2155   2.369   1.766  10.440  0.4760  0.3213  0.6631
   17SAPC    C2 2156   2.327   1.738  10.226  0.1171  0.3784  0.2324
   17SAPC    HS 2157   2.371   1.642  10.259 -1.9181 -0.1084  1.6270
   17SAPC   O21 2158   2.388   1.796  10.107  0.1526  0.3023  0.2381
   17SAPC   C21 2159   2.514   1.767  10.090  0.3239 -0.0055  0.1597
   17SAPC   O22 2160   2.581   1.712  10.173  0.0449 -0.2626 -0.7922
   17SAPC   C22 2161   2.555   1.822   9.950 -0.2511  0.0023 -1.2018
   17SAPC   H2R 2162   2.530   1.747   9.872  0.0329 -0.8770 -0.4458
   17SAPC   H2S 2163   2.497   1.913   9.924 -3.4295 -2.0988 -1.7325
   17SAPC    C3 2164   2.180   1.716  10.190 -0.0293 -0.0938  0.6685
   17SAPC    HX 2165   2.138   1.818  10.180 -0.7181 -0.5600 -1.3325
   17SAPC    HY 2166   2.118   1.666  10.268 -0.2587 -2.0458 -0.7339
   17SAPC   O31 2167   2.158   1.648  10.064  0.0676 -0.3818  0.3761
   17SAPC   C31 2168   2.161   1.519  10.064 -0.0060  0.0808 -0.4123
   17SAPC   O32 2169   2.183   1.449  10.163 -0.7692 -0.1228  0.3317
   17SAPC   C32 2170   2.092   1.471   9.936  0.2320 -0.2607 -0.4891
   17SAPC   H2X 2171   2.004   1.536   9.915 -1.1106 -3.0688 -3.8912
   17SAPC   H2Y 2172   2.044   1.373   9.954 -0.9019  0.2490 -0.7212
   17SAPC   C23 2173   2.702   1.871   9.952 -0.2670  0.1033 -0.6827
   17SAPC   H3R 2174   2.727   1.940  10.035  0.6762 -0.3652 -0.5687
   17SAPC   H3S 2175   2.717   1.919   9.853  1.2636  1.6026  0.2586
   17SAPC   C24 2176   2.798   1.749   9.959 -0.2373  0.1550  0.2783
   17SAPC   H4R 2177   2.775   1.697  10.055 -0.6434  0.5536  0.3961
   17SAPC   H4S 2178   2.903   1.782   9.972 -0.8293  1.6482  1.4370
   17SAPC   C25 2179   2.777   1.655   9.843 -0.2351  0.2071 -0.9921
   17SAPC   H5R 2180   2.701   1.576   9.854  0.3732 -0.4046 -1.1245
   17SAPC   C26 2181   2.848   1.655   9.730  0.5530  0.3968 -0.4123
   17SAPC   H6R 2182   2.828   1.575   9.657 -0.6081 -0.3949  0.7587
   17SAPC   C27 2183   2.945   1.764   9.695  0.3599  0.3897  0.1987
   17SAPC   H7R 2184   3.043   1.712   9.696 -0.1556 -0.6587  3.4430
   17SAPC   H7S 2185   2.953   1.851   9.764  4.8573  0.8743 -0.8029
   17SAPC   C28 2186   2.905   1.826   9.560  0.3154  0.0318  0.2282
   17SAPC   H8R 2187   2.845   1.917   9.570  2.6353  1.4217  1.9078
   17SAPC   C29 2188   2.945   1.786   9.440 -0.7924 -0.0724  0.3143
   17SAPC   H9R 2189   2.894   1.821   9.349 -0.5683 -1.5044 -0.3745
   17SAPC  C210 2190   3.038   1.667   9.411  0.4887  0.2189 -0.0240
   17SAPC  H10R 2191   2.986   1.570   9.422 -0.9003  1.1417  1.6101
   17SAPC  H10S 2192   3.115   1.660   9.490 -1.7069 -2.2870  1.9656
   17SAPC  C211 2193   3.104   1.682   9.269  0.3410  0.9860 -0.3924
   17SAPC  H11R 2194   3.033   1.721   9.195 -0.6577  2.4402  1.2829
   17SAPC  C212 2195   3.226   1.652   9.231 -1.0181 -0.4163  0.6338
   17SAPC  H12R 2196   3.255   1.660   9.125  0.3198  0.3893  1.0404
   17SAPC  C213 2197   3.338   1.592   9.321  0.0722  0.5527 -0.7676
   17SAPC  H13R 2198   3.387   1.524   9.249  2.2491  0.2138  0.9724
   17SAPC  H13S 2199   3.287   1.535   9.402 -1.4155  1.8563 -0.7559
   17SAPC  C214 2200   3.429   1.704   9.361  0.0333  0.0876  0.1618
   17SAPC  H14R 2201   3.474   1.766   9.283  0.0991 -1.5753 -1.1385
   17SAPC  C215 2202   3.479   1.725   9.487 -0.6427  0.2901  0.1319
   17SAPC  H15R 2203   3.535   1.818   9.505 -2.2622  1.3389 -0.1388
   17SAPC  C216 2204   3.460   1.638   9.604 -0.3586  0.0775  0.2747
   17SAPC  H16R 2205   3.557   1.610   9.650 -0.3198 -0.6798 -0.2674
   17SAPC  H16S 2206   3.391   1.551   9.595  1.2306 -1.3245  1.3258
   17SAPC  C217 2207   3.390   1.733   9.705  0.3887 -0.4639 -0.0133
   17SAPC  H17R 2208   3.295   1.769   9.659  0.4343  2.3228  1.9281
   17SAPC  H17S 2209   3.451   1.822   9.730 -3.8323  2.3516  0.8268
   17SAPC  C218 2210   3.346   1.668   9.843  0.3122 -0.0339 -0.1820
   17SAPC  H18R 2211   3.434   1.613   9.883  0.4394 -0.2337 -0.7335
   17SAPC  H18S 2212   3.266   1.592   9.836 -0.6111  0.8940  0.1032
   17SAPC  C219 2213   3.314   1.788   9.933  0.1182 -0.6304  0.2759
   17SAPC  H19R 2214   3.226   1.843   9.891  0.5589 -1.1058 -1.2760
   17SAPC  H19S 2215   3.400   1.858   9.939  0.5549 -1.2539  1.3313
   17SAPC  C220 2216   3.257   1.742  10.072 -0.1099  0.3298 -0.3521
   17SAPC  H20R 2217   3.157   1.695  10.058 -1.3195  2.5683  0.4420
   17SAPC  H20S 2218   3.253   1.822  10.149  0.3246 -0.8298  0.8974
   17SAPC  H20T 2219   3.319   1.660  10.115  1.3194  1.4453 -0.2378
   17SAPC   C33 2220   2.188   1.474   9.813  0.2028  0.2582  0.1137
   17SAPC   H3X 2221   2.142   1.416   9.730  0.7392 -1.3671  0.9283
   17SAPC   H3Y 2222   2.270   1.408   9.847  0.9888 -0.1888 -2.5467
   17SAPC   C34 2223   2.234   1.607   9.761 -0.4240 -0.2318  0.9146
   17SAPC   H4X 2224   2.282   1.655   9.850 -0.8696  1.1297  0.4410
   17SAPC   H4Y 2225   2.155   1.679   9.732 -0.2446 -0.5531 -0.3632
   17SAPC   C35 2226   2.331   1.587   9.645 -0.1946  0.2755  0.1498
   17SAPC   H5X 2227   2.275   1.529   9.568 -0.2175 -0.6210  0.8415
   17SAPC   H5Y 2228   2.424   1.530   9.667 -1.8127 -2.4710  0.1415
   17SAPC   C36 2229   2.379   1.713   9.580  0.2768  0.2615 -0.1478
   17SAPC   H6X 2230   2.462   1.765   9.632  0.5961  0.3238 -0.7072
   17SAPC   H6Y 2231   2.298   1.789   9.566  0.8857  1.1166  0.9351
   17SAPC   C37 2232   2.424   1.685   9.436 -0.6892 -0.3047  0.2768
   17SAPC   H7X 2233   2.440   1.776   9.375 -0.2514 -0.0412  0.7837
   17SAPC   H7Y 2234   2.337   1.635   9.388  1.6808 -3.9104 -0.4821
   17SAPC   C38 2235   2.554   1.599   9.433 -0.2350  0.0611 -0.1060
   17SAPC   H8X 2236   2.525   1.492   9.439 -1.1045  0.3520  1.1507
   17SAPC   H8Y 2237   2.621   1.623   9.518 -2.3890  2.4252  1.0087
   17SAPC   C39 2238   2.637   1.626   9.311  0.1564 -0.3462  0.1835
   17SAPC   H9X 2239   2.733   1.570   9.320 -0.0894 -1.1087 -1.6386
   17SAPC   H9Y 2240   2.657   1.734   9.294 -1.0239 -0.2518 -0.7093
   17SAPC  C310 2241   2.567   1.587   9.176  0.0297 -1.1163 -0.1420
   17SAPC  H10X 2242   2.462   1.623   9.185 -0.1159 -1.7108  0.5898
   17SAPC  H10Y 2243   2.570   1.476   9.172  2.9037 -1.0821  0.5366
   17SAPC  C311 2244   2.648   1.648   9.051  0.8278  0.1179 -0.2446
   17SAPC  H11X 2245   2.743   1.589   9.055  1.0105  0.3182 -1.3100
   17SAPC  H11Y 2246   2.666   1.756   9.066  1.9255 -0.1127  0.1455
   17SAPC  C312 2247   2.564   1.648   8.923  0.7325  0.3566 -0.2416
   17SAPC  H12X 2248   2.530   1.544   8.909  1.1533  0.5542 -3.1131
   17SAPC  H12Y 2249   2.636   1.662   8.840  0.0539 -2.7985 -1.4434
   17SAPC  C313 2250   2.446   1.755   8.912 -0.7404 -0.1976  0.2143
   17SAPC  H13X 2251   2.493   1.854   8.894  0.4831 -0.6589  0.8254
   17SAPC  H13Y 2252   2.391   1.755   9.008  1.8338 -1.8451  1.7627
   17SAPC  C314 2253   2.340   1.699   8.812 -0.6462  0.0206 -0.2640
   17SAPC  H14X 2254   2.279   1.627   8.871  1.7911 -0.8501  1.2667
   17SAPC  H14Y 2255   2.404   1.645   8.739 -0.4516  0.0549 -0.1201
   17SAPC  C315 2256   2.263   1.818   8.742  0.0297  0.0391  0.4123
   17SAPC  H15X 2257   2.205   1.786   8.653 -0.3271  2.6570 -0.3377
   17SAPC  H15Y 2258   2.332   1.884   8.685  2.1944 -2.5852 -0.0997
   17SAPC  C316 2259   2.169   1.890   8.839 -0.0718  0.1973  0.6287
   17SAPC  H16X 2260   2.226   1.938   8.922 -0.2586 -0.9510  1.4332
   17SAPC  H16Y 2261   2.108   1.809   8.884  1.9041 -2.8728 -1.9277
   17SAPC  C317 2262   2.079   1.991   8.771 -0.2446 -0.4621  0.4427
   17SAPC  H17X 2263   2.019   2.037   8.852  0.6398  0.4174  0.6017
   17SAPC  H17Y 2264   2.011   1.942   8.698 -0.7554  0.6246  0.1839
   17SAPC  C318 2265   2.160   2.106   8.696 -0.0907  0.0221  0.3310
   17SAPC  H18X 2266   2.094   2.190   8.665  1.3241  1.8070  2.0250
   17SAPC  H18Y 2267   2.226   2.150   8.774 -0.7774  0.6802  0.5383
   17SAPC  H18Z 2268   2.215   2.064   8.609 -0.9273 -0.6398  0.1211
   18SAPC     N 2269   2.680   2.134  10.493  0.2123  0.5743 -0.3097
   18SAPC   C12 2270   2.812   2.059  10.501 -0.5843 -0.0178 -0.1310
   18SAPC  H12A 2271   2.883   2.093  10.427  3.1080 -2.1539  2.2518
   18SAPC  H12B 2272   2.796   1.956  10.474  1.1990  0.5223 -3.5852
   18SAPC   C13 2273   2.694   2.282  10.521 -0.5159  0.1954  0.0752
   18SAPC  H13A 2274   2.601   2.338  10.525 -0.5959  0.1628 -1.2759
   18SAPC  H13B 2275   2.737   2.299  10.619 -0.3250  1.6498 -0.2437
   18SAPC  H13C 2276   2.758   2.330  10.449 -0.8197  0.0414 -0.2967
   18SAPC   C14 2277   2.622   2.094  10.364 -0.0775 -0.1558  0.3879
   18SAPC  H14A 2278   2.690   2.106  10.281  0.0083  0.4851  0.5482
   18SAPC  H14B 2279   2.580   1.995  10.368 -0.3695  0.0005  1.3478
   18SAPC  H14C 2280   2.539   2.162  10.351 -0.2888 -0.4294  0.3127
   18SAPC   C15 2281   2.579   2.068  10.578 -0.0427 -0.0465  0.3361
   18SAPC  H15A 2282   2.588   2.094  10.682 -1.3191 -3.4996  1.3924
   18SAPC  H15B 2283   2.482   2.104  10.546  0.6198  1.1259 -0.3623
   18SAPC  H15C 2284   2.584   1.960  10.568  0.1627  0.1328 -1.6530
   18SAPC   C11 2285   2.894   2.063  10.631 -0.1929  0.3793 -0.1904
   18SAPC  H11A 2286   2.962   1.975  10.634 -0.9589 -0.2130  0.1243
   18SAPC  H11B 2287   2.823   2.048  10.715 -1.5765  1.4324 -1.1569
   18SAPC     P 2288   3.092   2.230  10.578  0.1292 -0.1218 -0.0494
   18SAPC   O13 2289   3.055   2.360  10.516 -0.4989  0.1313  0.1748
   18SAPC   O14 2290   3.197   2.233  10.685  0.0638  0.4251  0.7722
   18SAPC   O12 2291   2.959   2.189  10.658  0.4019  0.9481 -0.0676
   18SAPC   O11 2292   3.124   2.108  10.480 -0.0057  0.6413  0.4482
   18SAPC    C1 2293   3.208   1.996  10.522  0.8435 -0.3943  0.8152
   18SAPC    HA 2294   3.198   1.968  10.629 -0.9876 -2.2979  0.1786
   18SAPC    HB 2295   3.177   1.911  10.457 -1.3106  1.5150 -0.7246
   18SAPC    C2 2296   3.354   2.026  10.494  0.1312 -0.9700 -0.0249
   18SAPC    HS 2297   3.378   2.117  10.554 -1.2298  0.9709 -2.3642
   18SAPC   O21 2298   3.370   2.049  10.352  0.0846  0.5472  0.2569
   18SAPC   C21 2299   3.359   2.170  10.306 -0.1626 -0.5897 -0.8055
   18SAPC   O22 2300   3.343   2.270  10.374 -0.2981  0.0049 -0.0221
   18SAPC   C22 2301   3.370   2.167  10.155 -0.6858  0.3953  0.0478
   18SAPC   H2R 2302   3.455   2.104  10.123 -0.5745  1.2786 -1.4156
   18SAPC   H2S 2303   3.269   2.129  10.126 -0.2721  0.6180 -1.6992
   18SAPC    C3 2304   3.450   1.910  10.540  0.2536  0.9725 -0.5812
   18SAPC    HX 2305   3.405   1.812  10.511  1.1958  0.2570  0.3512
   18SAPC    HY 2306   3.440   1.916  10.650 -0.1264 -0.1135 -0.5471
   18SAPC   O31 2307   3.581   1.919  10.486  0.1859  0.2910 -0.0612
   18SAPC   C31 2308   3.669   1.999  10.534  0.7494 -0.3004  0.0379
   18SAPC   O32 2309   3.655   2.069  10.636  0.0583 -0.2706  0.2004
   18SAPC   C32 2310   3.803   1.996  10.451 -0.5808  1.1870 -0.3546
   18SAPC   H2X 2311   3.862   1.908  10.483 -1.7355  0.3249 -0.5850
   18SAPC   H2Y 2312   3.857   2.071  10.513  2.0297 -0.2880 -0.7645
   18SAPC   C23 2313   3.405   2.302  10.086  0.6655  0.0229 -0.0676
   18SAPC   H3R 2314   3.470   2.368  10.147  0.8009 -2.4259  2.5657
   18SAPC   H3S 2315   3.309   2.356  10.069  0.1108 -0.6288  0.9097
   18SAPC   C24 2316   3.473   2.294   9.952 -0.8401 -0.1158 -0.7333
   18SAPC   H4R 2317   3.567   2.234   9.948 -1.0623 -0.3651 -2.7915
   18SAPC   H4S 2318   3.485   2.398   9.915  1.4285 -0.1527 -0.1943
   18SAPC   C25 2319   3.387   2.222   9.845  0.2224  0.3038  0.2533
   18SAPC   H5R 2320   3.303   2.163   9.885 -0.2820  1.1461  0.4619
   18SAPC   C26 2321   3.405   2.236   9.714 -0.6638  0.0994 -0.0030
   18SAPC   H6R 2322   3.352   2.166   9.647 -0.4511 -0.0191 -0.0501
   18SAPC   C27 2323   3.511   2.318   9.646  0.1064  0.0767 -0.0539
   18SAPC   H7R 2324   3.599   2.265   9.605 -0.6934  0.1760 -1.9403
   18SAPC   H7S 2325   3.549   2.396   9.715  0.1582  0.4870 -0.5435
   18SAPC   C28 2326   3.454   2.383   9.525  0.1017 -0.6778  0.2311
   18SAPC   H8R 2327   3.394   2.472   9.550  1.2683  0.4899 -1.0233
   18SAPC   C29 2328   3.457   2.346   9.398  0.0959  0.1948 -0.0997
   18SAPC   H9R 2329   3.396   2.409   9.332  0.5647  1.7477  0.9189
   18SAPC  C210 2330   3.519   2.215   9.354 -1.2001  0.3221 -0.0147
   18SAPC  H10R 2331   3.586   2.170   9.430 -0.2018 -1.0097 -1.6484
   18SAPC  H10S 2332   3.588   2.231   9.268  1.9164 -3.2960  1.6953
   18SAPC  C211 2333   3.429   2.099   9.332 -0.1026 -0.1018 -0.1017
   18SAPC  H11R 2334   3.400   2.042   9.421  3.5372 -2.5406 -0.3395
   18SAPC  C212 2335   3.372   2.085   9.208 -0.2751  0.4057  0.0315
   18SAPC  H12R 2336   3.288   2.015   9.209 -0.4851  0.6274  2.3512
   18SAPC  C213 2337   3.403   2.155   9.077  0.1336 -0.0133 -0.7007
   18SAPC  H13R 2338   3.509   2.188   9.075 -0.3069  1.4033 -2.1638
   18SAPC  H13S 2339   3.350   2.250   9.055  0.8640 -0.4125 -4.6211
   18SAPC  C214 2340   3.386   2.064   8.959 -0.3893  0.7487  0.5915
   18SAPC  H14R 2341   3.478   2.011   8.929  0.1036  2.5413 -1.1466
   18SAPC  C215 2342   3.272   2.058   8.877 -0.0388 -0.4406 -0.4509
   18SAPC  H15R 2343   3.263   1.982   8.798  0.0398 -1.7539  0.7782
   18SAPC  C216 2344   3.141   2.139   8.894 -0.0597 -0.7677  0.6484
   18SAPC  H16R 2345   3.167   2.239   8.854 -0.6349  0.0042  2.1725
   18SAPC  H16S 2346   3.096   2.139   8.995 -2.2952  0.6200 -0.3134
   18SAPC  C217 2347   3.036   2.066   8.803 -0.1164 -0.4243  0.0007
   18SAPC  H17R 2348   3.076   2.035   8.704  0.0907  0.2332 -0.1223
   18SAPC  H17S 2349   2.960   2.144   8.779  0.0789 -0.1103  0.3995
   18SAPC  C218 2350   2.964   1.942   8.864  0.1539 -0.1982  0.4362
   18SAPC  H18R 2351   2.885   1.987   8.928  1.4033 -0.2581  2.0539
   18SAPC  H18S 2352   3.044   1.910   8.933  0.1031  1.7330  1.4305
   18SAPC  C219 2353   2.905   1.837   8.777 -0.0514  0.8834 -0.0161
   18SAPC  H19R 2354   2.858   1.756   8.837  1.6125  0.2630  0.4894
   18SAPC  H19S 2355   2.988   1.791   8.719  1.4176  1.1840  1.7977
   18SAPC  C220 2356   2.805   1.893   8.677 -1.0596  0.1229  0.2865
   18SAPC  H20R 2357   2.851   1.962   8.604 -0.6390  0.7101  1.1009
   18SAPC  H20S 2358   2.723   1.956   8.719 -1.1142 -0.1097  0.5284
   18SAPC  H20T 2359   2.757   1.819   8.609 -0.7620  2.1779 -2.2242
   18SAPC   C33 2360   3.780   2.034  10.303  0.5674 -0.2711  0.0165
   18SAPC   H3X 2361   3.861   2.101  10.266  0.0066 -0.2512 -1.2179
   18SAPC   H3Y 2362   3.698   2.107  10.286  0.7178 -0.3834 -1.2468
   18SAPC   C34 2363   3.760   1.922  10.203  0.1219 -0.8574  0.1604
   18SAPC   H4X 2364   3.677   1.851  10.225 -1.1752  0.2841 -0.9799
   18SAPC   H4Y 2365   3.854   1.867  10.225 -0.7784 -2.7532 -0.5908
   18SAPC   C35 2366   3.756   1.976  10.054 -0.0511  0.6323  0.3616
   18SAPC   H5X 2367   3.848   2.038  10.053 -0.8614  1.8338 -0.1931
   18SAPC   H5Y 2368   3.666   2.039  10.037 -1.5066 -1.2184  1.0656
   18SAPC   C36 2369   3.760   1.859   9.953  0.5216 -0.2296  0.4597
   18SAPC   H6X 2370   3.668   1.798   9.965  0.3064 -0.2407 -1.0596
   18SAPC   H6Y 2371   3.831   1.779   9.980 -0.4810 -2.3113 -2.7125
   18SAPC   C37 2372   3.755   1.911   9.811 -0.7415 -0.6030  0.5790
   18SAPC   H7X 2373   3.669   1.981   9.802  1.4514  2.1162 -0.2822
   18SAPC   H7Y 2374   3.749   1.817   9.753  2.3877 -0.9848  0.7955
   18SAPC   C38 2375   3.883   1.979   9.762 -0.0953 -0.4743 -0.3532
   18SAPC   H8X 2376   3.971   1.923   9.799 -1.2015  0.4225  3.9338
   18SAPC   H8Y 2377   3.876   2.081   9.807 -2.3362 -1.9538  2.7954
   18SAPC   C39 2378   3.896   2.006   9.611 -0.0648 -0.2026 -0.2020
   18SAPC   H9X 2379   3.976   2.080   9.592  0.2877 -1.1596 -2.5129
   18SAPC   H9Y 2380   3.798   2.051   9.585 -1.0991 -1.6601  1.0783
   18SAPC  C310 2381   3.941   1.884   9.530  0.5284  0.2594 -0.5864
   18SAPC  H10X 2382   3.881   1.795   9.560  1.3165 -0.3808 -0.8956
   18SAPC  H10Y 2383   4.045   1.856   9.555  1.0467  2.5024 -0.1518
   18SAPC  C311 2384   3.923   1.908   9.374 -0.2190 -0.1055  0.0370
   18SAPC  H11X 2385   4.007   1.976   9.347  1.1018 -2.0545 -0.8523
   18SAPC  H11Y 2386   3.822   1.948   9.351 -0.3555 -0.5601 -0.1484
   18SAPC  C312 2387   3.961   1.785   9.291 -0.3378  0.4076  0.2558
   18SAPC  H12X 2388   3.865   1.729   9.300 -0.8535  1.7374  3.4681
   18SAPC  H12Y 2389   4.040   1.723   9.337  0.0998  2.0235  1.7168
   18SAPC  C313 2390   3.999   1.802   9.145  0.1318  0.0647 -0.0709
   18SAPC  H13X 2391   4.088   1.869   9.146  0.0693  0.2271 -2.7604
   18SAPC  H13Y 2392   3.917   1.856   9.093 -1.5751 -1.5127  0.8995
   18SAPC  C314 2393   4.027   1.664   9.081 -0.5719 -0.3580  0.1487
   18SAPC  H14X 2394   3.933   1.606   9.067  0.1836 -0.9062 -2.9160
   18SAPC  H14Y 2395   4.082   1.599   9.152  1.2771  1.2288  0.2073
   18SAPC  C315 2396   4.086   1.691   8.940 -0.6166  0.3608 -0.4731
   18SAPC  H15X 2397   4.122   1.593   8.902 -1.1430 -0.6698  1.6051
   18SAPC  H15Y 2398   4.170   1.760   8.963 -1.1696  0.8266  0.1856
   18SAPC  C316 2399   3.999   1.761   8.834 -0.1289 -0.0751  0.0790
   18SAPC  H16X 2400   4.043   1.742   8.734 -0.9046  0.9735 -0.4813
   18SAPC  H16Y 2401   3.987   1.867   8.865 -3.0542 -0.8847  1.9195
   18SAPC  C317 2402   3.861   1.700   8.821 -0.8117  0.3666  0.7218
   18SAPC  H17X 2403   3.806   1.679   8.915 -1.4258  2.3439  0.8281
   18SAPC  H17Y 2404   3.879   1.602   8.771  0.9322  0.9186  0.2588
   18SAPC  C318 2405   3.770   1.791   8.740  0.2974 -0.1414  0.8100
   18SAPC  H18X 2406   3.815   1.805   8.639 -2.7212  0.9089 -0.4499
   18SAPC  H18Y 2407   3.767   1.894   8.782 -0.5929 -0.7482  2.2442
   18SAPC  H18Z 2408   3.666   1.751   8.736 -0.4848  1.9487 -0.4554
   19SAPC     N 2409   2.789   2.933  10.514 -0.3542  0.0247 -0.6147
   19SAPC   C12 2410   2.748   2.793  10.465 -0.1883  0.4603  0.1679
   19SAPC  H12A 2411   2.831   2.725  10.481  1.3076  2.2305  0.0937
   19SAPC  H12B 2412   2.738   2.797  10.358 -1.9871 -1.4106  0.2309
   19SAPC   C13 2413   2.928   2.964  10.473 -0.6695 -0.1695  0.0730
   19SAPC  H13A 2414   2.945   2.961  10.366 -1.2175  1.5870 -0.0718
   19SAPC  H13B 2415   2.949   3.066  10.501 -1.6562  0.8762 -2.8085
   19SAPC  H13C 2416   2.999   2.894  10.515  1.4506  0.4200 -2.3878
   19SAPC   C14 2417   2.697   3.038  10.452 -0.5532  0.2046  0.1982
   19SAPC  H14A 2418   2.599   3.004  10.484  0.2274 -1.3280  1.0247
   19SAPC  H14B 2419   2.728   3.132  10.494 -1.1067 -0.0462  1.2015
   19SAPC  H14C 2420   2.696   3.050  10.345  1.2101 -1.5459 -0.0426
   19SAPC   C15 2421   2.769   2.935  10.660 -0.0147 -0.1975  0.5009
   19SAPC  H15A 2422   2.690   2.869  10.692 -1.0225  0.1111 -1.2714
   19SAPC  H15B 2423   2.860   2.914  10.715  0.1826 -3.1141 -0.8557
   19SAPC  H15C 2424   2.745   3.031  10.703  2.1181  1.5595 -2.0787
   19SAPC   C11 2425   2.618   2.732  10.518  0.4463 -0.1485 -0.5282
   19SAPC  H11A 2426   2.633   2.686  10.618  0.3365 -0.8268 -0.8189
   19SAPC  H11B 2427   2.601   2.637  10.463  1.9390 -1.3213  0.9901
   19SAPC     P 2428   2.409   2.828  10.399  0.6256 -0.1507  0.7994
   19SAPC   O13 2429   2.463   2.747  10.296  0.2158 -0.0102  0.8096
   19SAPC   O14 2430   2.267   2.804  10.433 -0.6316 -1.2235  0.3116
   19SAPC   O12 2431   2.506   2.821  10.520  0.2143  0.1466 -0.1986
   19SAPC   O11 2432   2.417   2.974  10.340 -0.1191 -0.0618 -0.5866
   19SAPC    C1 2433   2.294   3.052  10.338 -0.4876  1.1473  0.5045
   19SAPC    HA 2434   2.204   2.996  10.303  0.4849 -0.3761  0.3960
   19SAPC    HB 2435   2.279   3.089  10.441 -0.5708 -2.0139  1.6528
   19SAPC    C2 2436   2.325   3.178  10.245  0.4251 -0.0333  0.2696
   19SAPC    HS 2437   2.257   3.262  10.270 -0.3504  0.3848 -2.9572
   19SAPC   O21 2438   2.308   3.144  10.101  0.6787 -0.1378 -0.3881
   19SAPC   C21 2439   2.182   3.144  10.063 -0.4783 -0.5096 -0.3937
   19SAPC   O22 2440   2.088   3.176  10.127  1.0571  0.2425  0.4870
   19SAPC   C22 2441   2.178   3.082   9.924  0.4137 -0.5700  0.1320
   19SAPC   H2R 2442   2.279   3.066   9.879  0.9417  0.4211  0.9419
   19SAPC   H2S 2443   2.143   2.979   9.941  0.0177 -0.4236  0.1898
   19SAPC    C3 2444   2.470   3.230  10.264 -0.2521  0.2404  0.7558
   19SAPC    HX 2445   2.543   3.156  10.226 -0.7138  0.1664  0.0066
   19SAPC    HY 2446   2.491   3.224  10.373  1.4402 -1.7246  0.3622
   19SAPC   O31 2447   2.475   3.359  10.201  0.1457 -0.1781  0.4322
   19SAPC   C31 2448   2.569   3.437  10.252  0.0047  0.2926  0.2810
   19SAPC   O32 2449   2.648   3.411  10.343  0.5970 -0.1595  0.0804
   19SAPC   C32 2450   2.560   3.573  10.189 -0.6440 -0.5824  0.5507
   19SAPC   H2X 2451   2.620   3.644  10.249 -1.5134  1.2773 -0.7354
   19SAPC   H2Y 2452   2.452   3.599  10.187  0.0721  2.5380  0.0956
   19SAPC   C23 2453   2.083   3.158   9.839  0.0166 -0.4635  0.8359
   19SAPC   H3R 2454   1.981   3.159   9.884 -1.1459 -0.1665 -1.6854
   19SAPC   H3S 2455   2.063   3.106   9.743  0.3422  1.5507 -0.3515
   19SAPC   C24 2456   2.121   3.305   9.826 -0.3998 -1.2026 -0.2452
   19SAPC   H4R 2457   2.154   3.348   9.923  2.2517 -1.5983 -0.9297
   19SAPC   H4S 2458   2.030   3.365   9.804  1.1022  0.3099 -2.5503
   19SAPC   C25 2459   2.229   3.319   9.718  0.6897  0.5593 -0.3759
   19SAPC   H5R 2460   2.280   3.223   9.706  0.1217  0.2435 -0.2750
   19SAPC   C26 2461   2.255   3.421   9.635 -0.6998 -0.1094 -0.0524
   19SAPC   H6R 2462   2.334   3.405   9.560 -0.5258 -0.6992  0.2466
   19SAPC   C27 2463   2.180   3.545   9.641 -0.2010 -0.0948 -0.2120
   19SAPC   H7R 2464   2.253   3.629   9.633  0.0893 -0.3819 -0.5774
   19SAPC   H7S 2465   2.131   3.556   9.740 -0.0735 -1.4133  0.0070
   19SAPC   C28 2466   2.075   3.550   9.540 -0.4079 -0.4485  0.5050
   19SAPC   H8R 2467   1.977   3.516   9.576 -0.9336 -2.0751 -2.3302
   19SAPC   C29 2468   2.089   3.584   9.412 -0.1063 -0.1133 -0.1416
   19SAPC   H9R 2469   2.001   3.604   9.349  0.1091  2.8347  0.4020
   19SAPC  C210 2470   2.215   3.631   9.345 -0.8201 -0.2170 -0.0353
   19SAPC  H10R 2471   2.243   3.555   9.269  0.5164 -0.1746  0.4030
   19SAPC  H10S 2472   2.311   3.615   9.400 -1.0812  0.5099  0.6335
   19SAPC  C211 2473   2.207   3.773   9.282  0.1258  0.3778 -0.0856
   19SAPC  H11R 2474   2.226   3.842   9.365  0.3701  0.1625  0.0388
   19SAPC  C212 2475   2.183   3.817   9.156 -0.6346 -0.6404 -0.0107
   19SAPC  H12R 2476   2.164   3.921   9.126 -1.2081 -0.4251  1.0827
   19SAPC  C213 2477   2.161   3.722   9.038  0.4811 -0.5171 -0.8753
   19SAPC  H13R 2478   2.053   3.696   9.031  0.7306 -1.8527  0.1039
   19SAPC  H13S 2479   2.220   3.629   9.056 -0.1226 -1.2036 -2.3100
   19SAPC  C214 2480   2.210   3.759   8.900  0.4206  0.7517 -0.5908
   19SAPC  H14R 2481   2.254   3.860   8.898  2.9540 -0.3254 -0.5766
   19SAPC  C215 2482   2.206   3.686   8.784  0.4275 -0.0319 -0.4530
   19SAPC  H15R 2483   2.245   3.725   8.688  0.4370  1.8200  0.2849
   19SAPC  C216 2484   2.144   3.541   8.777  0.7223  0.5497  0.3129
   19SAPC  H16R 2485   2.107   3.507   8.876  1.3822 -2.3764 -0.3787
   19SAPC  H16S 2486   2.226   3.469   8.757 -1.4261 -2.0221  0.3070
   19SAPC  C217 2487   2.032   3.539   8.679 -0.3544 -0.3460  0.3019
   19SAPC  H17R 2488   1.962   3.625   8.688  0.2088  0.1685 -0.2725
   19SAPC  H17S 2489   1.966   3.451   8.697 -2.3277  0.4873 -2.4790
   19SAPC  C218 2490   2.079   3.544   8.530 -0.0533 -0.1455  0.4076
   19SAPC  H18R 2491   2.154   3.464   8.517  0.4612  0.3398  0.3423
   19SAPC  H18S 2492   2.123   3.643   8.507 -0.4881  0.4729  2.1124
   19SAPC  C219 2493   1.964   3.511   8.433  0.1648  0.6829  0.0225
   19SAPC  H19R 2494   2.008   3.533   8.333  1.9791  3.0871  1.2832
   19SAPC  H19S 2495   1.872   3.566   8.460 -0.6960 -0.7419  0.0223
   19SAPC  C220 2496   1.935   3.358   8.431 -0.5837 -0.2621 -0.2674
   19SAPC  H20R 2497   1.897   3.322   8.529  1.5852  0.2657  0.7886
   19SAPC  H20S 2498   2.028   3.303   8.407 -1.0133 -0.5509 -1.3266
   19SAPC  H20T 2499   1.854   3.333   8.358 -1.6552 -1.1656  1.2106
   19SAPC   C33 2500   2.617   3.578  10.045  0.3106  0.3328 -0.5723
   19SAPC   H3X 2501   2.727   3.561  10.046  0.3507  0.6123  0.8357
   19SAPC   H3Y 2502   2.604   3.682  10.007 -1.5206  0.6570  0.9106
   19SAPC   C34 2503   2.552   3.474   9.947  0.0589 -0.2014 -0.2354
   19SAPC   H4X 2504   2.441   3.479   9.948 -0.0743 -2.4078 -1.1953
   19SAPC   H4Y 2505   2.573   3.375   9.993 -1.0863 -0.8309 -1.0316
   19SAPC   C35 2506   2.605   3.477   9.803  0.0050  0.6452  0.2122
   19SAPC   H5X 2507   2.553   3.404   9.736  1.8110 -0.4142 -0.0754
   19SAPC   H5Y 2508   2.709   3.438   9.803 -0.3682 -0.5113 -2.4946
   19SAPC   C36 2509   2.589   3.611   9.738  0.1489 -0.6000 -0.2455
   19SAPC   H6X 2510   2.626   3.687   9.810  0.3734 -2.2116  1.4051
   19SAPC   H6Y 2511   2.480   3.623   9.722  0.3559  0.0062 -1.2140
   19SAPC   C37 2512   2.664   3.637   9.616  0.5515  0.3631  0.3129
   19SAPC   H7X 2513   2.770   3.644   9.650  0.0884  0.3843  1.7824
   19SAPC   H7Y 2514   2.645   3.743   9.590 -1.4602 -0.0302  0.1085
   19SAPC   C38 2515   2.635   3.541   9.506 -0.3264 -0.9642 -0.8529
   19SAPC   H8X 2516   2.525   3.527   9.513 -0.2819 -0.9394 -0.0476
   19SAPC   H8Y 2517   2.688   3.447   9.535  1.3864 -0.0088 -0.8512
   19SAPC   C39 2518   2.678   3.585   9.372  0.6651 -0.0856 -0.0712
   19SAPC   H9X 2519   2.788   3.600   9.360  0.6944  0.9259  1.3340
   19SAPC   H9Y 2520   2.626   3.683   9.361 -1.0158 -1.0787 -1.2301
   19SAPC  C310 2521   2.632   3.485   9.262 -0.8978 -0.6180  0.8720
   19SAPC  H10X 2522   2.527   3.455   9.280 -0.9618 -0.8581  0.0844
   19SAPC  H10Y 2523   2.696   3.395   9.278  0.8671  0.5591  0.5089
   19SAPC  C311 2524   2.657   3.532   9.116 -0.0288 -0.3302  0.2422
   19SAPC  H11X 2525   2.648   3.445   9.047 -0.2886  0.3496 -0.5791
   19SAPC  H11Y 2526   2.765   3.561   9.111  0.0916 -1.0033 -2.0393
   19SAPC  C312 2527   2.548   3.636   9.085 -0.2451  0.0356 -0.4404
   19SAPC  H12X 2528   2.550   3.708   9.170 -1.2577  0.4906 -0.7884
   19SAPC  H12Y 2529   2.445   3.592   9.089  0.2977 -1.0809  2.2225
   19SAPC  C313 2530   2.566   3.724   8.962 -0.0135  0.1080 -0.2735
   19SAPC  H13X 2531   2.663   3.779   8.958  0.5539 -0.9162 -0.9357
   19SAPC  H13Y 2532   2.482   3.795   8.947 -1.1992 -1.9817 -4.0130
   19SAPC  C314 2533   2.567   3.634   8.835 -0.4305 -0.1672  0.2034
   19SAPC  H14X 2534   2.473   3.576   8.846 -0.4809 -0.1488 -0.1288
   19SAPC  H14Y 2535   2.651   3.561   8.836  0.2885  0.5240 -3.6081
   19SAPC  C315 2536   2.558   3.701   8.705 -0.4396  0.0725  0.4526
   19SAPC  H15X 2537   2.658   3.744   8.683  1.4946 -3.9741  0.7675
   19SAPC  H15Y 2538   2.475   3.774   8.710  0.0076  0.7992 -1.9675
   19SAPC  C316 2539   2.536   3.617   8.580  0.5434  0.8914  0.5316
   19SAPC  H16X 2540   2.464   3.535   8.600 -0.3287  1.5838  0.2212
   19SAPC  H16Y 2541   2.628   3.568   8.541  0.4459 -0.1545  1.5658
   19SAPC  C317 2542   2.500   3.718   8.466  0.2153  0.1696  0.0812
   19SAPC  H17X 2543   2.583   3.790   8.451  1.7161 -1.5808 -0.1537
   19SAPC  H17Y 2544   2.420   3.786   8.504 -0.6990 -1.8279  1.8359
   19SAPC  C318 2545   2.455   3.646   8.340  0.4703  0.7700 -0.2100
   19SAPC  H18X 2546   2.358   3.597   8.365  2.4668 -2.6023  1.2391
   19SAPC  H18Y 2547   2.522   3.563   8.309  2.0388  1.8035  0.3383
   19SAPC  H18Z 2548   2.442   3.721   8.259  3.7249  1.3212 -0.2802
   20SAPC     N 2549   1.595   0.278  11.068 -0.3113  0.0044  0.4085
   20SAPC   C12 2550   1.637   0.305  10.920 -0.0960  0.3936 -0.0191
   20SAPC  H12A 2551   1.707   0.385  10.940  1.9183 -1.5012  0.7041
   20SAPC  H12B 2552   1.558   0.365  10.878 -1.3488 -1.8753 -0.9325
   20SAPC   C13 2553   1.716   0.223  11.145  0.0389  0.1960 -0.0918
   20SAPC  H13A 2554   1.696   0.203  11.250  1.0818  0.8061  0.2347
   20SAPC  H13B 2555   1.754   0.131  11.103  0.6869 -1.1930  3.2934
   20SAPC  H13C 2556   1.799   0.292  11.148 -1.1559  1.6105  3.1746
   20SAPC   C14 2557   1.535   0.394  11.137  0.3428 -0.9827 -0.0285
   20SAPC  H14A 2558   1.501   0.363  11.235  2.9838 -1.6080  0.7391
   20SAPC  H14B 2559   1.615   0.465  11.154  1.5707 -2.1957 -0.5612
   20SAPC  H14C 2560   1.449   0.431  11.084  0.9331 -0.9584 -0.9755
   20SAPC   C15 2561   1.494   0.166  11.068  0.9290  0.3797 -0.3462
   20SAPC  H15A 2562   1.404   0.192  11.014  2.4456  1.8413 -2.2512
   20SAPC  H15B 2563   1.529   0.071  11.029 -1.6648  0.1245 -2.1659
   20SAPC  H15C 2564   1.476   0.132  11.169  1.5367 -0.9361 -0.6686
   20SAPC   C11 2565   1.694   0.208  10.814 -0.4852 -0.3765 -0.5769
   20SAPC  H11A 2566   1.707   0.263  10.719  0.8243 -2.7294 -1.8029
   20SAPC  H11B 2567   1.627   0.121  10.794  1.0333 -1.6867 -0.1184
   20SAPC     P 2568   1.945   0.248  10.851  0.0832  0.2291  0.0408
   20SAPC   O13 2569   1.919   0.360  10.938 -0.3133 -0.0207 -0.1216
   20SAPC   O14 2570   2.066   0.165  10.866 -0.5037  0.0033 -0.4188
   20SAPC   O12 2571   1.826   0.157  10.858  0.7157 -0.0248 -0.2332
   20SAPC   O11 2572   1.940   0.286  10.702 -0.4552 -0.2100  0.5351
   20SAPC    C1 2573   1.958   0.204  10.590  0.2537  0.2171 -0.2785
   20SAPC    HA 2574   1.946   0.097  10.617 -0.3471 -0.0474 -1.5911
   20SAPC    HB 2575   1.880   0.229  10.516 -0.5753  0.5366  0.6896
   20SAPC    C2 2576   2.100   0.222  10.526 -0.2958  0.6692  0.3397
   20SAPC    HS 2577   2.170   0.220  10.613 -0.6385 -0.9242  0.5874
   20SAPC   O21 2578   2.102   0.345  10.455  0.4235 -0.2575  0.3551
   20SAPC   C21 2579   2.205   0.376  10.395 -0.7380 -0.3403 -0.0300
   20SAPC   O22 2580   2.315   0.330  10.412  0.1844  0.7092  0.4335
   20SAPC   C22 2581   2.170   0.482  10.284 -0.4905  0.4367 -0.2682
   20SAPC   H2R 2582   2.085   0.435  10.231  0.3939  0.4690 -1.7304
   20SAPC   H2S 2583   2.144   0.578  10.334  1.0856  1.1872 -0.8479
   20SAPC    C3 2584   2.136   0.109  10.437 -0.5322  0.2973 -0.2312
   20SAPC    HX 2585   2.121   0.020  10.502 -2.1979  0.2714 -0.6342
   20SAPC    HY 2586   2.243   0.115  10.409 -0.4572 -0.5182 -0.1245
   20SAPC   O31 2587   2.061   0.102  10.323 -0.2854  0.3990  0.9017
   20SAPC   C31 2588   2.011  -0.014  10.281  0.6043  0.8918  0.2047
   20SAPC   O32 2589   2.035  -0.125  10.326  0.3816  0.3877  0.2566
   20SAPC   C32 2590   1.916   0.000  10.158  1.3367 -0.0387 -0.4244
   20SAPC   H2X 2591   1.810  -0.002  10.191  0.4143 -0.9117 -3.3212
   20SAPC   H2Y 2592   1.908  -0.088  10.092 -1.4451 -0.2785  0.1813
   20SAPC   C23 2593   2.278   0.502  10.180 -0.1954 -0.5338  0.3854
   20SAPC   H3R 2594   2.371   0.526  10.236 -0.6212  0.3903  0.6970
   20SAPC   H3S 2595   2.253   0.584  10.110  0.0891 -0.8452 -0.0821
   20SAPC   C24 2596   2.302   0.384  10.089  0.1887  0.2148 -0.0173
   20SAPC   H4R 2597   2.305   0.294  10.155 -2.2775  1.0188  1.2685
   20SAPC   H4S 2598   2.402   0.387  10.042 -0.7652 -0.9555 -2.1998
   20SAPC   C25 2599   2.188   0.359   9.990  0.0670  0.3331 -0.2119
   20SAPC   H5R 2600   2.086   0.356  10.031  0.2272  1.5238  0.3182
   20SAPC   C26 2601   2.196   0.343   9.863  0.3338 -0.0150  0.6837
   20SAPC   H6R 2602   2.105   0.330   9.801  0.7351 -1.0634  0.3039
   20SAPC   C27 2603   2.330   0.351   9.787  0.3237 -0.0243 -0.5635
   20SAPC   H7R 2604   2.315   0.298   9.691 -2.4920  1.3141 -0.9062
   20SAPC   H7S 2605   2.397   0.278   9.837 -2.0770 -3.0661 -1.6481
   20SAPC   C28 2606   2.400   0.485   9.784  0.0894 -0.1202  0.0255
   20SAPC   H8R 2607   2.404   0.537   9.881 -0.9167  0.9934 -0.5130
   20SAPC   C29 2608   2.461   0.550   9.677  1.0075  0.0110  0.3093
   20SAPC   H9R 2609   2.480   0.657   9.696 -0.8898  0.5023 -0.4622
   20SAPC  C210 2610   2.453   0.501   9.538 -0.0126  0.1590  0.4957
   20SAPC  H10R 2611   2.485   0.394   9.540 -2.2727 -0.5507  1.3298
   20SAPC  H10S 2612   2.525   0.558   9.476  1.8158 -0.8479  1.6411
   20SAPC  C211 2613   2.313   0.505   9.474 -0.1920 -0.2365 -0.6176
   20SAPC  H11R 2614   2.238   0.535   9.548 -0.2317  0.0014 -0.7540
   20SAPC  C212 2615   2.281   0.480   9.345 -0.2034  0.8033 -0.5296
   20SAPC  H12R 2616   2.175   0.490   9.316 -0.0923 -0.4264 -1.3715
   20SAPC  C213 2617   2.387   0.458   9.239  0.9210 -0.2710 -0.2894
   20SAPC  H13R 2618   2.483   0.469   9.293  0.3793  1.4565  0.3579
   20SAPC  H13S 2619   2.377   0.541   9.165 -3.3471  0.9638  1.5044
   20SAPC  C214 2620   2.357   0.324   9.176  0.2470 -0.6255 -0.0989
   20SAPC  H14R 2621   2.376   0.235   9.238 -1.3322 -1.8052 -1.2672
   20SAPC  C215 2622   2.310   0.315   9.048 -0.6477 -0.0067  0.6569
   20SAPC  H15R 2623   2.287   0.216   9.007  0.4207 -0.2879  0.7331
   20SAPC  C216 2624   2.281   0.426   8.951  1.1592 -0.3356 -0.2966
   20SAPC  H16R 2625   2.298   0.400   8.844  0.0484 -3.3016  0.2041
   20SAPC  H16S 2626   2.347   0.514   8.964 -0.0757  0.5833 -0.1960
   20SAPC  C217 2627   2.136   0.474   8.970 -0.1182 -0.5574  0.1383
   20SAPC  H17R 2628   2.130   0.522   9.070  3.6088  1.4189 -0.5127
   20SAPC  H17S 2629   2.064   0.389   8.971  0.9427 -1.5193 -2.1409
   20SAPC  C218 2630   2.078   0.564   8.858 -0.0539  0.4862  0.3128
   20SAPC  H18R 2631   1.970   0.539   8.853 -0.4870  2.1029  1.1100
   20SAPC  H18S 2632   2.129   0.537   8.764  1.2190 -0.3184  1.2175
   20SAPC  C219 2633   2.089   0.716   8.878  0.1559  0.7617  0.0418
   20SAPC  H19R 2634   2.065   0.739   8.983 -0.0129  1.0621 -0.0622
   20SAPC  H19S 2635   2.008   0.759   8.816 -0.4316  0.1005  0.3406
   20SAPC  C220 2636   2.224   0.769   8.830 -0.7561 -0.4748 -0.4197
   20SAPC  H20R 2637   2.239   0.747   8.722 -3.0194  2.0797 -1.3160
   20SAPC  H20S 2638   2.311   0.726   8.885  0.9432  0.2821 -2.4318
   20SAPC  H20T 2639   2.212   0.880   8.836 -2.2321 -0.6240 -0.5579
   20SAPC   C33 2640   1.964   0.119  10.077 -0.1964  0.1427  0.0895
   20SAPC   H3X 2641   2.069   0.099  10.046 -0.1737  1.2854 -0.6323
   20SAPC   H3Y 2642   1.949   0.219  10.124  0.8447 -0.3887  1.5785
   20SAPC   C34 2643   1.886   0.140   9.949 -0.1253  0.4126  0.5336
   20SAPC   H4X 2644   1.894   0.248   9.922  1.8283  0.2777  0.5574
   20SAPC   H4Y 2645   1.779   0.119   9.971 -0.7263  1.5814 -1.1848
   20SAPC   C35 2646   1.935   0.051   9.837 -0.3268 -0.4511 -0.1422
   20SAPC   H5X 2647   1.887  -0.050   9.836 -0.2429 -0.4986  0.6492
   20SAPC   H5Y 2648   2.043   0.024   9.838 -0.0026  0.7540  3.8568
   20SAPC   C36 2649   1.917   0.115   9.695  0.4370  0.5006  0.3687
   20SAPC   H6X 2650   1.949   0.221   9.701  3.4199 -0.2987 -0.1883
   20SAPC   H6Y 2651   1.814   0.125   9.655  0.5976  2.3094  0.4048
   20SAPC   C37 2652   1.993   0.041   9.582  0.6845  0.1249 -0.3576
   20SAPC   H7X 2653   1.963  -0.066   9.585 -1.0252  0.6055  0.6495
   20SAPC   H7Y 2654   2.101   0.057   9.599  0.3213  4.0600 -1.4266
   20SAPC   C38 2655   1.969   0.106   9.447  0.0221 -0.2129 -1.0056
   20SAPC   H8X 2656   1.998   0.212   9.463 -2.4094  0.5156 -1.2562
   20SAPC   H8Y 2657   1.863   0.099   9.414 -0.6743  1.3506  0.8194
   20SAPC   C39 2658   2.048   0.038   9.340 -0.5312  0.5555  0.3176
   20SAPC   H9X 2659   2.028  -0.071   9.354  1.0696  0.4598  2.0165
   20SAPC   H9Y 2660   2.156   0.063   9.344 -0.8120  2.0657 -1.1887
   20SAPC  C310 2661   2.014   0.071   9.194  0.5126  0.5582 -0.1239
   20SAPC  H10X 2662   2.025   0.177   9.165  0.2397  0.5110 -0.4013
   20SAPC  H10Y 2663   1.907   0.052   9.171 -0.3165  2.4334  2.0111
   20SAPC  C311 2664   2.116  -0.013   9.102 -0.2085  0.9053 -0.6731
   20SAPC  H11X 2665   2.119  -0.120   9.130 -3.9339  1.0187  0.4903
   20SAPC  H11Y 2666   2.223   0.012   9.111  0.3747 -1.6954  0.0492
   20SAPC  C312 2667   2.081   0.004   8.951 -0.5718  0.0764  0.0995
   20SAPC  H12X 2668   2.116   0.107   8.927  0.4790 -0.1336  0.6979
   20SAPC  H12Y 2669   1.972  -0.014   8.940  0.2152 -3.6106 -2.6445
   20SAPC  C313 2670   2.155  -0.095   8.869  0.0602  0.6869  0.5270
   20SAPC  H13X 2671   2.097  -0.190   8.877  0.8258  0.1374 -0.2854
   20SAPC  H13Y 2672   2.251  -0.127   8.916  0.5075  1.0045 -0.1602
   20SAPC  C314 2673   2.158  -0.063   8.718 -0.6397 -0.1652 -0.3318
   20SAPC  H14X 2674   2.194   0.040   8.692 -1.6488  0.2108 -0.2599
   20SAPC  H14Y 2675   2.052  -0.059   8.686 -0.3404  1.0821 -1.2549
   20SAPC  C315 2676   2.213  -0.168   8.617  0.2516 -0.2152 -0.4406
   20SAPC  H15X 2677   2.315  -0.193   8.653  0.1240 -2.0335 -1.2797
   20SAPC  H15Y 2678   2.224  -0.132   8.513 -1.4498  0.8694 -0.2724
   20SAPC  C316 2679   2.124  -0.290   8.605  0.5790 -0.0318 -0.2850
   20SAPC  H16X 2680   2.022  -0.268   8.567  0.8901  0.8873 -0.6075
   20SAPC  H16Y 2681   2.105  -0.332   8.706 -1.3352  0.0319 -0.5868
   20SAPC  C317 2682   2.191  -0.411   8.534  0.3243  1.3168  0.1763
   20SAPC  H17X 2683   2.118  -0.491   8.560  2.6322 -1.2260 -0.9315
   20SAPC  H17Y 2684   2.289  -0.433   8.582  0.1191 -0.9245 -0.3758
   20SAPC  C318 2685   2.222  -0.405   8.383  0.5655 -0.5111 -0.3921
   20SAPC  H18X 2686   2.147  -0.342   8.331 -0.4871 -0.7552  0.8058
   20SAPC  H18Y 2687   2.214  -0.505   8.337  2.6369  0.3252 -2.7055
   20SAPC  H18Z 2688   2.326  -0.366   8.373 -0.2782  1.2668 -2.5976
   21SAPC     N 2689   2.943   6.763  10.735 -0.1575 -0.0191  0.1132
   21SAPC   C12 2690   2.873   6.717  10.860  0.1308  0.3506  0.6231
   21SAPC  H12A 2691   2.838   6.811  10.899  0.1429  0.3367  0.6682
   21SAPC  H12B 2692   2.933   6.666  10.933 -1.2167  0.9155  2.1470
   21SAPC   C13 2693   2.969   6.636  10.652  0.7424 -0.1055  0.2810
   21SAPC  H13A 2694   3.001   6.552  10.711  0.0751  0.0085  0.8046
   21SAPC  H13B 2695   2.873   6.607  10.611  0.7757 -1.3353  1.0630
   21SAPC  H13C 2696   3.029   6.639  10.562  0.1782  0.0993 -0.0856
   21SAPC   C14 2697   2.860   6.852  10.644  0.0368  0.3825 -0.8299
   21SAPC  H14A 2698   2.764   6.807  10.624  0.0567 -0.1006  0.1130
   21SAPC  H14B 2699   2.847   6.950  10.688  0.8030 -0.0698  0.4141
   21SAPC  H14C 2700   2.911   6.869  10.551  0.5280 -3.7638 -1.3993
   21SAPC   C15 2701   3.077   6.823  10.773  0.1050  0.6886 -0.1759
   21SAPC  H15A 2702   3.140   6.744  10.811  0.4278  1.4556  0.8875
   21SAPC  H15B 2703   3.118   6.874  10.687  2.4171  0.7715  0.9327
   21SAPC  H15C 2704   3.076   6.901  10.847  2.8682 -1.6977  2.4999
   21SAPC   C11 2705   2.742   6.639  10.835  0.3291 -0.4664  0.4205
   21SAPC  H11A 2706   2.694   6.691  10.749  2.2628  3.4294  1.5573
   21SAPC  H11B 2707   2.689   6.653  10.932  0.7040 -0.0346  0.5663
   21SAPC     P 2708   2.663   6.382  10.809 -0.4399  0.3473  0.0092
   21SAPC   O13 2709   2.736   6.254  10.805  0.7759 -0.0880 -0.2628
   21SAPC   O14 2710   2.566   6.394  10.921 -0.3179  0.8812 -0.1330
   21SAPC   O12 2711   2.773   6.504  10.814 -0.2717 -0.4878  0.1371
   21SAPC   O11 2712   2.586   6.389  10.671 -0.2446 -0.2509  0.8027
   21SAPC    C1 2713   2.444   6.376  10.654  0.3255 -0.0024  0.4501
   21SAPC    HA 2714   2.411   6.270  10.646 -0.3917  0.3920 -2.1596
   21SAPC    HB 2715   2.387   6.423  10.737 -0.9975 -0.2870 -0.2871
   21SAPC    C2 2716   2.393   6.439  10.525 -0.0198  0.2533  0.1710
   21SAPC    HS 2717   2.283   6.431  10.513 -0.0008 -0.4403  0.4340
   21SAPC   O21 2718   2.467   6.392  10.406 -0.0596 -0.0920 -0.4717
   21SAPC   C21 2719   2.439   6.269  10.363  0.2881 -0.2487  0.8530
   21SAPC   O22 2720   2.342   6.199  10.391 -1.1119 -0.8370 -0.4453
   21SAPC   C22 2721   2.567   6.231  10.289 -0.6026 -0.4392 -0.7233
   21SAPC   H2R 2722   2.560   6.278  10.189  2.1030 -0.5099 -0.9795
   21SAPC   H2S 2723   2.644   6.274  10.357 -1.7737 -0.0505  0.3841
   21SAPC    C3 2724   2.394   6.597  10.538 -0.1443  0.2215  0.4625
   21SAPC    HX 2725   2.502   6.611  10.561  0.5852 -2.8919 -0.8414
   21SAPC    HY 2726   2.327   6.620  10.623  0.8832  0.9313  1.0941
   21SAPC   O31 2727   2.357   6.671  10.417 -0.0511 -0.6414  0.2460
   21SAPC   C31 2728   2.452   6.694  10.319  0.4186 -0.3737 -0.3988
   21SAPC   O32 2729   2.568   6.662  10.320  0.0492 -0.1596  0.1273
   21SAPC   C32 2730   2.389   6.773  10.208 -0.0268 -0.4700  0.4232
   21SAPC   H2X 2731   2.426   6.875  10.231  2.2822 -1.0812 -0.5203
   21SAPC   H2Y 2732   2.278   6.767  10.217  0.0022 -3.0716 -0.4898
   21SAPC   C23 2733   2.571   6.082  10.258  0.4873 -0.3616  0.2379
   21SAPC   H3R 2734   2.499   6.061  10.176 -0.4414  0.2445  0.8992
   21SAPC   H3S 2735   2.535   6.030  10.350 -2.8109  3.2695  1.0954
   21SAPC   C24 2736   2.720   6.042  10.225  0.3534  0.1737 -0.0756
   21SAPC   H4R 2737   2.781   6.050  10.317 -0.3412 -1.9374  0.6020
   21SAPC   H4S 2738   2.759   6.112  10.148  0.3699 -0.5628 -0.7414
   21SAPC   C25 2739   2.723   5.895  10.185  0.3591  0.3559 -0.4996
   21SAPC   H5R 2740   2.741   5.822  10.266  0.1627  1.2708  0.3834
   21SAPC   C26 2741   2.696   5.852  10.061  0.3456 -0.8248  0.0214
   21SAPC   H6R 2742   2.694   5.743  10.047  1.1076 -0.6969 -1.1352
   21SAPC   C27 2743   2.650   5.937   9.944  0.1198  0.3424 -0.2976
   21SAPC   H7R 2744   2.650   6.045   9.969  1.3863  0.5620 -1.1998
   21SAPC   H7S 2745   2.542   5.913   9.935  0.7796 -2.7997 -0.5639
   21SAPC   C28 2746   2.735   5.922   9.827  0.5283 -0.3011  0.2935
   21SAPC   H8R 2747   2.838   5.896   9.855  0.6210 -0.2380  0.0134
   21SAPC   C29 2748   2.698   5.936   9.698  0.4400  0.0682  0.5663
   21SAPC   H9R 2749   2.778   5.923   9.624 -0.8262 -1.5063 -0.5654
   21SAPC  C210 2750   2.560   5.963   9.644  0.2482 -0.3009 -0.4351
   21SAPC  H10R 2751   2.564   6.062   9.593  2.8046  0.1358  0.5192
   21SAPC  H10S 2752   2.490   5.970   9.731  4.8835 -0.1603  3.4948
   21SAPC  C211 2753   2.518   5.854   9.556  0.2118  0.3060  0.7471
   21SAPC  H11R 2754   2.548   5.751   9.578  1.4079  0.9242  2.1034
   21SAPC  C212 2755   2.442   5.881   9.450 -0.0506  0.5300 -0.2046
   21SAPC  H12R 2756   2.435   5.793   9.384  1.9023  0.3978 -0.2939
   21SAPC  C213 2757   2.396   6.008   9.397 -0.3200 -0.2629 -0.0604
   21SAPC  H13R 2758   2.402   6.094   9.467  1.8987  1.4892 -2.3063
   21SAPC  H13S 2759   2.285   6.003   9.395 -0.4239  0.4606  2.3932
   21SAPC  C214 2760   2.445   6.063   9.268  0.4766 -0.2387  0.6111
   21SAPC  H14R 2761   2.486   6.165   9.280 -0.0390 -0.0925  1.1378
   21SAPC  C215 2762   2.432   6.014   9.147  0.0748  0.6627 -0.2520
   21SAPC  H15R 2763   2.478   6.066   9.062  1.1834  0.9100  0.4980
   21SAPC  C216 2764   2.371   5.883   9.102 -0.3641  0.3830  0.1836
   21SAPC  H16R 2765   2.329   5.817   9.180  0.5546  0.3063  0.6163
   21SAPC  H16S 2766   2.446   5.817   9.054  0.8708  0.0426  2.5499
   21SAPC  C217 2767   2.263   5.911   8.992  0.5275 -0.3995  0.3720
   21SAPC  H17R 2768   2.294   5.999   8.933  0.6640  1.2760  2.8833
   21SAPC  H17S 2769   2.164   5.931   9.039  0.4328 -1.2668  0.5554
   21SAPC  C218 2770   2.242   5.794   8.889  0.2563  0.3441 -0.1117
   21SAPC  H18R 2771   2.150   5.811   8.830 -0.1521 -2.2765 -0.2949
   21SAPC  H18S 2772   2.232   5.694   8.937 -4.6770  0.3893 -0.8204
   21SAPC  C219 2773   2.360   5.785   8.796  0.5240 -0.9082  0.7855
   21SAPC  H19R 2774   2.320   5.718   8.717 -0.2244  0.2168  0.1848
   21SAPC  H19S 2775   2.455   5.746   8.836  0.9920  0.9213  1.5053
   21SAPC  C220 2776   2.403   5.911   8.715 -0.3284  0.8039  0.0822
   21SAPC  H20R 2777   2.467   5.879   8.630  0.4831 -1.8903  1.6197
   21SAPC  H20S 2778   2.460   5.975   8.785 -1.1429  0.1759  1.3522
   21SAPC  H20T 2779   2.316   5.968   8.679 -0.7843 -1.1145 -1.9745
   21SAPC   C33 2780   2.428   6.709  10.076  0.2800  0.5195  0.7138
   21SAPC   H3X 2781   2.415   6.599  10.080 -1.9461  0.7428  0.2428
   21SAPC   H3Y 2782   2.528   6.737  10.038 -0.4230  1.3164 -0.5801
   21SAPC   C34 2783   2.336   6.757   9.963 -0.4869 -0.5541  0.1110
   21SAPC   H4X 2784   2.339   6.867   9.950  0.8082 -0.3988  1.5499
   21SAPC   H4Y 2785   2.235   6.714   9.978 -0.5422 -0.1808  0.8293
   21SAPC   C35 2786   2.383   6.689   9.832 -0.0281  0.3451  0.5850
   21SAPC   H5X 2787   2.320   6.737   9.754  0.1101 -2.0759 -1.0603
   21SAPC   H5Y 2788   2.373   6.579   9.836  1.1538  0.3136  3.8465
   21SAPC   C36 2789   2.528   6.735   9.784  0.5825  0.5338 -0.5164
   21SAPC   H6X 2790   2.601   6.675   9.842 -0.1957 -0.7291 -0.8278
   21SAPC   H6Y 2791   2.535   6.842   9.815  0.7265  0.4049 -0.1072
   21SAPC   C37 2792   2.548   6.723   9.633 -0.7381 -0.5046  0.4026
   21SAPC   H7X 2793   2.525   6.622   9.594 -1.7054  0.0291 -0.4442
   21SAPC   H7Y 2794   2.653   6.751   9.614  0.1638 -1.5652  3.5095
   21SAPC   C38 2795   2.460   6.820   9.558  0.7245  0.4833 -0.7780
   21SAPC   H8X 2796   2.450   6.923   9.599 -2.0778 -0.9341  2.3801
   21SAPC   H8Y 2797   2.361   6.771   9.547  0.3140  1.4459 -1.4226
   21SAPC   C39 2798   2.508   6.844   9.416  0.6014  0.0640 -0.2404
   21SAPC   H9X 2799   2.618   6.854   9.416  0.6805 -0.6992 -1.0747
   21SAPC   H9Y 2800   2.461   6.941   9.391  0.9123  0.9441  2.4693
   21SAPC  C310 2801   2.481   6.724   9.315  0.9326  0.0129  0.3091
   21SAPC  H10X 2802   2.372   6.718   9.293  1.4360  1.0609 -2.8631
   21SAPC  H10Y 2803   2.512   6.635   9.374  0.4153 -0.7594 -0.5700
   21SAPC  C311 2804   2.552   6.748   9.179 -0.3862  0.1285 -0.3776
   21SAPC  H11X 2805   2.661   6.763   9.194 -0.1424 -1.8534 -0.0751
   21SAPC  H11Y 2806   2.520   6.848   9.142 -2.8302 -0.5296 -0.1394
   21SAPC  C312 2807   2.525   6.644   9.078  0.3602 -0.0581  0.6978
   21SAPC  H12X 2808   2.420   6.640   9.042  0.6618 -1.3937 -0.0534
   21SAPC  H12Y 2809   2.544   6.549   9.133  2.7653 -0.2949 -0.4639
   21SAPC  C313 2810   2.617   6.654   8.954  0.1645  0.4175 -0.0982
   21SAPC  H13X 2811   2.604   6.571   8.882  2.2785 -1.0895  1.2160
   21SAPC  H13Y 2812   2.726   6.641   8.971  0.0691 -0.8890 -0.4025
   21SAPC  C314 2813   2.585   6.783   8.882 -0.2765  0.3761 -0.1562
   21SAPC  H14X 2814   2.619   6.874   8.936 -1.1513  0.9813 -0.6029
   21SAPC  H14Y 2815   2.476   6.807   8.888 -0.4563  0.3511 -2.7544
   21SAPC  C315 2816   2.631   6.778   8.734 -0.5111  0.3404 -0.6209
   21SAPC  H15X 2817   2.575   6.860   8.685 -0.8886  0.1869 -0.4415
   21SAPC  H15Y 2818   2.595   6.682   8.692  1.5250  0.7955 -3.5322
   21SAPC  C316 2819   2.778   6.801   8.710  0.3570 -0.4676 -0.3759
   21SAPC  H16X 2820   2.834   6.726   8.770  1.4736 -0.1366 -0.9861
   21SAPC  H16Y 2821   2.810   6.901   8.745 -0.8324 -0.3795  0.4891
   21SAPC  C317 2822   2.821   6.789   8.563 -0.2761 -0.3957  0.2338
   21SAPC  H17X 2823   2.774   6.863   8.494 -3.3232 -0.6820  1.9318
   21SAPC  H17Y 2824   2.806   6.685   8.526  2.5922 -0.6104 -0.5142
   21SAPC  C318 2825   2.980   6.799   8.549  0.0267  0.2336 -0.3141
   21SAPC  H18X 2826   3.019   6.895   8.588  0.8605 -0.5783  0.8696
   21SAPC  H18Y 2827   3.014   6.772   8.446 -0.8767 -2.0731 -0.0445
   21SAPC  H18Z 2828   3.016   6.721   8.618 -2.7220  0.5994  1.6191
   22SAPC     N 2829   1.363   3.911  10.764 -0.6600  0.3904  0.2809
   22SAPC   C12 2830   1.370   3.774  10.701 -0.2548 -0.9480  0.1232
   22SAPC  H12A 2831   1.355   3.782  10.595 -1.7590 -1.8548  0.2541
   22SAPC  H12B 2832   1.284   3.714  10.726 -1.0250 -0.1151 -0.5055
   22SAPC   C13 2833   1.363   3.910  10.915  0.4457  0.4152 -0.2547
   22SAPC  H13A 2834   1.347   4.009  10.955 -3.2936 -0.2326  0.0169
   22SAPC  H13B 2835   1.286   3.843  10.951  1.0707  0.0623  0.4307
   22SAPC  H13C 2836   1.463   3.891  10.953 -0.3958  0.6486  2.1649
   22SAPC   C14 2837   1.488   3.982  10.715 -0.2594  0.1991 -0.1620
   22SAPC  H14A 2838   1.481   4.001  10.609 -0.8416  0.8116 -0.0194
   22SAPC  H14B 2839   1.496   4.072  10.775  0.1842  0.0694 -0.0273
   22SAPC  H14C 2840   1.567   3.916  10.749 -0.2184  1.0496  1.4764
   22SAPC   C15 2841   1.240   3.987  10.718 -0.0295 -0.2833 -0.6589
   22SAPC  H15A 2842   1.253   4.080  10.772  0.7914 -2.0186  2.2165
   22SAPC  H15B 2843   1.235   4.017  10.614 -0.8750  2.4234  0.1127
   22SAPC  H15C 2844   1.158   3.941  10.770 -1.2885  1.2009 -1.2950
   22SAPC   C11 2845   1.489   3.675  10.727 -0.3895 -0.1233  0.3275
   22SAPC  H11A 2846   1.459   3.579  10.678 -0.2705 -0.2701  0.5412
   22SAPC  H11B 2847   1.498   3.653  10.835  2.4983  0.1231  0.1794
   22SAPC     P 2848   1.739   3.632  10.674 -0.5504 -0.7338  0.5018
   22SAPC   O13 2849   1.856   3.727  10.684 -0.4571 -0.4516 -0.3138
   22SAPC   O14 2850   1.732   3.511  10.758 -0.0522 -0.0887  0.4340
   22SAPC   O12 2851   1.616   3.723  10.677 -0.0647 -0.9811  0.2382
   22SAPC   O11 2852   1.734   3.578  10.522  0.0831  0.1357 -0.0651
   22SAPC    C1 2853   1.750   3.664  10.406  0.5372  0.4185 -0.6911
   22SAPC    HA 2854   1.815   3.749  10.435  0.7519  0.5439 -1.5527
   22SAPC    HB 2855   1.805   3.605  10.330  1.0387  0.9015 -0.6994
   22SAPC    C2 2856   1.618   3.732  10.361  0.1764 -0.5666  0.1810
   22SAPC    HS 2857   1.582   3.801  10.440  2.0471  0.1839  0.3895
   22SAPC   O21 2858   1.514   3.635  10.338 -0.2097  0.1334  0.0554
   22SAPC   C21 2859   1.384   3.686  10.348 -0.7188  0.5897  0.1315
   22SAPC   O22 2860   1.350   3.792  10.393  0.5453 -0.0672  0.6578
   22SAPC   C22 2861   1.287   3.581  10.290  0.0447 -0.1455 -0.7439
   22SAPC   H2R 2862   1.331   3.479  10.283 -0.8653 -0.6624  0.9179
   22SAPC   H2S 2863   1.202   3.579  10.361 -1.8267  2.4109 -2.8164
   22SAPC    C3 2864   1.637   3.812  10.236 -0.5548  0.0519 -0.5686
   22SAPC    HX 2865   1.664   3.744  10.153  1.3822  0.7736 -0.5533
   22SAPC    HY 2866   1.726   3.878  10.249  1.0057 -2.3329  1.3456
   22SAPC   O31 2867   1.526   3.897  10.209  0.0734 -0.1659  0.1589
   22SAPC   C31 2868   1.530   3.963  10.093  0.4530 -0.2417 -0.0989
   22SAPC   O32 2869   1.626   3.959  10.018 -0.0100 -0.1775  0.0413
   22SAPC   C32 2870   1.389   4.036  10.086 -0.3670 -0.9565 -0.1433
   22SAPC   H2X 2871   1.382   4.090  10.183 -0.9888 -2.0007  0.4045
   22SAPC   H2Y 2872   1.309   3.959  10.086  0.1092 -1.4530  0.2743
   22SAPC   C23 2873   1.239   3.631  10.155 -0.1673 -0.6950  0.4919
   22SAPC   H3R 2874   1.183   3.726  10.161  1.9663  0.4658  3.3511
   22SAPC   H3S 2875   1.178   3.539  10.140  1.2522 -1.9358  2.0596
   22SAPC   C24 2876   1.353   3.652  10.057 -0.5230  0.3242  0.4763
   22SAPC   H4R 2877   1.435   3.715  10.100  1.0743 -1.6157  0.3518
   22SAPC   H4S 2878   1.315   3.701   9.965  0.2142 -4.4908 -2.5732
   22SAPC   C25 2879   1.410   3.519  10.027  0.4847  0.0749  0.3760
   22SAPC   H5R 2880   1.485   3.476  10.095 -0.2040 -3.8839 -1.2826
   22SAPC   C26 2881   1.389   3.452   9.914 -0.3719  0.6973  0.2660
   22SAPC   H6R 2882   1.432   3.351   9.901 -2.4768 -0.2850  0.6579
   22SAPC   C27 2883   1.306   3.480   9.795  0.0314 -0.0450 -0.1714
   22SAPC   H7R 2884   1.359   3.438   9.707  1.5985  1.0931  0.2008
   22SAPC   H7S 2885   1.303   3.589   9.772 -0.7632  0.2163  1.0878
   22SAPC   C28 2886   1.167   3.427   9.791 -0.0131 -0.5355 -0.2951
   22SAPC   H8R 2887   1.160   3.321   9.820 -2.8692 -1.2844 -3.4888
   22SAPC   C29 2888   1.054   3.490   9.751 -0.1796  0.2125  0.1120
   22SAPC   H9R 2889   0.956   3.440   9.749  0.5369 -1.1549 -0.9973
   22SAPC  C210 2890   1.039   3.635   9.718  0.1314 -0.6010 -0.4961
   22SAPC  H10R 2891   0.975   3.639   9.628  0.4675 -0.7690 -0.7425
   22SAPC  H10S 2892   1.139   3.681   9.707 -0.3726  0.0681 -2.4887
   22SAPC  C211 2893   0.967   3.706   9.834  0.2268 -0.7411 -0.5713
   22SAPC  H11R 2894   0.969   3.664   9.936 -1.6093  0.9671  0.2061
   22SAPC  C212 2895   0.892   3.819   9.825 -0.7690 -0.1759 -0.1849
   22SAPC  H12R 2896   0.843   3.850   9.918  1.4822  0.0589  0.9560
   22SAPC  C213 2897   0.857   3.900   9.701 -0.0980 -0.2378  0.4725
   22SAPC  H13R 2898   0.904   3.855   9.611 -1.1588 -0.1856 -0.1141
   22SAPC  H13S 2899   0.912   3.996   9.705 -2.1694  1.0943 -1.6617
   22SAPC  C214 2900   0.716   3.939   9.676 -0.5845  0.1684  0.2372
   22SAPC  H14R 2901   0.649   3.889   9.747 -0.7350 -1.2761 -0.8928
   22SAPC  C215 2902   0.660   4.019   9.586  0.2558  0.4220  0.1922
   22SAPC  H15R 2903   0.551   4.031   9.596  0.5034  2.1452  1.0377
   22SAPC  C216 2904   0.738   4.095   9.479 -0.4773 -0.0587  0.3746
   22SAPC  H16R 2905   0.837   4.046   9.468  1.0662  3.0650 -0.0873
   22SAPC  H16S 2906   0.755   4.200   9.509 -1.8255  0.5015 -0.7203
   22SAPC  C217 2907   0.668   4.080   9.344  0.2495  0.0015 -0.2218
   22SAPC  H17R 2908   0.614   4.177   9.345 -1.5702 -1.0077  0.3727
   22SAPC  H17S 2909   0.601   3.992   9.333 -2.2332  1.5202  2.1184
   22SAPC  C218 2910   0.765   4.101   9.215 -0.0730  0.4471  0.0037
   22SAPC  H18R 2911   0.819   4.004   9.213  1.4036  1.0357  4.4166
   22SAPC  H18S 2912   0.840   4.181   9.234 -0.1087  0.8718 -1.6292
   22SAPC  C219 2913   0.686   4.126   9.090 -0.4655  0.8558 -0.4139
   22SAPC  H19R 2914   0.629   4.219   9.106  0.1032  1.1258  0.0877
   22SAPC  H19S 2915   0.613   4.043   9.096  1.2233 -0.5477  1.3543
   22SAPC  C220 2916   0.771   4.122   8.957  0.1390  0.1092  0.2127
   22SAPC  H20R 2917   0.847   4.203   8.949  0.6040 -0.3051  0.3977
   22SAPC  H20S 2918   0.704   4.129   8.869  2.5347  3.2535 -1.4942
   22SAPC  H20T 2919   0.842   4.036   8.954  1.1305  0.9061  0.3646
   22SAPC   C33 2920   1.364   4.131   9.963  0.4960  0.0926  0.0645
   22SAPC   H3X 2921   1.454   4.191   9.935 -0.8220  1.3899 -1.4908
   22SAPC   H3Y 2922   1.296   4.213   9.994  2.7291  1.4247  1.6010
   22SAPC   C34 2923   1.314   4.054   9.836 -0.3374 -0.0634 -0.5358
   22SAPC   H4X 2924   1.220   3.999   9.856 -0.8629  0.4956 -1.3908
   22SAPC   H4Y 2925   1.398   3.986   9.812  1.0176  1.3907 -0.0209
   22SAPC   C35 2926   1.300   4.135   9.707  0.3283 -0.6125 -0.7079
   22SAPC   H5X 2927   1.392   4.197   9.700  0.7060 -1.2578 -1.5751
   22SAPC   H5Y 2928   1.205   4.193   9.702  1.1855  0.8546 -0.4441
   22SAPC   C36 2929   1.299   4.043   9.581 -0.5171 -0.7267  0.4296
   22SAPC   H6X 2930   1.200   3.992   9.581 -0.2782 -1.2384 -1.3842
   22SAPC   H6Y 2931   1.380   3.967   9.588 -0.4650 -0.8886 -1.6666
   22SAPC   C37 2932   1.312   4.130   9.457  0.2473  0.3311  0.0035
   22SAPC   H7X 2933   1.381   4.086   9.382 -1.3818  0.1686 -1.4468
   22SAPC   H7Y 2934   1.360   4.227   9.482 -1.8837  1.8104 -1.4392
   22SAPC   C38 2935   1.178   4.179   9.403 -0.0711  0.5502  0.4341
   22SAPC   H8X 2936   1.124   4.242   9.478 -1.2984 -2.0520  1.8268
   22SAPC   H8Y 2937   1.120   4.087   9.383 -0.9907  1.2626 -0.2094
   22SAPC   C39 2938   1.174   4.244   9.266 -0.0692  0.6598 -0.1088
   22SAPC   H9X 2939   1.200   4.351   9.280  1.0413  0.1095  2.2288
   22SAPC   H9Y 2940   1.071   4.232   9.226 -0.6767 -1.9111  2.0590
   22SAPC  C310 2941   1.272   4.184   9.168  0.0037 -0.3400  0.4365
   22SAPC  H10X 2942   1.251   4.076   9.154  0.8762 -0.5798  0.9438
   22SAPC  H10Y 2943   1.375   4.196   9.208  0.8435 -1.0191 -1.4817
   22SAPC  C311 2944   1.259   4.267   9.037 -0.2885  0.2779  0.8329
   22SAPC  H11X 2945   1.293   4.369   9.066 -0.9348  0.6932  0.1531
   22SAPC  H11Y 2946   1.151   4.273   9.014  0.3671 -0.8381 -2.9175
   22SAPC  C312 2947   1.348   4.213   8.922  1.2579  0.0631  0.7567
   22SAPC  H12X 2948   1.324   4.105   8.935 -1.1256  0.7784  2.5996
   22SAPC  H12Y 2949   1.456   4.240   8.930  1.2691 -0.4799  2.7396
   22SAPC  C313 2950   1.312   4.243   8.772 -0.3828  0.1555  0.1941
   22SAPC  H13X 2951   1.323   4.352   8.757  0.3546  0.1876  0.9433
   22SAPC  H13Y 2952   1.205   4.215   8.758 -0.1056 -0.5603 -0.5630
   22SAPC  C314 2953   1.407   4.164   8.676  0.1347  0.7846 -0.0958
   22SAPC  H14X 2954   1.392   4.057   8.699 -0.3763  0.7491 -0.5916
   22SAPC  H14Y 2955   1.515   4.191   8.684  0.5692 -1.4889  2.2132
   22SAPC  C315 2956   1.359   4.186   8.531 -0.6327  0.0721 -0.4740
   22SAPC  H15X 2957   1.351   4.297   8.528 -1.2171 -0.0036 -1.9444
   22SAPC  H15Y 2958   1.257   4.147   8.512 -0.9651  1.2115 -1.0795
   22SAPC  C316 2959   1.458   4.119   8.437  0.5453 -0.0953 -0.2599
   22SAPC  H16X 2960   1.465   4.014   8.473 -3.4754  0.1532  1.4893
   22SAPC  H16Y 2961   1.557   4.170   8.438  0.6525 -0.3059  0.8716
   22SAPC  C317 2962   1.393   4.111   8.295  0.0924  0.1191  0.4232
   22SAPC  H17X 2963   1.370   4.218   8.275  3.9798  0.8767 -0.3621
   22SAPC  H17Y 2964   1.292   4.068   8.310 -0.2908  0.7398 -0.2907
   22SAPC  C318 2965   1.481   4.063   8.177 -0.2501  0.3490  0.4391
   22SAPC  H18X 2966   1.425   4.054   8.082 -0.0411  1.4952  0.1957
   22SAPC  H18Y 2967   1.521   3.963   8.204 -0.6878 -0.0023 -0.2102
   22SAPC  H18Z 2968   1.569   4.127   8.155 -0.0716 -0.3893 -1.0335
   23SAPC     N 2969   2.629   5.685  10.874  0.2059  0.5328  0.3980
   23SAPC   C12 2970   2.521   5.583  10.843  0.0156  0.4913  0.4459
   23SAPC  H12A 2971   2.484   5.606  10.744 -0.1818  0.9268  0.6171
   23SAPC  H12B 2972   2.444   5.596  10.917  0.9939  0.0620  1.5494
   23SAPC   C13 2973   2.754   5.665  10.799  0.0274 -0.1652  0.4971
   23SAPC  H13A 2974   2.837   5.722  10.837 -0.2492 -0.7971  2.0894
   23SAPC  H13B 2975   2.792   5.564  10.804 -2.9063 -1.3743 -0.3389
   23SAPC  H13C 2976   2.737   5.691  10.696  0.7674  0.0191  0.4178
   23SAPC   C14 2977   2.579   5.823  10.848 -0.3596  0.9103  0.0497
   23SAPC  H14A 2978   2.652   5.893  10.884 -0.6187  0.9289  0.5416
   23SAPC  H14B 2979   2.562   5.828  10.741  0.3229 -1.0938 -0.1744
   23SAPC  H14C 2980   2.487   5.837  10.903  0.5479  1.8521  1.3378
   23SAPC   C15 2981   2.675   5.677  11.014  0.9022  0.4635  0.3529
   23SAPC  H15A 2982   2.590   5.662  11.078  0.0342  1.3473 -0.5624
   23SAPC  H15B 2983   2.740   5.593  11.028 -0.5076 -1.0699 -1.9211
   23SAPC  H15C 2984   2.719   5.771  11.042 -0.8425  0.4732  3.2251
   23SAPC   C11 2985   2.541   5.425  10.849 -1.0022 -0.3667 -0.4466
   23SAPC  H11A 2986   2.439   5.387  10.828 -1.1264 -1.7767  2.5608
   23SAPC  H11B 2987   2.565   5.404  10.955 -1.6626  2.1280  0.2359
   23SAPC     P 2988   2.642   5.244  10.691  0.1872  0.2676  0.0662
   23SAPC   O13 2989   2.686   5.142  10.786 -0.0528 -0.4785  0.3438
   23SAPC   O14 2990   2.514   5.219  10.615 -0.4287  0.1526  0.7058
   23SAPC   O12 2991   2.640   5.386  10.751 -0.0099  0.0053  0.5698
   23SAPC   O11 2992   2.755   5.237  10.584 -0.1780 -0.3125 -0.1440
   23SAPC    C1 2993   2.828   5.358  10.552 -0.3391  0.2606 -0.3568
   23SAPC    HA 2994   2.757   5.441  10.530 -2.1027 -1.3505 -0.9425
   23SAPC    HB 2995   2.886   5.388  10.642  0.0684  0.2094 -0.5987
   23SAPC    C2 2996   2.926   5.325  10.439  0.2969  0.5366  1.0239
   23SAPC    HS 2997   2.988   5.415  10.420  2.2353 -0.7249  1.2584
   23SAPC   O21 2998   2.868   5.274  10.317 -0.3727 -0.1927  0.2620
   23SAPC   C21 2999   2.817   5.366  10.242  0.3157 -0.3539 -0.7504
   23SAPC   O22 3000   2.823   5.485  10.273 -0.1318 -0.1662 -0.2860
   23SAPC   C22 3001   2.749   5.313  10.118  1.3116 -0.7851  0.3519
   23SAPC   H2R 3002   2.798   5.219  10.084  0.6085 -0.9840 -0.1181
   23SAPC   H2S 3003   2.645   5.292  10.152  0.9454  0.8764  0.3156
   23SAPC    C3 3004   3.038   5.226  10.495  0.5485 -0.5170 -0.2656
   23SAPC    HX 3005   2.984   5.131  10.518  1.3315 -0.7115  0.7865
   23SAPC    HY 3006   3.074   5.259  10.595  1.1544 -1.3106 -0.2135
   23SAPC   O31 3007   3.134   5.200  10.392  0.6809  0.5927  0.6526
   23SAPC   C31 3008   3.234   5.282  10.384 -0.5086 -0.7976  0.0205
   23SAPC   O32 3009   3.257   5.377  10.461 -0.2455  0.2051  0.5292
   23SAPC   C32 3010   3.319   5.237  10.262  0.5140  0.4300 -0.2613
   23SAPC   H2X 3011   3.362   5.140  10.295  0.6952 -0.0487 -1.8673
   23SAPC   H2Y 3012   3.400   5.309  10.240  0.9227 -0.0474 -0.3234
   23SAPC   C23 3013   2.736   5.405   9.993  0.2190 -0.4531 -0.3793
   23SAPC   H3R 3014   2.675   5.491  10.028  0.8105  0.2998 -1.1727
   23SAPC   H3S 3015   2.679   5.355   9.912 -0.0851 -0.7516  0.0204
   23SAPC   C24 3016   2.867   5.432   9.940 -0.0531 -0.2089 -0.2733
   23SAPC   H4R 3017   2.894   5.332   9.900 -2.1891 -1.2631  0.8489
   23SAPC   H4S 3018   2.938   5.466  10.019  1.0773  0.3291 -1.5022
   23SAPC   C25 3019   2.853   5.543   9.839 -0.4026 -0.4317 -1.0425
   23SAPC   H5R 3020   2.846   5.645   9.880 -0.1308 -1.1953  0.9518
   23SAPC   C26 3021   2.861   5.518   9.711 -0.1493  0.4219  0.1079
   23SAPC   H6R 3022   2.859   5.610   9.650  1.8239  0.9103  0.7163
   23SAPC   C27 3023   2.877   5.391   9.633 -0.7937 -1.1200  0.6641
   23SAPC   H7R 3024   2.880   5.304   9.702  0.0053 -1.7081 -0.0997
   23SAPC   H7S 3025   2.976   5.392   9.582 -1.4994 -1.6475 -0.7684
   23SAPC   C28 3026   2.768   5.372   9.526 -0.1629 -0.8481  0.0476
   23SAPC   H8R 3027   2.692   5.296   9.549 -0.4372 -0.8968 -1.0013
   23SAPC   C29 3028   2.754   5.444   9.413  0.5477  1.4884 -0.6200
   23SAPC   H9R 3029   2.676   5.417   9.340  0.9255 -3.0663  0.5443
   23SAPC  C210 3030   2.835   5.555   9.359 -0.4674 -0.5407  0.3598
   23SAPC  H10R 3031   2.888   5.520   9.268  1.9233  1.5154  0.9027
   23SAPC  H10S 3032   2.909   5.591   9.434  0.4395  1.4289 -1.4211
   23SAPC  C211 3033   2.741   5.677   9.332  0.2971 -0.5345  0.5813
   23SAPC  H11R 3034   2.742   5.757   9.408  1.9487  0.8024 -0.7899
   23SAPC  C212 3035   2.684   5.710   9.216 -0.1145 -0.3344 -0.4642
   23SAPC  H12R 3036   2.619   5.799   9.215  2.4758  1.7455  2.9796
   23SAPC  C213 3037   2.690   5.631   9.088  0.2718  0.0302 -0.0248
   23SAPC  H13R 3038   2.584   5.635   9.056  0.3278 -0.6606 -0.3126
   23SAPC  H13S 3039   2.708   5.523   9.108  0.8410 -0.2922 -2.1771
   23SAPC  C214 3040   2.800   5.682   9.001  0.3111 -0.3833  0.3826
   23SAPC  H14R 3041   2.883   5.743   9.041  0.1802  1.6481 -2.3171
   23SAPC  C215 3042   2.809   5.677   8.868 -0.3693  0.4172 -0.2521
   23SAPC  H15R 3043   2.888   5.737   8.819  0.1869  0.2450  0.4222
   23SAPC  C216 3044   2.708   5.613   8.784  0.1420  0.2587 -0.8004
   23SAPC  H16R 3045   2.667   5.704   8.734  1.9016  0.2764 -2.2726
   23SAPC  H16S 3046   2.629   5.563   8.844  0.1444  0.2725 -0.7861
   23SAPC  C217 3047   2.764   5.512   8.674 -0.1024 -0.0359  0.2897
   23SAPC  H17R 3048   2.685   5.454   8.623  1.4081 -1.0780 -0.9396
   23SAPC  H17S 3049   2.814   5.431   8.731  0.2813 -0.1882 -0.2570
   23SAPC  C218 3050   2.852   5.586   8.576 -0.4471 -0.3032 -0.2683
   23SAPC  H18R 3051   2.935   5.623   8.640 -2.0987  0.0964  1.6827
   23SAPC  H18S 3052   2.791   5.661   8.522 -2.2969 -1.8212 -0.3385
   23SAPC  C219 3053   2.912   5.483   8.483  0.0072 -0.0799  0.2932
   23SAPC  H19R 3054   2.838   5.426   8.421  0.6273 -0.4508 -0.1088
   23SAPC  H19S 3055   2.967   5.414   8.550 -0.5108  0.1617  0.9766
   23SAPC  C220 3056   3.026   5.543   8.401 -0.7870 -0.1561  0.0877
   23SAPC  H20R 3057   3.000   5.630   8.337 -1.4025 -1.1801 -1.0822
   23SAPC  H20S 3058   3.070   5.463   8.338  0.0159  1.1964 -1.1042
   23SAPC  H20T 3059   3.106   5.567   8.475 -1.4586 -1.6713  1.3369
   23SAPC   C33 3060   3.240   5.194  10.132  0.2277 -0.2562 -0.3300
   23SAPC   H3X 3061   3.156   5.129  10.165  0.3786 -1.1343 -1.6261
   23SAPC   H3Y 3062   3.300   5.139  10.057  3.9020 -0.7986  2.8767
   23SAPC   C34 3063   3.180   5.310  10.053  0.2781 -0.3002  0.3340
   23SAPC   H4X 3064   3.148   5.391  10.122 -0.8735  0.3665 -0.9750
   23SAPC   H4Y 3065   3.087   5.282  10.000 -0.2947  1.1640  0.5477
   23SAPC   C35 3066   3.277   5.358   9.950 -0.5778  0.0301 -0.0690
   23SAPC   H5X 3067   3.384   5.361   9.980 -1.1038  0.2869  1.8531
   23SAPC   H5Y 3068   3.252   5.466   9.935  0.4722  0.1338 -1.1131
   23SAPC   C36 3069   3.261   5.279   9.813 -0.1716 -0.3508  0.9085
   23SAPC   H6X 3070   3.154   5.251   9.800 -0.1067  0.4603 -1.8434
   23SAPC   H6Y 3071   3.334   5.196   9.820  0.7196  0.4336  1.0653
   23SAPC   C37 3072   3.290   5.371   9.690  0.5409  0.0058  0.2440
   23SAPC   H7X 3073   3.398   5.399   9.691 -0.6423  4.8621  0.7398
   23SAPC   H7Y 3074   3.236   5.465   9.710  0.4246 -0.1918  0.8662
   23SAPC   C38 3075   3.243   5.320   9.548 -0.0571 -0.1308 -0.2431
   23SAPC   H8X 3076   3.140   5.282   9.530 -0.3118  0.5851 -0.3204
   23SAPC   H8Y 3077   3.296   5.223   9.536  1.3229  0.2485  2.5327
   23SAPC   C39 3078   3.283   5.414   9.438  0.2834  0.2650 -0.3170
   23SAPC   H9X 3079   3.392   5.424   9.459 -0.2884  1.6547  2.1786
   23SAPC   H9Y 3080   3.221   5.502   9.466 -0.1955 -0.5666  1.3243
   23SAPC  C310 3081   3.257   5.365   9.293  0.2059  0.4772 -0.9995
   23SAPC  H10X 3082   3.149   5.350   9.273 -0.9721  2.9910  2.8065
   23SAPC  H10Y 3083   3.294   5.261   9.283  0.4726  0.7172 -2.5644
   23SAPC  C311 3084   3.315   5.454   9.182  0.1863 -0.0277  0.3999
   23SAPC  H11X 3085   3.426   5.463   9.186  0.1788  1.2219 -1.5482
   23SAPC  H11Y 3086   3.260   5.550   9.197 -0.6209 -0.3015 -0.6948
   23SAPC  C312 3087   3.281   5.410   9.038 -0.2316  0.1110 -0.2730
   23SAPC  H12X 3088   3.306   5.485   8.959  0.8404  0.0390 -0.0034
   23SAPC  H12Y 3089   3.172   5.390   9.028  0.2792 -2.6239 -0.7791
   23SAPC  C313 3090   3.351   5.279   8.995  0.8021  0.7982 -0.8468
   23SAPC  H13X 3091   3.349   5.207   9.079  2.8497  1.2038 -0.4244
   23SAPC  H13Y 3092   3.460   5.298   8.989  0.8748  0.3229 -1.0687
   23SAPC  C314 3093   3.289   5.236   8.856 -0.6591 -0.2011  0.1876
   23SAPC  H14X 3094   3.179   5.251   8.858 -0.5565  1.3863 -2.4394
   23SAPC  H14Y 3095   3.293   5.127   8.839  0.7602 -0.0187 -0.7988
   23SAPC  C315 3096   3.353   5.291   8.727 -0.7921 -0.0650 -0.5735
   23SAPC  H15X 3097   3.464   5.282   8.732 -0.8624 -0.9606 -0.6054
   23SAPC  H15Y 3098   3.329   5.399   8.719 -0.8765 -0.1289 -1.2069
   23SAPC  C316 3099   3.293   5.209   8.612  0.2531 -0.3382  0.5771
   23SAPC  H16X 3100   3.183   5.226   8.607  0.2295 -0.5147  0.5056
   23SAPC  H16Y 3101   3.310   5.104   8.643 -0.0340 -0.7542 -0.6449
   23SAPC  C317 3102   3.371   5.231   8.479  0.0815 -0.6314 -0.1064
   23SAPC  H17X 3103   3.466   5.174   8.486 -1.1994 -2.5293  2.3911
   23SAPC  H17Y 3104   3.399   5.339   8.478 -1.9449 -0.0942 -0.5832
   23SAPC  C318 3105   3.295   5.205   8.351 -0.0760  0.2863  0.1458
   23SAPC  H18X 3106   3.343   5.245   8.260 -0.0720  2.2960  0.9873
   23SAPC  H18Y 3107   3.193   5.249   8.357  0.8423  2.1753  2.7592
   23SAPC  H18Z 3108   3.283   5.096   8.338  0.7232  0.2414 -0.2019
   24SAPC     N 3109   5.093   5.811  11.461 -0.0023 -0.1172 -0.0050
   24SAPC   C12 3110   5.141   5.807  11.319 -0.1404 -0.6038 -0.3122
   24SAPC  H12A 3111   5.165   5.908  11.290 -0.2058 -0.4618  0.1266
   24SAPC  H12B 3112   5.055   5.780  11.259 -0.9340 -0.4725  0.7541
   24SAPC   C13 3113   5.189   5.869  11.555  0.0707  0.2220 -0.2564
   24SAPC  H13A 3114   5.152   5.886  11.655 -0.1864 -1.7983  0.0274
   24SAPC  H13B 3115   5.281   5.813  11.565 -0.8562 -1.0884  1.3201
   24SAPC  H13C 3116   5.231   5.961  11.520  1.2839  0.1097  0.8722
   24SAPC   C14 3117   4.974   5.901  11.458 -0.1737  0.1152  0.2988
   24SAPC  H14A 3118   4.997   5.999  11.420 -0.1177 -0.2102 -0.4997
   24SAPC  H14B 3119   4.901   5.857  11.393  0.7621  0.1192 -0.7575
   24SAPC  H14C 3120   4.933   5.891  11.558 -1.6463 -0.0565 -0.3160
   24SAPC   C15 3121   5.038   5.679  11.506  0.7765  0.5833  0.4628
   24SAPC  H15A 3122   5.121   5.610  11.503 -0.5788 -1.0837  1.1118
   24SAPC  H15B 3123   4.988   5.674  11.601 -0.4992 -0.6730 -0.2505
   24SAPC  H15C 3124   4.957   5.650  11.441 -1.0697  0.8138  2.5960
   24SAPC   C11 3125   5.247   5.701  11.286  0.4545  0.2246 -0.0273
   24SAPC  H11A 3126   5.320   5.703  11.370 -0.6420 -1.0253  0.9557
   24SAPC  H11B 3127   5.295   5.740  11.193 -0.6530  2.8024  0.4344
   24SAPC     P 3128   5.112   5.522  11.161 -0.7358 -0.0356  0.2004
   24SAPC   O13 3129   5.115   5.374  11.165 -0.0163 -0.0820  0.4011
   24SAPC   O14 3130   4.983   5.597  11.144  1.1493  0.4131 -0.2657
   24SAPC   O12 3131   5.197   5.571  11.282  0.4776 -0.2599 -0.3400
   24SAPC   O11 3132   5.190   5.575  11.033 -0.5345  0.4882 -0.0832
   24SAPC    C1 3133   5.326   5.548  11.003 -0.1563  0.1490  0.0928
   24SAPC    HA 3134   5.393   5.630  11.037 -2.3623  2.0819 -0.0284
   24SAPC    HB 3135   5.352   5.463  11.070 -1.6595 -2.2880 -2.2810
   24SAPC    C2 3136   5.354   5.505  10.859 -0.2684  0.9543  0.9303
   24SAPC    HS 3137   5.461   5.474  10.866 -0.4254 -0.3293 -1.9942
   24SAPC   O21 3138   5.323   5.615  10.774  0.2454 -0.0004  0.1882
   24SAPC   C21 3139   5.405   5.717  10.778  0.0577  0.1888 -0.8523
   24SAPC   O22 3140   5.506   5.722  10.847 -0.3580 -0.4445 -0.1056
   24SAPC   C22 3141   5.369   5.837  10.683  0.0184 -0.0618 -0.7254
   24SAPC   H2R 3142   5.409   5.809  10.583  2.4305  0.0638  0.1765
   24SAPC   H2S 3143   5.259   5.853  10.688 -0.0618 -1.2209  4.0350
   24SAPC    C3 3144   5.264   5.394  10.810 -0.4998 -0.3631 -0.1463
   24SAPC    HX 3145   5.156   5.420  10.797 -0.3404  0.3690  0.0434
   24SAPC    HY 3146   5.266   5.303  10.874  0.4846 -2.3847 -2.9430
   24SAPC   O31 3147   5.313   5.346  10.682  0.6753 -0.0913 -0.1892
   24SAPC   C31 3148   5.247   5.243  10.634  0.0680 -0.5906  0.3319
   24SAPC   O32 3149   5.146   5.189  10.680 -0.2250  0.6350 -0.3188
   24SAPC   C32 3150   5.322   5.190  10.513  0.4668  0.4531 -0.3428
   24SAPC   H2X 3151   5.353   5.088  10.544 -1.0622 -0.0047 -0.2955
   24SAPC   H2Y 3152   5.416   5.248  10.499  0.0086  0.8139 -1.9206
   24SAPC   C23 3153   5.438   5.970  10.726  0.0915 -0.7201  0.2522
   24SAPC   H3R 3154   5.540   5.953  10.768  0.6241  1.5472 -0.0199
   24SAPC   H3S 3155   5.380   6.003  10.815 -1.9230  0.6542 -1.5072
   24SAPC   C24 3156   5.434   6.081  10.622 -0.1306 -0.5884  0.3536
   24SAPC   H4R 3157   5.507   6.047  10.545 -0.5990 -0.0912 -0.3069
   24SAPC   H4S 3158   5.463   6.171  10.680  0.5605 -1.1916  0.9606
   24SAPC   C25 3159   5.302   6.113  10.558  0.1715 -0.1248 -0.1725
   24SAPC   H5R 3160   5.220   6.142  10.625 -0.3475 -0.4049 -0.6831
   24SAPC   C26 3161   5.275   6.117  10.429  0.3970 -0.2846  0.6503
   24SAPC   H6R 3162   5.170   6.137  10.404 -0.0927 -1.4774  1.6825
   24SAPC   C27 3163   5.372   6.096  10.315  0.6017  1.1392 -0.4539
   24SAPC   H7R 3164   5.471   6.135  10.345 -0.1300  1.0478  2.1778
   24SAPC   H7S 3165   5.328   6.161  10.237 -1.1684 -1.7708 -1.9797
   24SAPC   C28 3166   5.374   5.952  10.268 -0.5108 -0.3898  0.1193
   24SAPC   H8R 3167   5.342   5.881  10.346 -0.8409 -0.0273  0.3157
   24SAPC   C29 3168   5.404   5.917  10.144  0.3141 -0.5080 -0.1615
   24SAPC   H9R 3169   5.422   5.809  10.129  1.7304 -0.5967  1.9619
   24SAPC  C210 3170   5.433   6.009  10.027 -0.8087  0.8446  0.9226
   24SAPC  H10R 3171   5.539   5.992   9.997 -1.8565 -0.9440 -2.0155
   24SAPC  H10S 3172   5.426   6.114  10.062 -3.2029  0.5419  1.4352
   24SAPC  C211 3173   5.338   5.995   9.911  0.1451  0.4657 -0.2720
   24SAPC  H11R 3174   5.235   5.963   9.934  0.1422  0.5243 -0.2026
   24SAPC  C212 3175   5.366   5.991   9.783  0.4177 -0.0100  0.0378
   24SAPC  H12R 3176   5.285   5.966   9.714  0.3204  1.2628 -0.3311
   24SAPC  C213 3177   5.496   6.017   9.711  0.5806  0.3712  0.5264
   24SAPC  H13R 3178   5.581   6.037   9.779  1.0567  0.4750 -0.0960
   24SAPC  H13S 3179   5.497   6.109   9.649  1.6414  0.9364  1.3609
   24SAPC  C214 3180   5.521   5.889   9.636 -0.0147  0.0567 -0.5554
   24SAPC  H14R 3181   5.542   5.803   9.702 -0.1611  0.7186  0.3723
   24SAPC  C215 3182   5.510   5.876   9.498 -0.1631  0.0165 -0.4696
   24SAPC  H15R 3183   5.525   5.774   9.461 -2.1356 -1.3282  2.2408
   24SAPC  C216 3184   5.456   5.985   9.407  0.0232  0.4913  0.3747
   24SAPC  H16R 3185   5.402   6.069   9.456  1.4231  2.0418 -0.6973
   24SAPC  H16S 3186   5.398   5.931   9.330  0.1298  0.2070  0.4949
   24SAPC  C217 3187   5.577   6.045   9.323  0.2848  0.6654 -0.1318
   24SAPC  H17R 3188   5.654   6.082   9.394 -1.0661  0.9889  1.1867
   24SAPC  H17S 3189   5.538   6.125   9.256  1.5200  0.6028 -0.9399
   24SAPC  C218 3190   5.648   5.943   9.232 -0.2026  0.3564 -0.6048
   24SAPC  H18R 3191   5.653   5.839   9.272 -0.3618  1.2082  1.6758
   24SAPC  H18S 3192   5.757   5.956   9.213 -0.2137  0.9617 -0.2498
   24SAPC  C219 3193   5.600   5.936   9.087  0.4608 -0.2975 -0.4639
   24SAPC  H19R 3194   5.489   5.933   9.083  0.3834  1.0062  0.3289
   24SAPC  H19S 3195   5.648   5.844   9.046  1.1746  0.4076 -1.2466
   24SAPC  C220 3196   5.655   6.044   9.001  0.3356  0.5416  0.2594
   24SAPC  H20R 3197   5.763   6.064   9.016 -0.0023  2.3431  0.4291
   24SAPC  H20S 3198   5.594   6.136   9.018 -2.3796 -1.2167  0.2369
   24SAPC  H20T 3199   5.644   6.014   8.894  1.6010  1.4260 -0.1389
   24SAPC   C33 3200   5.239   5.197  10.382  0.0190  0.1162  0.2412
   24SAPC   H3X 3201   5.220   5.300  10.345  0.9923  0.1334 -0.2369
   24SAPC   H3Y 3202   5.141   5.145  10.390  0.2306 -0.2892  0.2404
   24SAPC   C34 3203   5.304   5.132  10.262 -0.1773  0.0962  0.3159
   24SAPC   H4X 3204   5.344   5.038  10.305 -0.0170  0.7745  1.6759
   24SAPC   H4Y 3205   5.384   5.198  10.222  1.3416 -2.6488 -1.3546
   24SAPC   C35 3206   5.205   5.090  10.150 -0.1465 -0.6264  0.4801
   24SAPC   H5X 3207   5.201   5.178  10.082  1.4885  0.0268  1.1836
   24SAPC   H5Y 3208   5.101   5.079  10.187 -0.6520  1.6090 -0.1839
   24SAPC   C36 3209   5.263   4.969  10.080  0.1566  0.6349 -0.2039
   24SAPC   H6X 3210   5.249   4.883  10.149 -0.1683  0.7153 -0.1689
   24SAPC   H6Y 3211   5.373   4.982  10.071  0.4343 -0.0760  1.8570
   24SAPC   C37 3212   5.201   4.934   9.940 -0.1990  0.8037  0.3522
   24SAPC   H7X 3213   5.103   4.882   9.939  1.5478 -2.6867 -0.1688
   24SAPC   H7Y 3214   5.270   4.851   9.913 -1.2094  0.2406 -0.5459
   24SAPC   C38 3215   5.217   5.038   9.832  0.2649 -0.6604 -0.5068
   24SAPC   H8X 3216   5.319   5.079   9.843 -0.6151  1.0420  1.8059
   24SAPC   H8Y 3217   5.141   5.118   9.846 -0.0479 -1.1183  0.5244
   24SAPC   C39 3218   5.200   4.979   9.694 -0.4893  0.3826 -0.6513
   24SAPC   H9X 3219   5.095   4.943   9.686 -0.7260  0.6985  0.9912
   24SAPC   H9Y 3220   5.267   4.891   9.681 -1.2979 -0.3395  0.0467
   24SAPC  C310 3221   5.224   5.080   9.580 -0.3566 -0.4638  0.7235
   24SAPC  H10X 3222   5.325   5.126   9.570  0.0188 -1.1943  1.0902
   24SAPC  H10Y 3223   5.154   5.163   9.602 -1.7431 -1.0610 -1.3277
   24SAPC  C311 3224   5.185   5.029   9.442  0.4444 -0.2154 -0.1078
   24SAPC  H11X 3225   5.111   4.946   9.443  1.5557 -1.2103  0.7491
   24SAPC  H11Y 3226   5.271   4.990   9.385  0.6906  1.2577 -0.7756
   24SAPC  C312 3227   5.123   5.150   9.358 -0.1042 -0.2183 -0.7825
   24SAPC  H12X 3228   5.191   5.236   9.377 -1.6091  0.9133 -0.4093
   24SAPC  H12Y 3229   5.027   5.169   9.409  0.8651  1.5409  0.4703
   24SAPC  C313 3230   5.112   5.129   9.211 -0.0180 -0.0558  0.3483
   24SAPC  H13X 3231   5.036   5.193   9.162 -0.3098 -0.0074  0.8615
   24SAPC  H13Y 3232   5.088   5.022   9.192  0.9443 -0.0906 -0.7480
   24SAPC  C314 3233   5.243   5.160   9.142 -0.4836 -0.1795  0.1903
   24SAPC  H14X 3234   5.311   5.080   9.178  0.7131  0.5249 -0.4654
   24SAPC  H14Y 3235   5.282   5.254   9.187  0.0332  0.5060 -1.6538
   24SAPC  C315 3236   5.232   5.158   8.985  0.1868 -0.1912  0.1150
   24SAPC  H15X 3237   5.203   5.053   8.964 -0.6429  0.2127 -0.7458
   24SAPC  H15Y 3238   5.334   5.180   8.946  0.4316  0.5132  1.1239
   24SAPC  C316 3239   5.132   5.251   8.908  0.6880  0.4262  0.3857
   24SAPC  H16X 3240   5.137   5.359   8.936 -0.0983 -0.0688  2.5576
   24SAPC  H16Y 3241   5.033   5.215   8.942  0.1931  2.4202  1.1077
   24SAPC  C317 3242   5.125   5.242   8.754  0.1913 -0.0030  0.0829
   24SAPC  H17X 3243   5.128   5.133   8.732  3.5220 -0.0858  0.6073
   24SAPC  H17Y 3244   5.222   5.272   8.710  0.9413 -2.0564  0.2756
   24SAPC  C318 3245   5.018   5.314   8.681  0.0098 -0.4083  0.5449
   24SAPC  H18X 3246   4.916   5.279   8.706 -0.3232 -1.5420 -2.2157
   24SAPC  H18Y 3247   5.022   5.306   8.570 -0.9398 -0.0538  0.4741
   24SAPC  H18Z 3248   5.012   5.423   8.705 -4.7848  0.0324 -1.8784
   25SAPC     N 3249   2.291   4.032   5.922 -0.4216 -0.1111 -0.1998
   25SAPC   C12 3250   2.251   4.064   6.063 -0.7546  0.6218  0.1604
   25SAPC  H12A 3251   2.144   4.074   6.056 -0.9201  0.3479  2.1826
   25SAPC  H12B 3252   2.298   4.157   6.090 -0.2771  0.8238 -1.2912
   25SAPC   C13 3253   2.229   3.905   5.868  0.4171 -0.0463 -0.0869
   25SAPC  H13A 3254   2.250   3.824   5.936  1.3485  0.6027  0.4186
   25SAPC  H13B 3255   2.123   3.922   5.859  0.8266  2.3570 -0.6813
   25SAPC  H13C 3256   2.271   3.883   5.771 -0.8727  0.6548 -0.8152
   25SAPC   C14 3257   2.249   4.148   5.837 -0.5166 -0.2384  0.8263
   25SAPC  H14A 3258   2.277   4.137   5.733 -0.5646 -0.2362  0.8131
   25SAPC  H14B 3259   2.144   4.170   5.848 -0.8780 -1.4294 -0.1216
   25SAPC  H14C 3260   2.298   4.234   5.881 -1.8546  0.4230  1.0482
   25SAPC   C15 3261   2.444   4.011   5.908  0.5113  0.0584  0.1478
   25SAPC  H15A 3262   2.482   4.057   5.818 -1.4658  1.8829  0.2108
   25SAPC  H15B 3263   2.492   4.071   5.984  0.0038  0.5035  0.1226
   25SAPC  H15C 3264   2.473   3.907   5.903  2.2425  0.6015 -1.5427
   25SAPC   C11 3265   2.274   3.955   6.172  0.5872 -0.2297  0.1486
   25SAPC  H11A 3266   2.272   4.002   6.273  0.6118 -2.4076  1.1917
   25SAPC  H11B 3267   2.377   3.914   6.162  1.3096  2.0480 -2.3852
   25SAPC     P 3268   2.030   3.884   6.202 -0.0368  0.1003 -0.6848
   25SAPC   O13 3269   2.004   4.024   6.164 -0.2459 -0.4070 -0.2336
   25SAPC   O14 3270   1.951   3.785   6.138 -0.4886  0.1021  0.4192
   25SAPC   O12 3271   2.177   3.863   6.158 -0.1932  0.1218  0.5568
   25SAPC   O11 3272   2.027   3.868   6.359 -0.5373 -0.0566  0.2900
   25SAPC    C1 3273   2.091   3.751   6.415 -0.4928 -0.1652  0.4467
   25SAPC    HA 3274   2.005   3.684   6.436 -1.1767  0.0525 -1.5284
   25SAPC    HB 3275   2.178   3.714   6.357 -1.3717  1.4378 -1.9847
   25SAPC    C2 3276   2.138   3.779   6.559 -1.1659 -0.4018 -0.6057
   25SAPC    HS 3277   2.182   3.685   6.600 -0.0233  0.0082 -0.8565
   25SAPC   O21 3278   2.024   3.829   6.640 -0.3218  0.0354 -0.0668
   25SAPC   C21 3279   2.021   3.795   6.762 -0.2592  0.5879  0.1343
   25SAPC   O22 3280   2.106   3.744   6.833  0.7953 -0.2480  0.3947
   25SAPC   C22 3281   1.880   3.837   6.813 -0.6054  0.4792  0.0362
   25SAPC   H2R 3282   1.876   3.947   6.797  2.5400  0.3558 -2.1098
   25SAPC   H2S 3283   1.797   3.805   6.746  0.9208  0.0574 -1.7093
   25SAPC    C3 3284   2.262   3.879   6.572 -0.5610 -0.2955 -0.7518
   25SAPC    HX 3285   2.226   3.983   6.561  1.3721  0.5226  0.4663
   25SAPC    HY 3286   2.331   3.866   6.485  2.8161 -2.2526  2.0657
   25SAPC   O31 3287   2.329   3.867   6.696  0.3051 -0.0264  0.4890
   25SAPC   C31 3288   2.403   3.762   6.715  0.5811 -0.3877  0.5396
   25SAPC   O32 3289   2.432   3.673   6.631  0.5868  0.0683 -0.3144
   25SAPC   C32 3290   2.427   3.743   6.866  0.4517  0.4376 -0.6927
   25SAPC   H2X 3291   2.336   3.693   6.905  1.7260 -0.8980  0.6510
   25SAPC   H2Y 3292   2.436   3.844   6.911 -3.0024  0.5616 -0.1123
   25SAPC   C23 3293   1.859   3.802   6.960  0.6748 -0.7529  0.3011
   25SAPC   H3R 3294   1.822   3.898   7.003 -0.5117 -1.0604 -0.0229
   25SAPC   H3S 3295   1.955   3.794   7.016  2.6054  0.4323 -2.6978
   25SAPC   C24 3296   1.768   3.680   6.973 -0.0838 -0.5469 -0.5367
   25SAPC   H4R 3297   1.775   3.601   6.895 -2.1192 -1.6198  0.3356
   25SAPC   H4S 3298   1.663   3.706   6.949  0.4064 -1.2081 -3.6026
   25SAPC   C25 3299   1.787   3.621   7.109 -0.4174  0.3858  0.1545
   25SAPC   H5R 3300   1.889   3.586   7.131 -1.2707 -3.1577 -1.1509
   25SAPC   C26 3301   1.695   3.607   7.205 -0.0024  0.0346 -0.0690
   25SAPC   H6R 3302   1.736   3.581   7.304 -0.2221  0.7068  0.2014
   25SAPC   C27 3303   1.556   3.667   7.196 -0.5322  0.4596  0.0074
   25SAPC   H7R 3304   1.525   3.655   7.090  0.6885 -0.0854 -0.3081
   25SAPC   H7S 3305   1.570   3.775   7.216 -0.2431  0.4701 -0.2507
   25SAPC   C28 3306   1.476   3.585   7.297  0.3215 -0.2220 -0.3153
   25SAPC   H8R 3307   1.460   3.483   7.259  1.4043 -0.2400 -0.7424
   25SAPC   C29 3308   1.438   3.624   7.420 -0.6769 -0.3333  0.1588
   25SAPC   H9R 3309   1.354   3.570   7.465 -1.3254  0.9285  0.4842
   25SAPC  C210 3310   1.467   3.760   7.482  0.6730 -0.2878  0.6486
   25SAPC  H10R 3311   1.376   3.824   7.470  0.5249 -0.4824  0.7193
   25SAPC  H10S 3312   1.548   3.804   7.422  0.6024  0.2596  0.9505
   25SAPC  C211 3313   1.513   3.759   7.624 -0.1894  0.1794 -0.6694
   25SAPC  H11R 3314   1.426   3.739   7.688 -1.6414 -0.1421 -2.6872
   25SAPC  C212 3315   1.647   3.751   7.653 -0.2881 -0.9570  0.4377
   25SAPC  H12R 3316   1.668   3.758   7.761  1.9170 -3.7224  0.2191
   25SAPC  C213 3317   1.774   3.758   7.569 -0.1176 -0.0345  0.4050
   25SAPC  H13R 3318   1.773   3.856   7.518  2.4121 -0.0817  0.2059
   25SAPC  H13S 3319   1.765   3.686   7.485  1.8983 -0.7724  0.7996
   25SAPC  C214 3320   1.907   3.748   7.637  0.0663  0.3351 -0.0963
   25SAPC  H14R 3321   1.920   3.753   7.746 -2.3319 -1.7756  0.3352
   25SAPC  C215 3322   2.027   3.717   7.578  0.0568  0.7042  0.3402
   25SAPC  H15R 3323   2.118   3.698   7.636  1.3492  1.0318 -1.5179
   25SAPC  C216 3324   2.051   3.693   7.430 -0.1420 -0.5250  0.0134
   25SAPC  H16R 3325   1.961   3.738   7.384  0.5448 -2.4532 -3.4392
   25SAPC  H16S 3326   2.061   3.584   7.408 -0.6915 -0.4153 -0.8059
   25SAPC  C217 3327   2.181   3.774   7.396 -0.5025 -0.4377  0.4798
   25SAPC  H17R 3328   2.253   3.736   7.471 -0.2500 -2.0415 -0.5297
   25SAPC  H17S 3329   2.153   3.880   7.414  1.8690  0.7704 -2.3945
   25SAPC  C218 3330   2.236   3.744   7.254 -0.1111  1.2746  0.1184
   25SAPC  H18R 3331   2.184   3.657   7.209 -0.2711  1.0584  0.7189
   25SAPC  H18S 3332   2.347   3.736   7.258 -0.2241  0.1494  1.3618
   25SAPC  C219 3333   2.209   3.867   7.152 -0.1943 -0.2922  0.2755
   25SAPC  H19R 3334   2.099   3.876   7.134 -0.4163  0.3542  1.8636
   25SAPC  H19S 3335   2.258   3.833   7.059 -1.8984 -0.2074 -0.6881
   25SAPC  C220 3336   2.274   4.002   7.186  0.7682 -0.2508 -0.2578
   25SAPC  H20R 3337   2.382   3.985   7.205  0.9045 -2.7914 -2.9222
   25SAPC  H20S 3338   2.234   4.052   7.277  0.1150  3.1761 -2.3516
   25SAPC  H20T 3339   2.268   4.068   7.097  1.0563 -0.7170 -0.6219
   25SAPC   C33 3340   2.556   3.655   6.897 -0.8517  0.3320 -0.1452
   25SAPC   H3X 3341   2.643   3.699   6.845  0.0307 -1.2753 -0.0600
   25SAPC   H3Y 3342   2.536   3.553   6.859  0.0992  0.1102 -0.0531
   25SAPC   C34 3343   2.586   3.635   7.043 -0.0623  0.6987  0.1373
   25SAPC   H4X 3344   2.668   3.560   7.048  1.4708  2.3973  0.6183
   25SAPC   H4Y 3345   2.491   3.589   7.080  1.2015 -0.5036  2.0159
   25SAPC   C35 3346   2.627   3.754   7.135 -0.3218 -0.0944  0.4269
   25SAPC   H5X 3347   2.552   3.835   7.135 -0.3940 -0.1557 -1.3272
   25SAPC   H5Y 3348   2.721   3.800   7.097 -1.7029  1.5070 -1.0938
   25SAPC   C36 3349   2.643   3.699   7.271  0.8737 -0.0017  0.0857
   25SAPC   H6X 3350   2.745   3.661   7.290  1.5916  0.7756 -2.1434
   25SAPC   H6Y 3351   2.571   3.615   7.286 -0.3537  1.1238  0.5850
   25SAPC   C37 3352   2.610   3.799   7.379 -0.9173 -0.0347  0.1698
   25SAPC   H7X 3353   2.511   3.848   7.368 -1.0147  0.2255  2.0351
   25SAPC   H7Y 3354   2.689   3.873   7.355 -1.8634  1.0452  0.2962
   25SAPC   C38 3355   2.625   3.739   7.520 -0.0612  0.4193  0.7078
   25SAPC   H8X 3356   2.685   3.646   7.528 -0.7942 -0.1641 -0.4176
   25SAPC   H8Y 3357   2.524   3.695   7.533  0.2490 -0.6778 -0.5251
   25SAPC   C39 3358   2.680   3.828   7.630  0.2400  0.9071  0.0774
   25SAPC   H9X 3359   2.635   3.929   7.642  0.4249  1.0007 -0.0187
   25SAPC   H9Y 3360   2.788   3.848   7.620  0.4804 -0.6502 -0.6703
   25SAPC  C310 3361   2.646   3.764   7.767  0.0583  0.0442 -0.3591
   25SAPC  H10X 3362   2.682   3.659   7.762 -0.8518 -0.2291 -1.6449
   25SAPC  H10Y 3363   2.536   3.770   7.786  0.4138  1.3432  1.3892
   25SAPC  C311 3364   2.723   3.837   7.883  0.9993 -0.4737  0.8442
   25SAPC  H11X 3365   2.693   3.944   7.881  1.8569 -0.2345  0.2178
   25SAPC  H11Y 3366   2.833   3.836   7.868  1.0751 -1.3633  1.4064
   25SAPC  C312 3367   2.676   3.794   8.029 -0.3467  0.0947  0.0889
   25SAPC  H12X 3368   2.664   3.684   8.019  0.7680  0.1558 -2.2832
   25SAPC  H12Y 3369   2.572   3.827   8.051  0.6946  2.6868  1.3046
   25SAPC  C313 3370   2.768   3.832   8.141  0.0912 -0.7109  0.4360
   25SAPC  H13X 3371   2.867   3.800   8.102 -0.1750 -0.8601 -0.1221
   25SAPC  H13Y 3372   2.755   3.765   8.229 -0.8832 -0.0378  0.8148
   25SAPC  C314 3373   2.755   3.975   8.195 -0.1493  0.4204 -0.4182
   25SAPC  H14X 3374   2.650   3.988   8.229  0.0410  1.8026 -0.3047
   25SAPC  H14Y 3375   2.764   4.054   8.117 -0.1654  0.4362 -0.4037
   25SAPC  C315 3376   2.841   4.010   8.319  0.1576 -0.5721  0.2383
   25SAPC  H15X 3377   2.949   4.021   8.296 -0.8068  2.8268 -3.2353
   25SAPC  H15Y 3378   2.826   3.931   8.396 -1.8775 -1.5989 -1.1625
   25SAPC  C316 3379   2.801   4.155   8.370  0.5976  0.9175  0.0140
   25SAPC  H16X 3380   2.699   4.168   8.411  1.1370 -0.6502  1.8806
   25SAPC  H16Y 3381   2.799   4.213   8.275  1.2175 -0.1027 -0.6428
   25SAPC  C317 3382   2.895   4.218   8.476  0.6829  1.0403  0.1275
   25SAPC  H17X 3383   2.970   4.142   8.508 -0.2624  0.6352  1.4218
   25SAPC  H17Y 3384   2.831   4.239   8.564  0.0696  1.6660 -0.4682
   25SAPC  C318 3385   2.975   4.340   8.429 -0.2973  0.3359  0.3498
   25SAPC  H18X 3386   2.998   4.323   8.322 -0.5886 -1.3717  0.5450
   25SAPC  H18Y 3387   3.065   4.361   8.491  2.2348 -1.1950 -2.6575
   25SAPC  H18Z 3388   2.902   4.424   8.427  1.1373  1.5810 -1.6927
   26SAPC     N 3389   0.896   6.243   6.293 -0.2322  0.1665  0.3186
   26SAPC   C12 3390   1.026   6.162   6.315  0.4338  0.2160 -0.0150
   26SAPC  H12A 3391   1.114   6.224   6.314  0.2851  0.4205 -0.5295
   26SAPC  H12B 3392   1.037   6.091   6.234  0.3038  1.9876 -1.6334
   26SAPC   C13 3393   0.777   6.152   6.293  0.7098  1.0473  0.2075
   26SAPC  H13A 3394   0.785   6.096   6.385  1.4063  1.1387  0.1998
   26SAPC  H13B 3395   0.683   6.204   6.283  0.3349  0.4855  0.7541
   26SAPC  H13C 3396   0.790   6.086   6.209  0.3479 -1.0843  1.7862
   26SAPC   C14 3397   0.879   6.338   6.406 -0.0379 -0.0644  0.0361
   26SAPC  H14A 3398   0.795   6.400   6.379  0.0093  0.5149  1.2147
   26SAPC  H14B 3399   0.856   6.285   6.496 -1.7328  0.5489 -0.0204
   26SAPC  H14C 3400   0.959   6.411   6.411 -0.6919  0.6469  0.2183
   26SAPC   C15 3401   0.899   6.315   6.160 -0.5758  0.3274 -0.7847
   26SAPC  H15A 3402   0.802   6.354   6.132 -1.7646 -2.6520 -1.0047
   26SAPC  H15B 3403   0.978   6.388   6.152 -0.9006  0.6657 -0.8913
   26SAPC  H15C 3404   0.925   6.240   6.086  0.0293 -1.6581  1.3897
   26SAPC   C11 3405   1.041   6.089   6.442 -0.0184  1.1941  0.3444
   26SAPC  H11A 3406   1.048   6.165   6.522 -0.5928  2.3073 -0.6489
   26SAPC  H11B 3407   1.147   6.054   6.445  0.6494  2.9286 -1.8634
   26SAPC     P 3408   0.938   5.849   6.397  0.2724  0.1497 -0.0050
   26SAPC   O13 3409   0.825   5.765   6.445  0.0596  0.6300 -0.4156
   26SAPC   O14 3410   0.942   5.864   6.248  0.6743  0.3786 -0.1095
   26SAPC   O12 3411   0.942   5.988   6.460  0.1510 -0.9506 -0.1947
   26SAPC   O11 3412   1.073   5.786   6.454  0.4811  0.4034  0.1214
   26SAPC    C1 3413   1.080   5.729   6.581  0.2203  0.0097  0.2625
   26SAPC    HA 3414   1.156   5.784   6.641  1.8661 -2.5118  0.5793
   26SAPC    HB 3415   0.982   5.735   6.634  0.5290  1.4529  0.6895
   26SAPC    C2 3416   1.123   5.582   6.574 -0.2790  0.4922  0.3703
   26SAPC    HS 3417   1.067   5.539   6.487  1.8245  0.5110 -1.0351
   26SAPC   O21 3418   1.079   5.516   6.692 -0.3369 -0.2996 -0.1009
   26SAPC   C21 3419   1.112   5.390   6.718  0.3086 -0.1507  0.2415
   26SAPC   O22 3420   1.166   5.312   6.643  0.1474  0.1115 -0.4257
   26SAPC   C22 3421   1.053   5.348   6.856  0.0879 -0.3854 -0.1230
   26SAPC   H2R 3422   0.943   5.364   6.850  0.1160  0.4906  1.3051
   26SAPC   H2S 3423   1.076   5.240   6.862  0.4336 -0.4677 -2.6049
   26SAPC    C3 3424   1.277   5.571   6.550 -0.2763 -0.1309  0.5987
   26SAPC    HX 3425   1.316   5.634   6.468  1.4195  0.3456  1.7559
   26SAPC    HY 3426   1.285   5.464   6.519 -1.2709 -0.7866  2.5147
   26SAPC   O31 3427   1.344   5.592   6.676 -0.4587 -0.1509 -0.0563
   26SAPC   C31 3428   1.416   5.708   6.689 -0.1164  1.0060  0.4635
   26SAPC   O32 3429   1.422   5.793   6.602  0.1789  0.0982  0.6133
   26SAPC   C32 3430   1.466   5.722   6.829 -0.2717  0.6314  0.4512
   26SAPC   H2X 3431   1.576   5.716   6.823 -0.3621 -1.1847  0.1460
   26SAPC   H2Y 3432   1.423   5.633   6.881  0.0508  0.4981  0.4873
   26SAPC   C23 3433   1.106   5.426   6.976 -0.0228  0.6113 -0.2928
   26SAPC   H3R 3434   1.028   5.431   7.055 -1.0496 -1.0379 -1.1862
   26SAPC   H3S 3435   1.126   5.533   6.954  3.1985  0.5601  1.9721
   26SAPC   C24 3436   1.232   5.353   7.035 -0.5863 -0.1851  0.5150
   26SAPC   H4R 3437   1.313   5.351   6.959 -2.3927 -0.6921 -1.4495
   26SAPC   H4S 3438   1.201   5.247   7.052 -1.5755 -0.0461 -0.3453
   26SAPC   C25 3439   1.281   5.416   7.158  0.3470 -0.2930 -0.3224
   26SAPC   H5R 3440   1.346   5.503   7.141 -3.2205  2.2267 -1.8825
   26SAPC   C26 3441   1.254   5.368   7.279  0.3677  0.0328  0.5897
   26SAPC   H6R 3442   1.297   5.408   7.373 -1.3912 -1.7564  2.1841
   26SAPC   C27 3443   1.172   5.252   7.311  0.1786  0.4745  0.5910
   26SAPC   H7R 3444   1.093   5.232   7.236 -0.3675  0.1849  1.2428
   26SAPC   H7S 3445   1.102   5.286   7.390  0.2127  1.8536  0.0360
   26SAPC   C28 3446   1.234   5.116   7.353 -1.0322  0.1161  0.1180
   26SAPC   H8R 3447   1.242   5.048   7.267  2.5814 -0.9476  1.1920
   26SAPC   C29 3448   1.281   5.062   7.476 -0.5740  0.3217 -0.0923
   26SAPC   H9R 3449   1.327   4.962   7.471 -0.3885  0.3274  1.3606
   26SAPC  C210 3450   1.284   5.143   7.601  0.7871  0.0161  0.6568
   26SAPC  H10R 3451   1.200   5.115   7.668  0.5338 -1.2545 -0.1679
   26SAPC  H10S 3452   1.254   5.247   7.577 -0.7543 -0.2695  1.3089
   26SAPC  C211 3453   1.417   5.149   7.681  0.3741 -0.8101 -0.1403
   26SAPC  H11R 3454   1.480   5.059   7.678  0.6544 -0.6514  0.9161
   26SAPC  C212 3455   1.458   5.255   7.749 -0.0156 -0.8578  0.1155
   26SAPC  H12R 3456   1.549   5.236   7.808 -0.0372 -1.7375 -0.1234
   26SAPC  C213 3457   1.380   5.387   7.760 -0.2110 -0.2879  0.7339
   26SAPC  H13R 3458   1.272   5.368   7.781 -0.6112  0.4774 -0.5655
   26SAPC  H13S 3459   1.367   5.438   7.662 -0.4466  0.7037  1.2764
   26SAPC  C214 3460   1.421   5.487   7.864  0.3295 -0.3052 -0.2374
   26SAPC  H14R 3461   1.476   5.579   7.838 -0.3297 -0.0857 -0.8628
   26SAPC  C215 3462   1.372   5.485   7.995 -0.0933  0.6495  0.0366
   26SAPC  H15R 3463   1.413   5.554   8.070 -1.3053 -0.1748  1.4703
   26SAPC  C216 3464   1.284   5.381   8.064 -0.7136 -0.2078 -0.2565
   26SAPC  H16R 3465   1.255   5.300   7.994 -0.1778 -0.8123  0.2132
   26SAPC  H16S 3466   1.191   5.433   8.099 -0.9505 -0.5497 -0.3728
   26SAPC  C217 3467   1.347   5.322   8.194 -0.2578  0.7570 -0.8826
   26SAPC  H17R 3468   1.275   5.258   8.249  0.5766  0.6355  0.0863
   26SAPC  H17S 3469   1.385   5.406   8.257 -0.8511 -0.5880  1.3361
   26SAPC  C218 3470   1.473   5.233   8.153  0.0579 -0.2465 -1.3736
   26SAPC  H18R 3471   1.554   5.309   8.143  0.1698 -0.3124 -0.9593
   26SAPC  H18S 3472   1.454   5.187   8.054 -0.6448 -1.7069 -0.5785
   26SAPC  C219 3473   1.516   5.117   8.250 -0.0059  1.3170  0.0717
   26SAPC  H19R 3474   1.586   5.048   8.197 -1.2355  0.1944 -0.1163
   26SAPC  H19S 3475   1.419   5.064   8.261  0.2591  0.6122 -0.8965
   26SAPC  C220 3476   1.572   5.159   8.383 -0.3332  0.2239  0.2877
   26SAPC  H20R 3477   1.496   5.228   8.426  0.5799  0.1981  1.9838
   26SAPC  H20S 3478   1.667   5.215   8.372 -1.6172  2.3273 -0.4293
   26SAPC  H20T 3479   1.586   5.073   8.452 -2.4169  1.5004  2.4048
   26SAPC   C33 3480   1.431   5.857   6.891 -0.5427  0.4634 -0.4187
   26SAPC   H3X 3481   1.323   5.884   6.894 -0.9908 -1.3917  1.4597
   26SAPC   H3Y 3482   1.481   5.925   6.819  0.4715 -0.2624 -0.4179
   26SAPC   C34 3483   1.490   5.875   7.036  0.3545  0.6295  0.5017
   26SAPC   H4X 3484   1.463   5.975   7.078  1.6248  1.4280 -0.5508
   26SAPC   H4Y 3485   1.599   5.890   7.023  0.1911 -0.0882 -1.8842
   26SAPC   C35 3486   1.458   5.763   7.134  0.1111  0.6809  0.3021
   26SAPC   H5X 3487   1.487   5.665   7.091 -0.5083  0.9476 -0.7195
   26SAPC   H5Y 3488   1.348   5.759   7.143  0.1175 -0.6794 -0.0943
   26SAPC   C36 3489   1.524   5.786   7.272  0.2388 -0.1645  0.0608
   26SAPC   H6X 3490   1.463   5.865   7.321 -0.9555 -1.4031  0.6105
   26SAPC   H6Y 3491   1.627   5.822   7.256  0.4145 -0.1745  1.1276
   26SAPC   C37 3492   1.555   5.667   7.360  0.0809  0.4856 -0.2631
   26SAPC   H7X 3493   1.608   5.599   7.291 -2.3280 -0.0342 -1.6499
   26SAPC   H7Y 3494   1.459   5.617   7.384  1.5750 -1.7307  1.2903
   26SAPC   C38 3495   1.631   5.684   7.488 -0.6363  0.5332  0.7256
   26SAPC   H8X 3496   1.734   5.721   7.471 -0.7354 -0.5420 -2.6251
   26SAPC   H8Y 3497   1.636   5.583   7.533  0.8041  0.2822 -0.0120
   26SAPC   C39 3498   1.587   5.796   7.576  0.0101 -0.4711 -0.5672
   26SAPC   H9X 3499   1.481   5.790   7.608  0.3940  1.0051  1.0444
   26SAPC   H9Y 3500   1.590   5.890   7.517  0.9027 -1.5118 -2.2415
   26SAPC  C310 3501   1.671   5.827   7.706  0.2274 -0.1966  0.1466
   26SAPC  H10X 3502   1.759   5.889   7.680  0.5379  0.2438  2.1683
   26SAPC  H10Y 3503   1.710   5.734   7.753  0.6948  0.1746  0.5037
   26SAPC  C311 3504   1.581   5.911   7.800 -0.0768 -0.8203 -0.4057
   26SAPC  H11X 3505   1.491   5.848   7.818 -0.0057 -0.0060  3.0386
   26SAPC  H11Y 3506   1.541   5.996   7.740  0.8989 -1.4186 -1.9404
   26SAPC  C312 3507   1.653   5.950   7.925  0.1794  0.2513 -0.0559
   26SAPC  H12X 3508   1.677   6.059   7.924  0.9798  0.0743 -0.1410
   26SAPC  H12Y 3509   1.752   5.904   7.946 -0.6983  0.1798  4.4377
   26SAPC  C313 3510   1.563   5.920   8.047 -0.6484 -0.0596  0.1737
   26SAPC  H13X 3511   1.537   5.812   8.050  1.1209 -0.5096 -0.1692
   26SAPC  H13Y 3512   1.478   5.991   8.039  1.4339  2.2780 -2.1513
   26SAPC  C314 3513   1.631   5.945   8.181 -0.4763  0.3465 -0.9309
   26SAPC  H14X 3514   1.642   6.053   8.205 -0.0709  0.1424 -0.1717
   26SAPC  H14Y 3515   1.735   5.906   8.181 -0.8680 -0.9166  3.1733
   26SAPC  C315 3516   1.560   5.890   8.306 -0.3270 -0.2388  0.1668
   26SAPC  H15X 3517   1.543   5.781   8.296  1.2736 -0.3071 -2.0742
   26SAPC  H15Y 3518   1.465   5.949   8.310 -0.0776  0.1838 -0.0656
   26SAPC  C316 3519   1.633   5.919   8.436  0.1920 -0.6977 -0.6041
   26SAPC  H16X 3520   1.672   6.022   8.436  0.4516 -0.7720  1.3484
   26SAPC  H16Y 3521   1.721   5.853   8.452  0.8477 -0.3697 -2.6685
   26SAPC  C317 3522   1.546   5.892   8.561  0.0438  0.6398  0.2446
   26SAPC  H17X 3523   1.510   5.787   8.561  0.6460  0.4317 -0.0250
   26SAPC  H17Y 3524   1.457   5.957   8.572 -0.0049  0.0883  3.5515
   26SAPC  C318 3525   1.628   5.910   8.689  0.0272  0.8584 -0.1786
   26SAPC  H18X 3526   1.659   6.016   8.697  1.3093  0.4955 -0.0917
   26SAPC  H18Y 3527   1.713   5.839   8.675 -1.4304 -0.8545 -0.5352
   26SAPC  H18Z 3528   1.567   5.883   8.778 -1.3536 -1.4887 -1.7793
   27SAPC     N 3529   5.848   5.818   6.551  0.1885 -0.3849  0.5251
   27SAPC   C12 3530   5.910   5.940   6.620  0.3415 -0.6705  0.2849
   27SAPC  H12A 3531   5.876   5.949   6.722  2.0934  3.4728  0.5750
   27SAPC  H12B 3532   5.883   6.029   6.565  0.2721  0.3449  1.9528
   27SAPC   C13 3533   5.896   5.811   6.412 -0.4434 -0.2346  0.0161
   27SAPC  H13A 3534   5.854   5.724   6.364  0.1116 -1.6519  2.0270
   27SAPC  H13B 3535   5.869   5.905   6.367  0.3838  2.6719  5.2786
   27SAPC  H13C 3536   6.002   5.796   6.401 -0.5677 -0.7479 -0.5368
   27SAPC   C14 3537   5.874   5.698   6.630 -0.4567  0.5026 -0.8751
   27SAPC  H14A 3538   5.830   5.609   6.587  0.8917 -1.1973  1.1475
   27SAPC  H14B 3539   5.976   5.693   6.663 -0.4610  1.4049 -0.7204
   27SAPC  H14C 3540   5.818   5.701   6.722 -0.5923  0.7974 -0.9666
   27SAPC   C15 3541   5.703   5.836   6.538  0.3077 -0.4955 -0.0043
   27SAPC  H15A 3542   5.674   5.893   6.451  1.9098  0.2054 -0.0997
   27SAPC  H15B 3543   5.650   5.743   6.521 -0.0619 -0.3346  0.2606
   27SAPC  H15C 3544   5.654   5.888   6.619  0.3406 -0.5210  0.0313
   27SAPC   C11 3545   6.068   5.946   6.609  0.1437 -0.2339 -0.5849
   27SAPC  H11A 3546   6.104   5.969   6.507  1.9581  0.2219  0.1411
   27SAPC  H11B 3547   6.105   5.845   6.634  0.6572 -0.1128 -0.8466
   27SAPC     P 3548   6.155   6.019   6.840  0.0643  0.3717 -0.0950
   27SAPC   O13 3549   6.294   5.964   6.831 -0.2324 -0.2259  0.5583
   27SAPC   O14 3550   6.144   6.140   6.929 -0.3719 -0.3984  0.4709
   27SAPC   O12 3551   6.100   6.053   6.703 -0.0143  0.7185  0.0095
   27SAPC   O11 3552   6.064   5.906   6.893 -1.1082 -0.0671  0.8437
   27SAPC    C1 3553   6.076   5.869   7.035 -0.0238 -0.1664  0.6495
   27SAPC    HA 3554   6.184   5.875   7.060 -0.1732  0.5694  1.1499
   27SAPC    HB 3555   6.010   5.931   7.100  0.7722  4.2466 -2.5727
   27SAPC    C2 3556   6.031   5.729   7.075 -0.6649 -0.1234  0.0914
   27SAPC    HS 3557   5.924   5.727   7.043 -0.3618  0.2890 -0.9575
   27SAPC   O21 3558   6.059   5.720   7.215 -0.1346 -0.3941  0.2397
   27SAPC   C21 3559   5.976   5.639   7.280  0.0092  0.0866  0.8849
   27SAPC   O22 3560   5.870   5.601   7.234  0.2562  0.2138  0.2854
   27SAPC   C22 3561   6.025   5.598   7.421  0.3934 -0.7047 -0.1471
   27SAPC   H2R 3562   6.048   5.693   7.475  1.6595  0.1413 -2.1365
   27SAPC   H2S 3563   5.938   5.548   7.470 -0.7164 -1.5352 -2.9064
   27SAPC    C3 3564   6.115   5.621   6.993 -0.3059 -0.2754 -0.1919
   27SAPC    HX 3565   6.217   5.629   7.035 -0.4959  0.8637  0.0728
   27SAPC    HY 3566   6.112   5.639   6.883  1.7080  0.8587 -0.0822
   27SAPC   O31 3567   6.077   5.484   7.012  0.5821 -0.1884 -0.2208
   27SAPC   C31 3568   5.970   5.448   6.945 -0.2684  0.5297 -0.1354
   27SAPC   O32 3569   5.905   5.514   6.869  0.3124  0.7202  0.5744
   27SAPC   C32 3570   5.957   5.302   6.976  0.4650  0.4350  0.4278
   27SAPC   H2X 3571   6.051   5.242   6.969 -0.9687 -1.7336 -0.5981
   27SAPC   H2Y 3572   5.895   5.264   6.892  0.3938 -0.3225  0.8252
   27SAPC   C23 3573   6.139   5.495   7.423  1.1579  0.0902 -0.6303
   27SAPC   H3R 3574   6.229   5.541   7.376  0.3027  3.9295  1.2619
   27SAPC   H3S 3575   6.103   5.404   7.372  0.3123 -0.3847  0.7723
   27SAPC   C24 3576   6.182   5.444   7.562 -0.1527  0.0742  0.2755
   27SAPC   H4R 3577   6.216   5.532   7.621 -0.7324  0.7748 -0.4329
   27SAPC   H4S 3578   6.269   5.377   7.545 -0.8969 -0.7298 -0.3464
   27SAPC   C25 3579   6.082   5.375   7.641  0.4883  0.4918  0.2999
   27SAPC   H5R 3580   6.020   5.302   7.587  0.7044  0.5721 -0.0560
   27SAPC   C26 3581   6.061   5.377   7.775  0.1331 -0.2415  0.0269
   27SAPC   H6R 3582   5.972   5.323   7.807 -1.2239  1.9009 -0.0326
   27SAPC   C27 3583   6.133   5.469   7.873  0.2039 -0.0531 -0.3371
   27SAPC   H7R 3584   6.073   5.501   7.961  0.7395  0.9693 -0.3291
   27SAPC   H7S 3585   6.156   5.564   7.820  0.1305  0.7747  1.0873
   27SAPC   C28 3586   6.266   5.421   7.918 -0.4597  0.9348 -0.4310
   27SAPC   H8R 3587   6.344   5.459   7.851  1.2903 -2.3142 -0.3051
   27SAPC   C29 3588   6.298   5.352   8.036 -0.7971 -0.2650 -0.6162
   27SAPC   H9R 3589   6.402   5.316   8.046  0.1985  2.6751  0.2035
   27SAPC  C210 3590   6.192   5.305   8.137  0.4240 -0.1255 -0.3608
   27SAPC  H10R 3591   6.203   5.194   8.136 -0.2477 -0.1959 -0.6964
   27SAPC  H10S 3592   6.088   5.331   8.107  0.5595  1.1620  0.2726
   27SAPC  C211 3593   6.227   5.367   8.271 -0.0357 -0.0742 -0.0596
   27SAPC  H11R 3594   6.227   5.476   8.262  1.1208 -0.3977 -5.1556
   27SAPC  C212 3595   6.235   5.309   8.391 -0.0242  0.2733  0.4596
   27SAPC  H12R 3596   6.244   5.376   8.478  1.2314 -0.9765  1.3157
   27SAPC  C213 3597   6.207   5.168   8.417  0.1808  0.4720 -0.4357
   27SAPC  H13R 3598   6.275   5.146   8.502  0.7211  0.8228 -0.7793
   27SAPC  H13S 3599   6.237   5.094   8.339 -0.4737  0.5576 -0.7736
   27SAPC  C214 3600   6.060   5.156   8.442 -0.1097  0.0702 -0.2346
   27SAPC  H14R 3601   5.991   5.223   8.389 -0.9226  0.1082  0.8502
   27SAPC  C215 3602   6.005   5.088   8.553 -0.6112 -0.3132  0.0507
   27SAPC  H15R 3603   5.898   5.072   8.570 -0.1681 -1.7229  1.6682
   27SAPC  C216 3604   6.090   5.012   8.655 -0.4335 -0.1123  0.3713
   27SAPC  H16R 3605   6.191   5.058   8.660 -0.0348 -0.8681 -0.6040
   27SAPC  H16S 3606   6.116   4.916   8.605 -1.5099 -0.0579 -0.3287
   27SAPC  C217 3607   6.020   4.995   8.795  0.5708  1.2197  0.5331
   27SAPC  H17R 3608   5.911   4.982   8.778  0.6877 -0.5902  1.1036
   27SAPC  H17S 3609   6.034   5.099   8.832  2.5031  2.9054 -4.5448
   27SAPC  C218 3610   6.100   4.892   8.879  0.1576  0.0118 -0.1829
   27SAPC  H18R 3611   6.096   4.920   8.987 -0.4191 -0.2124 -0.1453
   27SAPC  H18S 3612   6.203   4.877   8.841 -0.6719 -2.6571 -1.4196
   27SAPC  C219 3613   6.039   4.749   8.881 -0.2624  0.6532 -0.9263
   27SAPC  H19R 3614   6.035   4.705   8.779  0.0282  2.0849 -1.5646
   27SAPC  H19S 3615   5.935   4.764   8.918 -0.0066  1.7942 -0.6537
   27SAPC  C220 3616   6.111   4.660   8.973  0.1529  0.0395 -0.0324
   27SAPC  H20R 3617   6.219   4.653   8.949 -0.1487  0.1861 -1.5032
   27SAPC  H20S 3618   6.079   4.555   8.989 -0.9589  0.3272 -0.3642
   27SAPC  H20T 3619   6.102   4.700   9.076 -0.2637 -0.0523 -0.0311
   27SAPC   C33 3620   5.896   5.279   7.119 -0.4837  0.0110 -1.1681
   27SAPC   H3X 3621   5.811   5.348   7.136 -2.2092 -1.9499 -1.6542
   27SAPC   H3Y 3622   5.974   5.310   7.192 -1.7228  3.5371 -1.2511
   27SAPC   C34 3623   5.852   5.137   7.149  0.1950 -0.0618 -0.2215
   27SAPC   H4X 3624   5.934   5.063   7.165  0.1891 -0.3528 -1.4780
   27SAPC   H4Y 3625   5.791   5.105   7.061  1.7225 -2.2879 -0.5320
   27SAPC   C35 3626   5.756   5.115   7.261 -0.4997 -0.2008 -0.3600
   27SAPC   H5X 3627   5.712   5.014   7.256  0.2084 -0.6532  1.8879
   27SAPC   H5Y 3628   5.675   5.191   7.263  0.1475  0.4823  0.8741
   27SAPC   C36 3629   5.826   5.131   7.398  0.1864  0.2342  0.7816
   27SAPC   H6X 3630   5.859   5.235   7.417 -1.4363  0.8303  0.4607
   27SAPC   H6Y 3631   5.919   5.073   7.381 -0.1117 -0.1697  0.5394
   27SAPC   C37 3632   5.745   5.075   7.512  0.5116  0.5571  0.9112
   27SAPC   H7X 3633   5.734   4.966   7.493 -2.6764  0.4645  2.8865
   27SAPC   H7Y 3634   5.645   5.125   7.515  0.3823  0.2948  0.9859
   27SAPC   C38 3635   5.830   5.097   7.637  0.3620 -0.2000  0.2744
   27SAPC   H8X 3636   5.780   5.182   7.689 -0.5624  0.3511 -1.4760
   27SAPC   H8Y 3637   5.936   5.119   7.613  0.6737 -1.6008  0.3422
   27SAPC   C39 3638   5.814   4.977   7.736 -0.5090  0.2403  0.3668
   27SAPC   H9X 3639   5.869   4.887   7.701  0.9367  0.3059  2.3823
   27SAPC   H9Y 3640   5.708   4.944   7.738  0.1214 -1.8175  1.3711
   27SAPC  C310 3641   5.862   5.000   7.882 -0.5036 -0.0902  0.7237
   27SAPC  H10X 3642   5.804   5.078   7.938  1.8248  1.5918  0.8607
   27SAPC  H10Y 3643   5.964   5.042   7.895 -1.0708  1.1468  1.2583
   27SAPC  C311 3644   5.846   4.868   7.966  0.4490 -0.5612 -0.5477
   27SAPC  H11X 3645   5.929   4.798   7.942 -0.2813 -1.4115 -0.6140
   27SAPC  H11Y 3646   5.750   4.817   7.943  0.6630 -0.4384 -1.7400
   27SAPC  C312 3647   5.857   4.884   8.117 -0.3610  0.0459  0.7721
   27SAPC  H12X 3648   5.777   4.952   8.154  0.8419  2.6089 -1.2117
   27SAPC  H12Y 3649   5.953   4.934   8.138  1.1246 -1.2880 -2.5346
   27SAPC  C313 3650   5.850   4.756   8.204  0.0389 -0.3515 -0.0114
   27SAPC  H13X 3651   5.949   4.708   8.216 -0.1969 -0.6532  0.7691
   27SAPC  H13Y 3652   5.777   4.684   8.161  0.5844 -0.4698 -0.7406
   27SAPC  C314 3653   5.792   4.797   8.341 -0.9526  0.0330 -0.4867
   27SAPC  H14X 3654   5.683   4.812   8.330 -1.1886 -1.2558  0.0614
   27SAPC  H14Y 3655   5.833   4.894   8.377 -2.8279  0.5400  0.3421
   27SAPC  C315 3656   5.804   4.691   8.447  0.5668 -0.1912 -0.0735
   27SAPC  H15X 3657   5.908   4.673   8.483  0.5183 -0.4464 -0.0562
   27SAPC  H15Y 3658   5.763   4.591   8.418  1.1141 -0.1712 -0.9152
   27SAPC  C316 3659   5.730   4.733   8.583  0.5291  0.2055 -0.6376
   27SAPC  H16X 3660   5.624   4.762   8.564  0.2661 -0.4123 -0.1318
   27SAPC  H16Y 3661   5.784   4.821   8.625 -0.4377  1.0304 -1.1117
   27SAPC  C317 3662   5.731   4.619   8.685  1.0149 -0.0211 -0.1773
   27SAPC  H17X 3663   5.840   4.599   8.688  1.0620  0.2536 -0.0249
   27SAPC  H17Y 3664   5.676   4.532   8.644 -0.5245  0.4962  0.7532
   27SAPC  C318 3665   5.669   4.662   8.822 -0.0536 -0.3087  0.2126
   27SAPC  H18X 3666   5.733   4.744   8.861  0.9530 -1.6918  1.5441
   27SAPC  H18Y 3667   5.676   4.579   8.896 -1.0369  0.7638  1.5477
   27SAPC  H18Z 3668   5.565   4.699   8.808 -0.8341 -0.8789  3.9140
   28SAPC     N 3669   5.650   2.374   6.226  0.8026 -0.4915  0.6713
   28SAPC   C12 3670   5.524   2.305   6.289 -0.5560 -0.2379  0.6730
   28SAPC  H12A 3671   5.549   2.209   6.330 -0.7750 -1.6609 -2.4177
   28SAPC  H12B 3672   5.452   2.282   6.212 -2.6765 -0.1343  2.5679
   28SAPC   C13 3673   5.722   2.282   6.134 -0.4888  0.1169  0.7717
   28SAPC  H13A 3674   5.656   2.263   6.051 -0.3537 -1.8528  1.0925
   28SAPC  H13B 3675   5.808   2.331   6.090 -1.4234  1.7294  0.6977
   28SAPC  H13C 3676   5.768   2.193   6.174  0.3412  0.0697 -0.2442
   28SAPC   C14 3677   5.590   2.488   6.136 -0.1916  1.0435  0.4385
   28SAPC  H14A 3678   5.513   2.531   6.198 -1.1939  0.4445 -0.3605
   28SAPC  H14B 3679   5.665   2.557   6.103  0.2203 -0.3488 -1.7088
   28SAPC  H14C 3680   5.543   2.437   6.052 -0.5418  0.3882  1.0236
   28SAPC   C15 3681   5.736   2.421   6.329 -0.4590 -0.2152  0.0953
   28SAPC  H15A 3682   5.822   2.471   6.287 -2.6017  1.7901 -2.0558
   28SAPC  H15B 3683   5.673   2.488   6.386  0.6196  0.7234  0.1924
   28SAPC  H15C 3684   5.759   2.337   6.393  1.5025 -0.7030 -1.2243
   28SAPC   C11 3685   5.463   2.380   6.403  0.2805  0.0292 -0.2315
   28SAPC  H11A 3686   5.532   2.373   6.490 -0.0588  0.1943  0.0526
   28SAPC  H11B 3687   5.365   2.340   6.439 -0.1741  1.2497 -0.0798
   28SAPC     P 3688   5.457   2.637   6.456 -0.2789 -0.2129 -0.1262
   28SAPC   O13 3689   5.595   2.639   6.500  0.1620 -0.4681  0.2361
   28SAPC   O14 3690   5.407   2.757   6.386 -0.4009 -0.0194 -0.1661
   28SAPC   O12 3691   5.432   2.515   6.366  0.2379  0.0554  0.1377
   28SAPC   O11 3692   5.368   2.600   6.574  0.4518  0.1535 -0.0905
   28SAPC    C1 3693   5.388   2.663   6.699  0.3165 -0.0028 -0.2995
   28SAPC    HA 3694   5.495   2.650   6.727  1.2472  1.6654 -2.8959
   28SAPC    HB 3695   5.365   2.772   6.695 -1.3561 -0.2669  1.3162
   28SAPC    C2 3696   5.305   2.594   6.804 -0.5599  0.0546 -0.3462
   28SAPC    HS 3697   5.197   2.616   6.789 -0.1957  0.8759 -1.9422
   28SAPC   O21 3698   5.350   2.643   6.934  0.0656  0.1834 -0.3931
   28SAPC   C21 3699   5.333   2.775   6.953  0.0976  0.3121 -0.6621
   28SAPC   O22 3700   5.275   2.850   6.881 -0.3633  0.0095  0.1903
   28SAPC   C22 3701   5.418   2.809   7.077 -0.5337 -0.1922  0.5985
   28SAPC   H2R 3702   5.503   2.738   7.084 -0.6757 -0.3091  1.1832
   28SAPC   H2S 3703   5.458   2.912   7.079 -0.9680  0.0743 -1.9169
   28SAPC    C3 3704   5.319   2.432   6.798  0.0450 -0.6719  0.0242
   28SAPC    HX 3705   5.426   2.415   6.770  0.8210  0.3922  2.1938
   28SAPC    HY 3706   5.257   2.394   6.715 -1.9040  1.9299  0.2420
   28SAPC   O31 3707   5.280   2.365   6.924  0.1404  0.2493  0.2008
   28SAPC   C31 3708   5.158   2.394   6.970 -0.5578 -0.2850  0.3995
   28SAPC   O32 3709   5.067   2.446   6.911  0.3212  0.2920  0.0436
   28SAPC   C32 3710   5.145   2.329   7.112 -0.0141 -0.8212 -0.0296
   28SAPC   H2X 3711   5.196   2.394   7.186  2.1508 -2.7374  0.2396
   28SAPC   H2Y 3712   5.192   2.228   7.112 -1.5460 -1.5642 -1.2192
   28SAPC   C23 3713   5.346   2.779   7.204 -0.1649  0.4816  0.4564
   28SAPC   H3R 3714   5.287   2.687   7.187 -0.7164  0.7726  0.8137
   28SAPC   H3S 3715   5.274   2.860   7.228  0.6373  1.1170  0.7563
   28SAPC   C24 3716   5.442   2.750   7.323  0.0538 -0.2549 -0.0725
   28SAPC   H4R 3717   5.535   2.696   7.295  0.9067  1.1535 -0.0442
   28SAPC   H4S 3718   5.492   2.847   7.343 -0.1470 -0.1349 -0.1470
   28SAPC   C25 3719   5.368   2.705   7.448  0.1690 -0.8211 -0.8474
   28SAPC   H5R 3720   5.293   2.627   7.428 -1.9390 -0.2211  4.0379
   28SAPC   C26 3721   5.374   2.765   7.571  0.1467 -0.1631 -0.2394
   28SAPC   H6R 3722   5.310   2.722   7.649 -1.5117  1.7513 -0.5229
   28SAPC   C27 3723   5.455   2.889   7.606  0.2479 -0.2478 -0.6997
   28SAPC   H7R 3724   5.541   2.902   7.537  1.1490  2.0594  0.8225
   28SAPC   H7S 3725   5.511   2.883   7.701 -2.1530 -2.7603  0.6514
   28SAPC   C28 3726   5.361   3.012   7.617  0.5602  0.2621  0.2648
   28SAPC   H8R 3727   5.323   3.047   7.520  0.2003  0.4955  0.4893
   28SAPC   C29 3728   5.299   3.049   7.730  0.2815 -0.2199  0.3777
   28SAPC   H9R 3729   5.213   3.117   7.726  0.9786  0.5505 -2.5461
   28SAPC  C210 3730   5.324   2.995   7.866  0.2333 -0.1875  0.2106
   28SAPC  H10R 3731   5.358   3.080   7.929  0.5440 -0.2364  0.1090
   28SAPC  H10S 3732   5.403   2.917   7.867  1.2506  0.8402  0.2650
   28SAPC  C211 3733   5.202   2.942   7.942  0.8743 -0.1108  0.5222
   28SAPC  H11R 3734   5.142   3.020   7.992  0.2113  0.3402 -0.9479
   28SAPC  C212 3735   5.172   2.813   7.974  0.1731  0.2097  0.4625
   28SAPC  H12R 3736   5.087   2.797   8.043 -0.2624 -2.6758 -0.6709
   28SAPC  C213 3737   5.251   2.690   7.941 -0.4537  0.0100  0.2714
   28SAPC  H13R 3738   5.261   2.675   7.831  0.8919 -1.0469  0.5266
   28SAPC  H13S 3739   5.187   2.601   7.960  0.0884 -0.2367  0.9713
   28SAPC  C214 3740   5.386   2.658   7.997 -0.0753  0.2448  0.1057
   28SAPC  H14R 3741   5.450   2.598   7.931 -1.5179 -1.2601  0.0435
   28SAPC  C215 3742   5.438   2.683   8.117  0.3209  0.3372  0.9891
   28SAPC  H15R 3743   5.534   2.635   8.142 -2.1572 -3.9592  2.7497
   28SAPC  C216 3744   5.377   2.752   8.233 -0.2150  0.2156  0.0519
   28SAPC  H16R 3745   5.267   2.767   8.230 -0.5946 -2.4161 -0.4539
   28SAPC  H16S 3746   5.421   2.853   8.245 -2.5950  1.2389  0.3956
   28SAPC  C217 3747   5.411   2.678   8.371 -0.3519  0.4405 -0.4960
   28SAPC  H17R 3748   5.384   2.570   8.367  2.3091 -0.2245 -1.9687
   28SAPC  H17S 3749   5.355   2.726   8.453  0.2671 -0.9721  0.7810
   28SAPC  C218 3750   5.564   2.696   8.400  0.7175  0.2318  0.1662
   28SAPC  H18R 3751   5.591   2.801   8.421  1.5986  0.4175 -1.8429
   28SAPC  H18S 3752   5.622   2.664   8.311  2.7295  1.5837  0.9492
   28SAPC  C219 3753   5.617   2.600   8.512  1.0211 -0.4219  0.6274
   28SAPC  H19R 3754   5.544   2.595   8.596 -0.2247  1.5564 -0.3254
   28SAPC  H19S 3755   5.701   2.665   8.543  0.8949 -1.0976  2.4671
   28SAPC  C220 3756   5.667   2.464   8.462  0.0720  0.1391  0.5605
   28SAPC  H20R 3757   5.588   2.387   8.450  0.3027 -0.7401  4.0889
   28SAPC  H20S 3758   5.745   2.421   8.529  1.0951 -1.5663 -1.6232
   28SAPC  H20T 3759   5.710   2.476   8.360  0.4283  0.6403  0.7705
   28SAPC   C33 3760   5.004   2.308   7.159  0.2897  0.2642  0.3292
   28SAPC   H3X 3761   4.952   2.250   7.080 -2.2253 -1.1637  2.9407
   28SAPC   H3Y 3762   4.953   2.406   7.165  1.0532  0.6995 -0.2480
   28SAPC   C34 3763   4.994   2.240   7.292 -0.0585  0.1682 -0.7440
   28SAPC   H4X 3764   5.025   2.133   7.283 -1.4315 -0.1211 -2.4184
   28SAPC   H4Y 3765   4.887   2.227   7.317 -0.4792  1.6431 -1.6835
   28SAPC   C35 3766   5.070   2.311   7.409  0.9253  0.3681  0.2064
   28SAPC   H5X 3767   5.037   2.417   7.423 -1.3412  0.0858 -2.6487
   28SAPC   H5Y 3768   5.181   2.307   7.402  0.9586  0.0096  0.8516
   28SAPC   C36 3769   5.039   2.245   7.548  0.1427 -0.6397 -0.3417
   28SAPC   H6X 3770   5.130   2.195   7.587  0.4451 -1.7426 -2.3441
   28SAPC   H6Y 3771   4.957   2.170   7.536 -2.9722  2.4329  1.0345
   28SAPC   C37 3772   5.004   2.342   7.656  0.0574 -0.5278  0.5098
   28SAPC   H7X 3773   4.915   2.400   7.623  2.0122  0.6699 -2.8835
   28SAPC   H7Y 3774   5.092   2.408   7.670 -0.3097  0.2801 -0.9994
   28SAPC   C38 3775   4.977   2.287   7.801 -0.3512  0.0615 -0.5512
   28SAPC   H8X 3776   4.877   2.239   7.810  0.7090 -2.1135 -0.1506
   28SAPC   H8Y 3777   4.969   2.379   7.862  0.3623 -0.0107 -0.3425
   28SAPC   C39 3778   5.084   2.206   7.872 -0.4955 -0.3069 -0.1036
   28SAPC   H9X 3779   5.141   2.153   7.794  0.3815  0.7460 -0.1899
   28SAPC   H9Y 3780   5.037   2.129   7.937 -0.1779 -0.7975 -0.4532
   28SAPC  C310 3781   5.167   2.294   7.966  0.4857  0.3980 -0.3075
   28SAPC  H10X 3782   5.105   2.361   8.030 -1.4636 -2.6824  1.1746
   28SAPC  H10Y 3783   5.230   2.355   7.899  0.6677  0.2646 -0.2564
   28SAPC  C311 3784   5.254   2.217   8.062 -1.2070 -0.4921 -0.5332
   28SAPC  H11X 3785   5.305   2.146   7.994 -0.4974  0.5053 -1.0596
   28SAPC  H11Y 3786   5.202   2.147   8.131  0.0224 -0.9284 -0.0347
   28SAPC  C312 3787   5.345   2.299   8.155 -0.7007 -0.3364 -0.0109
   28SAPC  H12X 3788   5.287   2.376   8.211 -0.8127  1.1656 -2.1427
   28SAPC  H12Y 3789   5.409   2.359   8.088 -0.2198 -2.8250 -1.8454
   28SAPC  C313 3790   5.420   2.219   8.259 -0.2215  0.3243  0.4187
   28SAPC  H13X 3791   5.345   2.170   8.325  0.3180  1.9355  2.2686
   28SAPC  H13Y 3792   5.463   2.295   8.328  0.8202 -0.2601  0.4159
   28SAPC  C314 3793   5.529   2.118   8.209 -0.2144  0.5720  0.3730
   28SAPC  H14X 3794   5.602   2.179   8.152 -0.9013  2.8217  1.8385
   28SAPC  H14Y 3795   5.487   2.047   8.134 -0.7271  2.1654 -0.8915
   28SAPC  C315 3796   5.584   2.034   8.330  0.1185 -1.0950  0.4459
   28SAPC  H15X 3797   5.511   1.966   8.380 -1.0576  1.3295  2.1253
   28SAPC  H15Y 3798   5.624   2.101   8.408 -0.8739  0.8558 -0.6754
   28SAPC  C316 3799   5.702   1.949   8.283 -0.7954 -0.2763 -0.1259
   28SAPC  H16X 3800   5.768   2.022   8.233 -2.2521  1.2265  0.1093
   28SAPC  H16Y 3801   5.658   1.875   8.212  1.2932 -0.5687 -1.1346
   28SAPC  C317 3802   5.780   1.865   8.386 -0.6324 -0.1363  0.3615
   28SAPC  H17X 3803   5.712   1.787   8.426 -1.6620  0.9404  0.7486
   28SAPC  H17Y 3804   5.797   1.929   8.475 -0.7911 -0.9397  0.9766
   28SAPC  C318 3805   5.914   1.802   8.352  0.8453  0.0169  0.1659
   28SAPC  H18X 3806   5.912   1.763   8.248  0.3142  0.5686 -0.0348
   28SAPC  H18Y 3807   5.952   1.734   8.431  2.5791  2.7248  1.7741
   28SAPC  H18Z 3808   5.985   1.888   8.344  0.2540  0.3443 -1.7993
   29SAPC     N 3809   1.642   6.495   6.208 -0.3647  0.4051  0.6879
   29SAPC   C12 3810   1.605   6.375   6.301  0.1768  0.0585 -0.1870
   29SAPC  H12A 3811   1.697   6.322   6.319 -0.5410 -0.9726  0.5288
   29SAPC  H12B 3812   1.529   6.316   6.251 -1.5258  1.9920  0.0649
   29SAPC   C13 3813   1.710   6.455   6.084  0.6648 -0.3640 -0.8978
   29SAPC  H13A 3814   1.655   6.381   6.028 -2.1854  0.1061  1.1716
   29SAPC  H13B 3815   1.717   6.538   6.014 -2.0014  0.5506 -0.1445
   29SAPC  H13C 3816   1.810   6.419   6.104  0.0428 -1.0509  1.0616
   29SAPC   C14 3817   1.515   6.564   6.162 -0.1924  0.5688 -0.0111
   29SAPC  H14A 3818   1.541   6.644   6.094 -1.2077 -0.0741 -1.1756
   29SAPC  H14B 3819   1.443   6.501   6.112 -0.3687  1.7973 -1.3572
   29SAPC  H14C 3820   1.468   6.611   6.248  1.9179  0.8345  1.0402
   29SAPC   C15 3821   1.726   6.595   6.282 -0.1964  0.1362  0.2235
   29SAPC  H15A 3822   1.668   6.629   6.367  0.0071 -1.1688  0.9003
   29SAPC  H15B 3823   1.819   6.553   6.316 -1.0409 -2.6825 -0.7810
   29SAPC  H15C 3824   1.741   6.681   6.219 -0.3982 -1.2868 -1.8156
   29SAPC   C11 3825   1.547   6.411   6.446  0.1413 -0.2520  0.2266
   29SAPC  H11A 3826   1.617   6.473   6.505 -1.1731 -0.0748  1.6078
   29SAPC  H11B 3827   1.530   6.317   6.502  2.7263 -0.7328  0.2609
   29SAPC     P 3828   1.299   6.418   6.413 -0.4424  0.6681 -0.2412
   29SAPC   O13 3829   1.209   6.473   6.314  0.1680 -0.4444 -0.0283
   29SAPC   O14 3830   1.327   6.278   6.389  0.1475  0.0718  0.4552
   29SAPC   O12 3831   1.433   6.494   6.423 -0.3273  0.4541  0.3494
   29SAPC   O11 3832   1.220   6.426   6.554  0.6572  0.3546  0.3011
   29SAPC    C1 3833   1.227   6.544   6.633  0.0239 -0.2305  0.1497
   29SAPC    HA 3834   1.332   6.559   6.666 -0.2285  2.0626 -0.0308
   29SAPC    HB 3835   1.171   6.627   6.585 -0.2848  0.2443  1.3388
   29SAPC    C2 3836   1.155   6.524   6.772 -0.2265 -0.6604  0.7620
   29SAPC    HS 3837   1.138   6.622   6.821  0.3301  0.2725 -0.8978
   29SAPC   O21 3838   1.223   6.430   6.860 -0.4744  0.1399  0.4264
   29SAPC   C21 3839   1.335   6.457   6.922  0.4850 -0.7551  0.0416
   29SAPC   O22 3840   1.399   6.560   6.900 -0.2477  0.3516  0.0397
   29SAPC   C22 3841   1.377   6.339   7.006  0.0674 -0.1290  0.0513
   29SAPC   H2R 3842   1.350   6.239   6.966  2.5384 -0.4753 -0.8091
   29SAPC   H2S 3843   1.487   6.351   7.000 -0.1289  1.8269 -0.0615
   29SAPC    C3 3844   1.017   6.456   6.749 -0.2662  0.2636 -0.3108
   29SAPC    HX 3845   1.026   6.354   6.705 -2.9779 -0.6760  1.2205
   29SAPC    HY 3846   0.953   6.509   6.676 -0.4584  0.2045 -0.1844
   29SAPC   O31 3847   0.952   6.434   6.880  0.2940  0.0725  0.7920
   29SAPC   C31 3848   0.879   6.536   6.915 -0.1166 -0.1328 -0.0703
   29SAPC   O32 3849   0.843   6.633   6.851 -0.3429  0.3273 -0.5301
   29SAPC   C32 3850   0.840   6.525   7.064 -0.2922  0.4226  0.4486
   29SAPC   H2X 3851   0.785   6.428   7.068  0.8970 -0.2807  0.0023
   29SAPC   H2Y 3852   0.763   6.603   7.085  0.5021  1.6892 -1.2245
   29SAPC   C23 3853   1.340   6.348   7.156  1.1978 -0.1017  0.3911
   29SAPC   H3R 3854   1.333   6.243   7.194 -1.7516  0.3243  1.2252
   29SAPC   H3S 3855   1.232   6.375   7.167  0.8044 -0.8416 -1.3903
   29SAPC   C24 3856   1.433   6.438   7.236  0.3079 -0.0854 -0.1157
   29SAPC   H4R 3857   1.534   6.415   7.196  0.7478  0.6455  0.5545
   29SAPC   H4S 3858   1.427   6.397   7.339  0.9419  3.2666  1.3281
   29SAPC   C25 3859   1.406   6.581   7.226  0.3883 -0.0967 -0.1927
   29SAPC   H5R 3860   1.386   6.623   7.126  2.4134  1.5327  0.0654
   29SAPC   C26 3861   1.379   6.661   7.332  0.7563 -0.6329  0.8126
   29SAPC   H6R 3862   1.375   6.771   7.323 -3.4302 -0.9774 -2.9373
   29SAPC   C27 3863   1.370   6.626   7.480 -0.5866 -0.1114 -0.1111
   29SAPC   H7R 3864   1.291   6.548   7.486 -0.1828 -0.4906  0.3048
   29SAPC   H7S 3865   1.327   6.706   7.544 -0.3818  0.9827 -1.3315
   29SAPC   C28 3866   1.493   6.578   7.550  0.1342  0.2345  0.0157
   29SAPC   H8R 3867   1.584   6.632   7.521 -0.3067  0.7141 -0.4750
   29SAPC   C29 3868   1.505   6.488   7.653  0.5747  0.8476  0.1655
   29SAPC   H9R 3869   1.605   6.458   7.687  1.5787  1.5419 -2.0435
   29SAPC  C210 3870   1.393   6.406   7.718 -0.1800  0.3977 -0.0173
   29SAPC  H10R 3871   1.321   6.477   7.762  0.5061  0.0354  1.7548
   29SAPC  H10S 3872   1.441   6.361   7.808  0.4804 -0.4332 -0.7731
   29SAPC  C211 3873   1.331   6.301   7.635 -0.6370 -0.1011 -0.4549
   29SAPC  H11R 3874   1.308   6.323   7.529 -1.8626 -0.2153 -0.2175
   29SAPC  C212 3875   1.272   6.192   7.686  0.1095 -0.1554  1.0254
   29SAPC  H12R 3876   1.224   6.120   7.617  2.5918  0.8517 -1.8752
   29SAPC  C213 3877   1.271   6.163   7.832 -0.6820  0.0235  0.0877
   29SAPC  H13R 3878   1.371   6.160   7.880 -0.2630 -2.6750 -0.8621
   29SAPC  H13S 3879   1.236   6.058   7.840  1.8318 -0.8970 -0.3873
   29SAPC  C214 3880   1.174   6.250   7.903 -0.2851 -1.0413 -0.6074
   29SAPC  H14R 3881   1.079   6.260   7.850 -0.3965 -0.7581 -0.3574
   29SAPC  C215 3882   1.175   6.296   8.035 -0.2280 -0.3358 -0.8385
   29SAPC  H15R 3883   1.097   6.366   8.069  0.6984  1.1715 -1.7289
   29SAPC  C216 3884   1.284   6.269   8.137  0.2175  0.2394  0.3835
   29SAPC  H16R 3885   1.361   6.199   8.097  0.9151  1.1599  0.0827
   29SAPC  H16S 3886   1.239   6.209   8.218  1.1766  0.6123  1.1941
   29SAPC  C217 3887   1.346   6.397   8.205 -0.1027 -0.5237 -0.3728
   29SAPC  H17R 3888   1.288   6.411   8.299 -0.3000  0.2018 -0.6027
   29SAPC  H17S 3889   1.320   6.496   8.163 -0.0019 -0.0381  0.6785
   29SAPC  C218 3890   1.498   6.396   8.228 -0.6712  0.3155  0.4467
   29SAPC  H18R 3891   1.518   6.300   8.279 -3.9132 -0.5838  0.1158
   29SAPC  H18S 3892   1.523   6.481   8.296  1.3948 -0.4477  0.6483
   29SAPC  C219 3893   1.571   6.388   8.090  0.2826  0.7205 -0.3604
   29SAPC  H19R 3894   1.561   6.485   8.036  2.7459  0.3349 -1.5515
   29SAPC  H19S 3895   1.524   6.312   8.024 -0.5079 -0.0401  1.0383
   29SAPC  C220 3896   1.721   6.351   8.100  0.0289  0.2188  0.0260
   29SAPC  H20R 3897   1.773   6.349   8.002  1.5851 -0.8718  0.8533
   29SAPC  H20S 3898   1.739   6.245   8.127 -0.2081  0.7469  2.3810
   29SAPC  H20T 3899   1.781   6.411   8.172  0.2705  0.0588 -0.0415
   29SAPC   C33 3900   0.962   6.513   7.162 -0.4926  0.3918  0.0455
   29SAPC   H3X 3901   1.013   6.612   7.166 -1.3691  0.7852  2.5960
   29SAPC   H3Y 3902   1.035   6.442   7.117 -0.8522  0.0947 -0.0667
   29SAPC   C34 3903   0.929   6.485   7.309 -0.6745 -0.1625  0.0326
   29SAPC   H4X 3904   0.857   6.560   7.347 -0.6157 -0.7197  1.2829
   29SAPC   H4Y 3905   1.021   6.497   7.372 -0.5219 -0.0984 -0.2016
   29SAPC   C35 3906   0.875   6.347   7.340  0.1377 -0.1103 -0.0338
   29SAPC   H5X 3907   0.938   6.268   7.293 -0.1338 -0.7253  0.6194
   29SAPC   H5Y 3908   0.776   6.334   7.293  0.1057 -3.1223  0.7340
   29SAPC   C36 3909   0.883   6.320   7.490  0.0293 -0.2631  0.6192
   29SAPC   H6X 3910   0.827   6.397   7.546 -1.9431 -1.7294  0.7342
   29SAPC   H6Y 3911   0.992   6.319   7.514  0.3543 -5.1890 -0.3509
   29SAPC   C37 3912   0.809   6.193   7.528 -0.3493 -0.3337 -0.8585
   29SAPC   H7X 3913   0.831   6.121   7.446 -0.6727 -0.9108 -0.4441
   29SAPC   H7Y 3914   0.699   6.211   7.528 -0.4297 -0.7777  0.7356
   29SAPC   C38 3915   0.856   6.138   7.663  0.6090 -0.9356  0.1547
   29SAPC   H8X 3916   0.965   6.117   7.661  0.6683 -0.5368 -1.5105
   29SAPC   H8Y 3917   0.803   6.040   7.666  1.0809 -1.2182 -0.5070
   29SAPC   C39 3918   0.817   6.227   7.786 -0.2863  0.3027 -0.9539
   29SAPC   H9X 3919   0.715   6.269   7.775 -0.7332 -0.6548 -0.4988
   29SAPC   H9Y 3920   0.882   6.317   7.796  0.5990 -0.6109  1.9970
   29SAPC  C310 3921   0.805   6.138   7.916  0.9525  0.6453 -0.4722
   29SAPC  H10X 3922   0.901   6.082   7.924 -1.1869 -3.1147  0.3614
   29SAPC  H10Y 3923   0.711   6.079   7.908  1.6059 -0.5058  0.0672
   29SAPC  C311 3924   0.793   6.219   8.049 -0.0360 -0.0412 -0.1425
   29SAPC  H11X 3925   0.692   6.264   8.064 -0.5330 -2.1315  3.1664
   29SAPC  H11Y 3926   0.864   6.305   8.043 -2.6055  2.1965  0.3104
   29SAPC  C312 3927   0.818   6.137   8.178 -0.0552  0.3591  0.1222
   29SAPC  H12X 3928   0.901   6.066   8.159  0.5310  0.8780  0.7051
   29SAPC  H12Y 3929   0.728   6.076   8.199 -0.0727  0.7515  1.1997
   29SAPC  C313 3930   0.852   6.218   8.301  0.1617 -0.7499  0.1834
   29SAPC  H13X 3931   0.777   6.300   8.296  0.7141 -0.2678 -0.2932
   29SAPC  H13Y 3932   0.952   6.267   8.295  0.1049 -0.5662  0.6392
   29SAPC  C314 3933   0.817   6.149   8.440 -0.0055 -0.4772  0.3792
   29SAPC  H14X 3934   0.894   6.074   8.469  3.1222  2.8145  0.9549
   29SAPC  H14Y 3935   0.722   6.092   8.438  0.0630 -0.5871 -2.9281
   29SAPC  C315 3936   0.802   6.246   8.556 -0.4894 -0.2635  0.6053
   29SAPC  H15X 3937   0.712   6.302   8.521 -0.2040  1.4647  2.5651
   29SAPC  H15Y 3938   0.881   6.324   8.556 -0.8200  0.0744  2.0778
   29SAPC  C316 3939   0.771   6.179   8.690  0.0332  0.6630 -0.1016
   29SAPC  H16X 3940   0.849   6.101   8.709  0.1597  0.7029 -0.4537
   29SAPC  H16Y 3941   0.673   6.130   8.672 -0.2459  1.3152 -0.3543
   29SAPC  C317 3942   0.761   6.274   8.812 -0.5294 -0.1601  0.6132
   29SAPC  H17X 3943   0.860   6.315   8.839 -0.1076 -1.1819  0.6423
   29SAPC  H17Y 3944   0.718   6.216   8.897 -0.1342 -0.0669  0.8763
   29SAPC  C318 3945   0.668   6.397   8.806 -0.8162 -0.2516 -0.2196
   29SAPC  H18X 3946   0.645   6.454   8.899 -1.9710 -0.5538 -0.3263
   29SAPC  H18Y 3947   0.569   6.364   8.769 -1.4661 -1.3394  2.3817
   29SAPC  H18Z 3948   0.695   6.472   8.729  2.2915  2.0473  2.9338
   30SAPC     N 3949   2.650   0.330   5.991  0.9746 -0.0962  0.2921
   30SAPC   C12 3950   2.724   0.357   6.127  0.4458  0.2205 -1.1562
   30SAPC  H12A 3951   2.673   0.439   6.174  1.3058 -1.4204  2.8499
   30SAPC  H12B 3952   2.829   0.378   6.113  0.8808 -2.6344 -2.7567
   30SAPC   C13 3953   2.503   0.300   6.015 -0.1095  0.8261  0.5617
   30SAPC  H13A 3954   2.496   0.228   6.095 -0.4419  1.0763  0.7551
   30SAPC  H13B 3955   2.451   0.389   6.048 -2.1120  0.6262 -1.9107
   30SAPC  H13C 3956   2.458   0.261   5.925  0.5084 -0.7873  0.9312
   30SAPC   C14 3957   2.666   0.440   5.903  0.0578 -0.4164  0.3911
   30SAPC  H14A 3958   2.638   0.532   5.952 -0.6081 -0.0853 -0.5828
   30SAPC  H14B 3959   2.771   0.464   5.888 -0.0916  0.0375  0.0739
   30SAPC  H14C 3960   2.612   0.429   5.810  1.5502  1.8936 -0.8240
   30SAPC   C15 3961   2.703   0.209   5.914 -0.0092 -0.0331  0.6954
   30SAPC  H15A 3962   2.794   0.234   5.863 -0.6449 -0.9806 -0.9316
   30SAPC  H15B 3963   2.725   0.135   5.990  1.1629  0.8351  1.2121
   30SAPC  H15C 3964   2.635   0.168   5.841  1.2963 -1.2096  0.1236
   30SAPC   C11 3965   2.712   0.240   6.238 -0.4965 -0.2164 -0.3201
   30SAPC  H11A 3966   2.602   0.234   6.257 -0.5324 -2.0503 -0.9917
   30SAPC  H11B 3967   2.768   0.273   6.328 -1.3192 -0.9985  0.4889
   30SAPC     P 3968   2.698  -0.024   6.240 -0.0561 -0.0879 -0.1348
   30SAPC   O13 3969   2.553  -0.037   6.220  0.2592 -0.2445  0.1882
   30SAPC   O14 3970   2.778  -0.130   6.177 -0.3751  0.1066 -0.3089
   30SAPC   O12 3971   2.759   0.113   6.186  0.1008 -0.3465 -0.2913
   30SAPC   O11 3972   2.720  -0.019   6.397 -0.1500  0.0372  0.5707
   30SAPC    C1 3973   2.850  -0.064   6.442  1.5813 -0.2207 -0.7206
   30SAPC    HA 3974   2.869  -0.166   6.399 -1.3454 -0.6641 -1.0225
   30SAPC    HB 3975   2.934  -0.001   6.404  2.3461 -0.9198 -0.2252
   30SAPC    C2 3976   2.873  -0.085   6.593 -0.1038  0.2420  0.1847
   30SAPC    HS 3977   2.969  -0.138   6.611  0.4770  0.9765 -0.6936
   30SAPC   O21 3978   2.759  -0.149   6.655 -0.4312  0.0265  0.3043
   30SAPC   C21 3979   2.768  -0.282   6.671  0.1406 -0.0717 -0.1426
   30SAPC   O22 3980   2.859  -0.347   6.623 -0.0187 -0.3318 -0.0081
   30SAPC   C22 3981   2.643  -0.334   6.738 -0.2144  0.6539  0.1723
   30SAPC   H2R 3982   2.559  -0.328   6.666 -1.0996 -0.3157  1.1192
   30SAPC   H2S 3983   2.657  -0.443   6.747 -1.0612  0.4403 -0.9961
   30SAPC    C3 3984   2.897   0.053   6.666  0.7952 -0.5457  0.8337
   30SAPC    HX 3985   2.806   0.111   6.639  1.9545  1.3903  0.9860
   30SAPC    HY 3986   2.984   0.104   6.619 -0.8433  1.1384 -0.5112
   30SAPC   O31 3987   2.929   0.039   6.805 -0.0279 -0.6213 -0.2145
   30SAPC   C31 3988   2.902   0.152   6.874  0.2527  0.4678 -0.0653
   30SAPC   O32 3989   2.861   0.259   6.829  0.4889  0.0736 -0.5837
   30SAPC   C32 3990   2.914   0.107   7.017 -0.6487 -0.2000 -0.6489
   30SAPC   H2X 3991   3.013   0.060   7.034  0.1485  1.7304  0.2085
   30SAPC   H2Y 3992   2.833   0.033   7.034 -0.7677  0.1889  0.5404
   30SAPC   C23 3993   2.606  -0.256   6.863 -0.7415 -0.2582  0.2053
   30SAPC   H3R 3994   2.507  -0.286   6.902 -1.4567  0.1428 -1.2714
   30SAPC   H3S 3995   2.593  -0.152   6.827 -1.0664  0.4879  2.4376
   30SAPC   C24 3996   2.708  -0.282   6.975  0.0080 -0.3995 -0.7862
   30SAPC   H4R 3997   2.816  -0.265   6.957 -0.2328  1.1504 -0.8901
   30SAPC   H4S 3998   2.705  -0.391   6.995  2.5775 -0.1477  1.2010
   30SAPC   C25 3999   2.683  -0.205   7.102  0.2137  0.5167 -0.7710
   30SAPC   H5R 4000   2.678  -0.095   7.095 -0.3361  0.5030 -0.6478
   30SAPC   C26 4001   2.663  -0.253   7.227  0.1811 -0.0007  0.1336
   30SAPC   H6R 4002   2.670  -0.183   7.311  0.4921 -2.3639  2.1296
   30SAPC   C27 4003   2.670  -0.396   7.271 -0.2403  0.6237 -0.0401
   30SAPC   H7R 4004   2.721  -0.407   7.369  0.1300  0.5061 -0.2429
   30SAPC   H7S 4005   2.715  -0.457   7.189  0.2969  0.4944  0.3491
   30SAPC   C28 4006   2.525  -0.450   7.288 -0.3096  0.0762 -0.0699
   30SAPC   H8R 4007   2.470  -0.469   7.195  2.2621 -0.6241 -1.4831
   30SAPC   C29 4008   2.451  -0.468   7.401  0.2063  0.1099  0.4611
   30SAPC   H9R 4009   2.351  -0.515   7.395  0.4572 -0.2183 -1.6022
   30SAPC  C210 4010   2.493  -0.451   7.541 -0.0826  0.6305 -0.1833
   30SAPC  H10R 4011   2.602  -0.462   7.562 -0.0136  0.4836 -0.6159
   30SAPC  H10S 4012   2.458  -0.541   7.596  2.9969 -0.5745 -0.0788
   30SAPC  C211 4013   2.445  -0.321   7.604 -0.9182 -0.6289  0.5835
   30SAPC  H11R 4014   2.440  -0.234   7.538 -0.8675 -1.6774 -0.8350
   30SAPC  C212 4015   2.403  -0.295   7.730  0.3222  0.7903 -0.1492
   30SAPC  H12R 4016   2.373  -0.196   7.767  1.1381  1.8233 -2.1797
   30SAPC  C213 4017   2.393  -0.392   7.838  0.1180  0.1982 -0.8653
   30SAPC  H13R 4018   2.346  -0.487   7.806 -1.3562  1.2255 -1.8342
   30SAPC  H13S 4019   2.316  -0.361   7.912  1.4583 -0.4226  0.8129
   30SAPC  C214 4020   2.520  -0.435   7.902  0.7842  0.9354 -0.2595
   30SAPC  H14R 4021   2.592  -0.478   7.831 -1.3753 -2.6997 -0.3998
   30SAPC  C215 4022   2.554  -0.414   8.030 -0.3291  0.0707 -0.4466
   30SAPC  H15R 4023   2.650  -0.454   8.066 -0.3848 -1.4986 -1.9776
   30SAPC  C216 4024   2.469  -0.351   8.133  0.1440 -0.2063 -1.0234
   30SAPC  H16R 4025   2.481  -0.417   8.221  3.0188  0.9260 -0.5259
   30SAPC  H16S 4026   2.364  -0.330   8.101  0.8053  1.5871 -2.0800
   30SAPC  C217 4027   2.522  -0.210   8.176  1.4166 -0.4443 -0.7385
   30SAPC  H17R 4028   2.504  -0.141   8.091  0.0316  2.6680  1.9381
   30SAPC  H17S 4029   2.628  -0.215   8.209  0.3227 -2.1743  2.8245
   30SAPC  C218 4030   2.448  -0.142   8.292  0.0180 -0.6124 -0.7944
   30SAPC  H18R 4031   2.470  -0.201   8.384 -0.4802  2.5842  1.4696
   30SAPC  H18S 4032   2.339  -0.144   8.274 -0.3532  2.6367  0.7153
   30SAPC  C219 4033   2.484   0.013   8.311  0.0400 -0.5152 -0.4328
   30SAPC  H19R 4034   2.462   0.066   8.216 -2.1185  1.8881  1.3536
   30SAPC  H19S 4035   2.593   0.019   8.332 -0.6144  1.3614  2.7219
   30SAPC  C220 4036   2.397   0.080   8.410  0.4441  0.9984  0.0792
   30SAPC  H20R 4037   2.391   0.021   8.504 -1.8542  0.3140 -0.4487
   30SAPC  H20S 4038   2.293   0.085   8.370  0.5140 -0.3024 -0.2874
   30SAPC  H20T 4039   2.427   0.181   8.445  0.3763  0.6304  1.2479
   30SAPC   C33 4040   2.896   0.222   7.119  0.5446 -0.2308 -0.8043
   30SAPC   H3X 4041   2.801   0.278   7.106 -1.0255 -2.4943  0.6182
   30SAPC   H3Y 4042   2.972   0.300   7.096 -0.9008  1.1468 -1.0053
   30SAPC   C34 4043   2.899   0.169   7.264 -0.1347 -1.1490  0.2713
   30SAPC   H4X 4044   2.938   0.256   7.322 -1.5012 -1.1540  1.2105
   30SAPC   H4Y 4045   2.972   0.090   7.291  1.0199 -0.1181  0.2645
   30SAPC   C35 4046   2.769   0.119   7.317 -0.4345  0.5800  0.3219
   30SAPC   H5X 4047   2.727   0.038   7.253 -0.8198 -0.0286  1.3307
   30SAPC   H5Y 4048   2.691   0.198   7.321 -1.0949 -0.0666  0.3713
   30SAPC   C36 4049   2.788   0.054   7.456  0.6725  0.0925 -0.2689
   30SAPC   H6X 4050   2.842   0.131   7.514 -0.1334  0.0313  0.5722
   30SAPC   H6Y 4051   2.840  -0.044   7.449  0.6042 -0.0324  0.9322
   30SAPC   C37 4052   2.661   0.017   7.524 -0.3040  0.0948 -0.4172
   30SAPC   H7X 4053   2.618  -0.067   7.465 -1.9614 -1.2429  2.5644
   30SAPC   H7Y 4054   2.591   0.103   7.524 -1.4528 -0.8177 -0.5453
   30SAPC   C38 4055   2.669  -0.034   7.667 -0.1051 -0.0484  0.1004
   30SAPC   H8X 4056   2.713  -0.136   7.673  0.3712  0.2501  2.2800
   30SAPC   H8Y 4057   2.560  -0.043   7.686 -0.4316  2.2781 -0.5182
   30SAPC   C39 4058   2.729   0.067   7.761  0.3925  0.5443  0.7375
   30SAPC   H9X 4059   2.676   0.164   7.752 -0.7806 -0.0433  1.3007
   30SAPC   H9Y 4060   2.830   0.079   7.716 -0.2377 -1.3930 -1.2828
   30SAPC  C310 4061   2.739   0.020   7.906 -0.1766 -0.6830  0.6157
   30SAPC  H10X 4062   2.780  -0.083   7.904  1.0293 -0.2123  0.6349
   30SAPC  H10Y 4063   2.637   0.023   7.951  0.1605 -0.3323  1.3758
   30SAPC  C311 4064   2.828   0.115   7.984  0.1335 -0.4709  0.0433
   30SAPC  H11X 4065   2.793   0.215   7.948 -1.5514 -1.2142 -0.4449
   30SAPC  H11Y 4066   2.935   0.099   7.960  0.0135 -1.6801  0.3224
   30SAPC  C312 4067   2.815   0.094   8.127 -0.4415  0.4551  0.9088
   30SAPC  H12X 4068   2.833  -0.014   8.149  1.0507  0.3598 -0.6571
   30SAPC  H12Y 4069   2.708   0.109   8.153 -0.4729  1.0693  0.4341
   30SAPC  C313 4070   2.892   0.192   8.215  0.2046 -0.1145  0.5110
   30SAPC  H13X 4071   3.003   0.199   8.208  0.1718 -1.0551 -1.0705
   30SAPC  H13Y 4072   2.867   0.146   8.313 -0.6478  0.3568  0.5160
   30SAPC  C314 4073   2.840   0.340   8.239 -0.3078 -0.1237  0.4848
   30SAPC  H14X 4074   2.750   0.364   8.178 -0.5594 -0.6677  0.6424
   30SAPC  H14Y 4075   2.921   0.409   8.205  0.1091 -0.9424 -0.2066
   30SAPC  C315 4076   2.803   0.363   8.390  0.1309  0.3773  0.9175
   30SAPC  H15X 4077   2.723   0.299   8.433 -0.0314  0.8380  1.2996
   30SAPC  H15Y 4078   2.769   0.466   8.415 -0.6448  1.1327 -2.9575
   30SAPC  C316 4079   2.915   0.343   8.491  0.5301 -0.3647 -0.5365
   30SAPC  H16X 4080   2.957   0.242   8.472 -2.2253 -1.5462 -0.5822
   30SAPC  H16Y 4081   2.888   0.349   8.598 -0.5417  2.8714 -0.9160
   30SAPC  C317 4082   3.022   0.456   8.472  0.9143  0.2838  0.4183
   30SAPC  H17X 4083   2.974   0.554   8.492  1.0936  0.8457 -1.7862
   30SAPC  H17Y 4084   3.056   0.457   8.366 -1.6651  0.9194 -0.4472
   30SAPC  C318 4085   3.146   0.458   8.564  0.2115  0.4692 -0.3257
   30SAPC  H18X 4086   3.193   0.357   8.564 -0.1670  0.2861 -1.4850
   30SAPC  H18Y 4087   3.127   0.502   8.664  1.6427  1.0776 -0.3043
   30SAPC  H18Z 4088   3.222   0.524   8.517  0.3659  0.0418 -0.6828
   31SAPC     N 4089   3.756   0.867   6.027  0.4888 -0.2146 -0.0962
   31SAPC   C12 4090   3.807   0.765   6.134 -0.1642  0.3017  0.4779
   31SAPC  H12A 4091   3.913   0.755   6.122 -0.6923 -3.4368 -1.6967
   31SAPC  H12B 4092   3.756   0.673   6.106 -0.0743  0.9173 -1.7940
   31SAPC   C13 4093   3.797   0.834   5.889  0.1960 -0.4626 -0.1713
   31SAPC  H13A 4094   3.750   0.738   5.873 -1.4414  0.2886  0.0426
   31SAPC  H13B 4095   3.751   0.904   5.821  0.6105 -0.8141 -0.8220
   31SAPC  H13C 4096   3.903   0.835   5.872  0.0806  1.5433 -0.9485
   31SAPC   C14 4097   3.608   0.872   6.022 -0.5501 -0.1502 -0.2516
   31SAPC  H14A 4098   3.563   0.935   5.946 -2.8948  0.8204  1.8803
   31SAPC  H14B 4099   3.567   0.774   6.002 -1.5205 -0.4087  2.8119
   31SAPC  H14C 4100   3.568   0.912   6.114 -1.0853  1.6239 -1.2202
   31SAPC   C15 4101   3.814   1.006   6.046  0.5823 -0.2414 -0.6516
   31SAPC  H15A 4102   3.916   0.999   6.079 -0.1258 -0.2475  1.6144
   31SAPC  H15B 4103   3.816   1.060   5.952 -1.7135  2.0002  0.5189
   31SAPC  H15C 4104   3.760   1.064   6.120 -1.6075 -0.8695 -1.7055
   31SAPC   C11 4105   3.786   0.791   6.281 -0.0966 -0.0190 -0.0107
   31SAPC  H11A 4106   3.679   0.789   6.309 -0.2067  2.5425 -0.1722
   31SAPC  H11B 4107   3.832   0.889   6.306  1.9556 -0.9279 -0.1211
   31SAPC     P 4108   3.820   0.546   6.371  0.0612 -0.4900  0.0850
   31SAPC   O13 4109   3.757   0.499   6.242  0.2473 -0.0894  0.2330
   31SAPC   O14 4110   3.929   0.459   6.415 -0.1496  0.1521  0.0400
   31SAPC   O12 4111   3.862   0.699   6.362 -0.1133  0.3605 -0.0805
   31SAPC   O11 4112   3.702   0.546   6.473 -0.6884 -0.4185 -0.5321
   31SAPC    C1 4113   3.690   0.628   6.588  0.4241 -0.3787 -0.0878
   31SAPC    HA 4114   3.780   0.618   6.651  1.0238 -0.0278 -0.8788
   31SAPC    HB 4115   3.695   0.734   6.554 -1.8920 -0.6467 -1.3876
   31SAPC    C2 4116   3.561   0.603   6.675  0.7801  0.0381 -0.3041
   31SAPC    HS 4117   3.536   0.703   6.716 -0.6093 -0.2162 -0.5057
   31SAPC   O21 4118   3.583   0.499   6.773  0.0083 -0.3329 -0.5675
   31SAPC   C21 4119   3.638   0.557   6.882 -0.2668 -0.0880  0.1177
   31SAPC   O22 4120   3.640   0.672   6.908  0.3071  0.2997  0.3893
   31SAPC   C22 4121   3.691   0.444   6.970 -0.2225  0.5711 -0.0006
   31SAPC   H2R 4122   3.610   0.368   6.977  0.1252  0.0557 -1.3490
   31SAPC   H2S 4123   3.787   0.400   6.936 -1.1131 -2.2762  1.0297
   31SAPC    C3 4124   3.432   0.570   6.598  0.1338 -0.7119  0.0466
   31SAPC    HX 4125   3.434   0.471   6.547 -1.5168 -0.8920  0.3227
   31SAPC    HY 4126   3.413   0.639   6.513  0.4336 -2.4991 -1.5145
   31SAPC   O31 4127   3.320   0.561   6.687 -0.3615  0.2836 -0.8811
   31SAPC   C31 4128   3.253   0.668   6.733 -0.9168 -0.2521 -0.2463
   31SAPC   O32 4129   3.269   0.781   6.688  0.4018  0.0924  0.5471
   31SAPC   C32 4130   3.132   0.625   6.821  0.4119 -1.2438  0.0153
   31SAPC   H2X 4131   3.116   0.516   6.809 -0.9339 -1.0406 -0.1078
   31SAPC   H2Y 4132   3.038   0.670   6.782  1.3750  1.7541  1.0281
   31SAPC   C23 4133   3.720   0.488   7.121  0.1974 -0.1849 -0.1053
   31SAPC   H3R 4134   3.648   0.567   7.150  1.3389  0.6010  0.6093
   31SAPC   H3S 4135   3.815   0.545   7.118 -0.5738  1.1499  0.3322
   31SAPC   C24 4136   3.711   0.370   7.219  0.2439  0.4297 -0.1999
   31SAPC   H4R 4137   3.610   0.326   7.208  0.3923  0.2595 -0.9164
   31SAPC   H4S 4138   3.713   0.413   7.322 -1.3295  1.4999 -0.6105
   31SAPC   C25 4139   3.803   0.257   7.200  0.1785 -0.1633  0.2724
   31SAPC   H5R 4140   3.778   0.182   7.123 -1.4862  2.2438 -1.6017
   31SAPC   C26 4141   3.911   0.239   7.275 -0.1533 -0.6321 -0.1007
   31SAPC   H6R 4142   3.984   0.161   7.251 -1.5773 -1.6259 -1.3641
   31SAPC   C27 4143   3.969   0.324   7.391  0.2162  0.1007  0.3556
   31SAPC   H7R 4144   3.959   0.433   7.368 -1.8717 -0.1895 -0.2042
   31SAPC   H7S 4145   4.075   0.295   7.405  0.5424  0.9228 -0.4022
   31SAPC   C28 4146   3.908   0.290   7.520  0.1254 -0.2836 -0.6516
   31SAPC   H8R 4147   3.852   0.195   7.520 -1.5886  0.7034 -0.1962
   31SAPC   C29 4148   3.914   0.359   7.632  0.0467 -0.4992  0.2141
   31SAPC   H9R 4149   3.855   0.331   7.720 -1.3794 -0.4645 -0.7259
   31SAPC  C210 4150   3.981   0.492   7.639  0.9364 -0.5409  0.1936
   31SAPC  H10R 4151   3.911   0.570   7.674  0.7383 -1.7582  2.5812
   31SAPC  H10S 4152   4.012   0.526   7.538 -0.1755 -0.2769 -0.0723
   31SAPC  C211 4153   4.096   0.488   7.740  0.3102 -0.4674  0.0132
   31SAPC  H11R 4154   4.190   0.440   7.708 -0.7633 -2.0975 -0.8075
   31SAPC  C212 4155   4.087   0.540   7.863 -0.2159  0.2299 -0.1391
   31SAPC  H12R 4156   4.176   0.523   7.926  2.6415 -0.1033 -4.0787
   31SAPC  C213 4157   3.970   0.612   7.924  0.4442 -0.3351 -0.8850
   31SAPC  H13R 4158   3.980   0.713   7.879  0.8402  0.6036  1.2519
   31SAPC  H13S 4159   4.003   0.647   8.024 -0.5065  0.1509 -0.7298
   31SAPC  C214 4160   3.832   0.544   7.926 -0.2375 -0.0690  0.3426
   31SAPC  H14R 4161   3.835   0.437   7.902 -3.9472 -0.7390  2.4589
   31SAPC  C215 4162   3.715   0.608   7.921 -0.7674 -0.7557 -0.4858
   31SAPC  H15R 4163   3.624   0.547   7.927 -0.5442 -0.9829  0.6084
   31SAPC  C216 4164   3.689   0.757   7.915  0.0132  0.4122  0.6224
   31SAPC  H16R 4165   3.601   0.766   7.847 -0.1989 -0.2982  0.7992
   31SAPC  H16S 4166   3.770   0.816   7.868  1.1035 -0.2466  1.6429
   31SAPC  C217 4167   3.659   0.828   8.047 -0.2907 -0.3880  0.1137
   31SAPC  H17R 4168   3.565   0.792   8.095 -0.8312  1.8227  0.7707
   31SAPC  H17S 4169   3.659   0.937   8.030 -1.3505 -0.4568 -0.3663
   31SAPC  C218 4170   3.775   0.820   8.148 -0.0338 -0.4460 -0.2246
   31SAPC  H18R 4171   3.863   0.860   8.095 -0.0365  2.0385  1.5782
   31SAPC  H18S 4172   3.793   0.713   8.172 -0.2950 -1.1056 -2.8456
   31SAPC  C219 4173   3.753   0.898   8.276 -0.3110 -0.1083  0.5923
   31SAPC  H19R 4174   3.730   1.002   8.243  1.6679 -0.3087 -1.5441
   31SAPC  H19S 4175   3.851   0.919   8.323 -0.3522  0.5140  0.4068
   31SAPC  C220 4176   3.659   0.837   8.382  0.2294 -0.1247 -0.1142
   31SAPC  H20R 4177   3.655   0.898   8.475  0.9323 -2.0275  1.1876
   31SAPC  H20S 4178   3.704   0.738   8.405  1.9163 -0.1495 -3.2836
   31SAPC  H20T 4179   3.559   0.814   8.342  1.2530 -0.3533 -2.6292
   31SAPC   C33 4180   3.164   0.659   6.973  0.4612 -0.0349 -0.5230
   31SAPC   H3X 4181   3.180   0.767   6.988 -0.4502  0.2799 -1.7398
   31SAPC   H3Y 4182   3.254   0.606   7.011 -1.1907 -3.9138 -1.7115
   31SAPC   C34 4183   3.045   0.623   7.063  0.3555 -0.3021 -0.0965
   31SAPC   H4X 4184   3.015   0.519   7.038  1.1631 -0.9407  1.4932
   31SAPC   H4Y 4185   2.968   0.699   7.037 -1.2436 -2.1105 -0.7689
   31SAPC   C35 4186   3.079   0.626   7.208  0.0645  0.8317  0.0078
   31SAPC   H5X 4187   3.117   0.726   7.237 -0.1167  0.5153  1.3551
   31SAPC   H5Y 4188   3.160   0.553   7.228 -0.6049  0.2280  0.5677
   31SAPC   C36 4189   2.970   0.597   7.299 -0.3425  0.2137 -0.0220
   31SAPC   H6X 4190   2.923   0.502   7.266 -0.6959  0.8334 -1.3480
   31SAPC   H6Y 4191   2.879   0.659   7.284 -1.8520 -1.5797  1.5702
   31SAPC   C37 4192   3.021   0.599   7.443  0.4260  0.1063  0.4935
   31SAPC   H7X 4193   3.050   0.702   7.471 -1.0663  0.5412  0.4416
   31SAPC   H7Y 4194   3.108   0.531   7.455  1.0519  0.8641  0.2970
   31SAPC   C38 4195   2.904   0.559   7.541  0.4908 -0.0747  0.0732
   31SAPC   H8X 4196   2.886   0.451   7.526 -2.1586  0.1400  1.5055
   31SAPC   H8Y 4197   2.818   0.625   7.520  0.1591 -0.9400 -1.3161
   31SAPC   C39 4198   2.932   0.579   7.688 -0.2703  0.2429  0.1956
   31SAPC   H9X 4199   2.834   0.558   7.736 -1.1556  0.5253 -1.4431
   31SAPC   H9Y 4200   2.959   0.683   7.715  2.4542 -0.6822  1.1611
   31SAPC  C310 4201   3.031   0.481   7.745 -0.6019 -0.1056  0.1719
   31SAPC  H10X 4202   3.136   0.501   7.714 -0.3675 -1.2802  0.1836
   31SAPC  H10Y 4203   3.009   0.379   7.707  0.8138 -0.3776  0.0594
   31SAPC  C311 4204   3.020   0.465   7.898  0.9880 -0.1136 -0.1692
   31SAPC  H11X 4205   2.917   0.428   7.914  1.7996 -2.8909 -1.0531
   31SAPC  H11Y 4206   3.036   0.558   7.957  1.6625  0.5636 -1.3987
   31SAPC  C312 4207   3.104   0.348   7.952  0.2970 -0.5065  0.4053
   31SAPC  H12X 4208   3.100   0.254   7.894 -2.1503 -0.4492  0.4315
   31SAPC  H12Y 4209   3.062   0.330   8.054  0.1754 -2.0951  0.0761
   31SAPC  C313 4210   3.246   0.387   7.983 -0.0020 -0.9306  0.3340
   31SAPC  H13X 4211   3.253   0.483   8.039 -1.2143  1.3380 -3.2179
   31SAPC  H13Y 4212   3.282   0.402   7.879  0.3744 -2.1852  0.2754
   31SAPC  C314 4213   3.340   0.279   8.038 -0.7266 -0.9199  0.2534
   31SAPC  H14X 4214   3.444   0.307   8.010 -0.7151  1.5268  2.5191
   31SAPC  H14Y 4215   3.310   0.182   7.992 -1.2080  0.5889 -2.7257
   31SAPC  C315 4216   3.322   0.255   8.195  0.0606  0.4314  0.2510
   31SAPC  H15X 4217   3.222   0.210   8.213  0.5604 -0.4497  0.8597
   31SAPC  H15Y 4218   3.314   0.351   8.250 -0.4553 -0.5585  1.9425
   31SAPC  C316 4219   3.432   0.161   8.248 -0.9690  0.4500 -0.1356
   31SAPC  H16X 4220   3.491   0.223   8.319 -0.1425 -0.4056 -0.0701
   31SAPC  H16Y 4221   3.497   0.142   8.160 -0.1148  0.3264  0.5208
   31SAPC  C317 4222   3.378   0.050   8.332 -0.0944  0.1753  0.1333
   31SAPC  H17X 4223   3.312  -0.021   8.278 -0.7258  1.1475 -0.3796
   31SAPC  H17Y 4224   3.308   0.087   8.410  0.2230  1.0136  0.0309
   31SAPC  C318 4225   3.487  -0.034   8.399  0.4893  0.3992  0.1121
   31SAPC  H18X 4226   3.540  -0.105   8.332  1.2314 -2.7599  3.8776
   31SAPC  H18Y 4227   3.443  -0.092   8.483 -0.0593 -0.3464 -0.6783
   31SAPC  H18Z 4228   3.558   0.040   8.441  2.5315 -1.4024 -0.0825
   32SAPC     N 4229   5.566   1.212   5.694  0.9120  0.0265  0.5288
   32SAPC   C12 4230   5.514   1.128   5.812  0.0782  0.4899 -0.5208
   32SAPC  H12A 4231   5.594   1.063   5.842 -0.6493  0.0077  0.3979
   32SAPC  H12B 4232   5.430   1.067   5.782  0.5372 -1.5463  2.2401
   32SAPC   C13 4233   5.579   1.124   5.573  0.1889 -0.0647  1.3015
   32SAPC  H13A 4234   5.635   1.034   5.592  0.7098  0.1699  0.8923
   32SAPC  H13B 4235   5.479   1.096   5.542  0.9155  0.7008 -1.8738
   32SAPC  H13C 4236   5.635   1.168   5.493 -0.8022  1.4134  1.3995
   32SAPC   C14 4237   5.467   1.320   5.669 -0.2434  0.0891 -0.3455
   32SAPC  H14A 4238   5.477   1.394   5.747 -0.1173 -0.6818  0.3758
   32SAPC  H14B 4239   5.489   1.367   5.574 -1.3231  0.7890 -0.2659
   32SAPC  H14C 4240   5.367   1.282   5.657  0.3550 -2.1703  1.5776
   32SAPC   C15 4241   5.699   1.271   5.720  0.2437 -0.1173 -0.1055
   32SAPC  H15A 4242   5.724   1.332   5.634  0.3109  0.1476  0.1036
   32SAPC  H15B 4243   5.691   1.341   5.802 -0.9334 -1.2372  0.7642
   32SAPC  H15C 4244   5.780   1.204   5.744  0.6760 -0.1555 -1.5856
   32SAPC   C11 4245   5.469   1.203   5.938  0.0229 -0.0721  0.6597
   32SAPC  H11A 4246   5.428   1.140   6.020 -1.2178 -0.9298 -0.5921
   32SAPC  H11B 4247   5.375   1.255   5.910  0.4278 -0.1612 -0.9072
   32SAPC     P 4248   5.654   1.244   6.104  0.1176 -0.0538 -0.1212
   32SAPC   O13 4249   5.693   1.111   6.060 -0.3096  0.0363 -0.1429
   32SAPC   O14 4250   5.755   1.343   6.142  0.2749 -0.0483  0.2021
   32SAPC   O12 4251   5.569   1.301   5.989 -0.5086  0.1212  0.2201
   32SAPC   O11 4252   5.543   1.246   6.217 -0.0072  0.1358 -0.3202
   32SAPC    C1 4253   5.472   1.366   6.256 -0.1764 -0.2655  0.3282
   32SAPC    HA 4254   5.515   1.451   6.198  0.5962 -1.5498 -1.0295
   32SAPC    HB 4255   5.365   1.370   6.227 -0.3687  0.4810  1.1286
   32SAPC    C2 4256   5.477   1.393   6.409  0.2780 -0.2034  0.5112
   32SAPC    HS 4257   5.432   1.492   6.429  0.1488  0.2389 -1.8311
   32SAPC   O21 4258   5.613   1.379   6.450 -0.3098 -0.0784 -0.7008
   32SAPC   C21 4259   5.643   1.448   6.561 -0.6584 -0.2208 -0.4341
   32SAPC   O22 4260   5.573   1.534   6.608  0.0689  0.0652  0.1326
   32SAPC   C22 4261   5.781   1.423   6.615  0.2456 -0.0979 -0.1947
   32SAPC   H2R 4262   5.812   1.318   6.598  0.0203 -0.4203  1.2993
   32SAPC   H2S 4263   5.853   1.487   6.559 -0.8113 -0.8241 -2.4226
   32SAPC    C3 4264   5.394   1.284   6.483  0.5683 -0.3219  0.1821
   32SAPC    HX 4265   5.445   1.185   6.470  0.2042 -0.4293 -0.4844
   32SAPC    HY 4266   5.290   1.284   6.445 -0.4378 -2.2539  2.8419
   32SAPC   O31 4267   5.386   1.311   6.626  0.1283 -0.1667 -0.2278
   32SAPC   C31 4268   5.311   1.409   6.670  0.3682  0.3378  0.4512
   32SAPC   O32 4269   5.244   1.479   6.592  0.9399  0.9065 -0.4477
   32SAPC   C32 4270   5.321   1.426   6.822 -0.1647  0.4959 -0.0019
   32SAPC   H2X 4271   5.382   1.514   6.850  0.1981  1.0934 -2.4944
   32SAPC   H2Y 4272   5.362   1.330   6.860 -0.7155  0.5220  0.6570
   32SAPC   C23 4273   5.800   1.459   6.763  0.2665 -0.0121 -0.8553
   32SAPC   H3R 4274   5.789   1.569   6.769  1.0996 -0.0547  3.4060
   32SAPC   H3S 4275   5.904   1.448   6.801  0.1726  0.9014 -0.3102
   32SAPC   C24 4276   5.712   1.375   6.855  0.6740 -0.2135 -0.8316
   32SAPC   H4R 4277   5.609   1.405   6.826  0.7693 -0.1578 -1.1187
   32SAPC   H4S 4278   5.733   1.422   6.953 -1.7122 -0.4862 -0.1543
   32SAPC   C25 4279   5.735   1.228   6.871 -0.4880  0.0577  0.0029
   32SAPC   H5R 4280   5.698   1.170   6.784  0.8746  0.7047 -1.0178
   32SAPC   C26 4281   5.799   1.166   6.971 -0.0555  0.3904 -0.0949
   32SAPC   H6R 4282   5.802   1.056   6.965  0.5825  0.4390 -0.6359
   32SAPC   C27 4283   5.852   1.222   7.099  0.0290  0.2959  0.1358
   32SAPC   H7R 4284   5.775   1.234   7.178  1.3186  1.2176  1.2781
   32SAPC   H7S 4285   5.908   1.315   7.077  0.0869  0.7863  2.2543
   32SAPC   C28 4286   5.956   1.123   7.151 -0.2515 -0.2325  0.5283
   32SAPC   H8R 4287   5.999   1.048   7.082  0.2160  1.5901 -1.1945
   32SAPC   C29 4288   6.003   1.115   7.286  0.2698  0.0093 -0.8363
   32SAPC   H9R 4289   6.093   1.053   7.298 -0.5040 -1.4286 -2.2499
   32SAPC  C210 4290   5.945   1.202   7.395  0.4876 -0.1345  0.1933
   32SAPC  H10R 4291   5.896   1.293   7.354  0.9220  0.7238  1.5340
   32SAPC  H10S 4292   6.026   1.250   7.455 -0.5214 -0.1265  1.5739
   32SAPC  C211 4293   5.858   1.123   7.488  0.5905  0.1484 -0.2032
   32SAPC  H11R 4294   5.751   1.143   7.470  0.9343  1.3559 -0.9137
   32SAPC  C212 4295   5.895   1.052   7.591 -0.3806  0.1192 -0.0943
   32SAPC  H12R 4296   5.818   1.010   7.658 -2.4078  0.0843 -2.4108
   32SAPC  C213 4297   6.039   1.030   7.634 -0.8544  0.7819  0.2419
   32SAPC  H13R 4298   6.104   0.981   7.559 -0.7285 -0.7829  1.3603
   32SAPC  H13S 4299   6.036   0.948   7.709  0.4837  2.3477  2.0698
   32SAPC  C214 4300   6.116   1.148   7.695  0.5459  0.1956  0.0234
   32SAPC  H14R 4301   6.187   1.208   7.636  0.3694  1.9501  1.5321
   32SAPC  C215 4302   6.089   1.192   7.823 -0.6662  0.4697  0.1068
   32SAPC  H15R 4303   6.135   1.282   7.866 -1.0078  0.9368 -0.4881
   32SAPC  C216 4304   5.992   1.136   7.914 -0.0985  0.8167  0.1602
   32SAPC  H16R 4305   6.048   1.062   7.975 -0.0238  1.1418  0.4902
   32SAPC  H16S 4306   5.902   1.090   7.870 -0.1802  0.6643  0.4885
   32SAPC  C217 4307   5.947   1.243   8.017  0.0538 -0.4770  0.2437
   32SAPC  H17R 4308   6.030   1.297   8.066  0.3367  0.6081 -1.4160
   32SAPC  H17S 4309   5.882   1.203   8.098  1.7847  1.8469  2.8751
   32SAPC  C218 4310   5.862   1.358   7.968  0.3499  0.0749 -0.5145
   32SAPC  H18R 4311   5.769   1.312   7.931 -0.1166  1.6138 -1.3335
   32SAPC  H18S 4312   5.898   1.410   7.876  0.8262 -1.0638 -0.9696
   32SAPC  C219 4313   5.838   1.463   8.065 -0.7408 -0.3859 -0.0451
   32SAPC  H19R 4314   5.774   1.537   8.012  2.4229  0.7344 -2.4674
   32SAPC  H19S 4315   5.932   1.517   8.090 -1.8729  1.3175  0.6050
   32SAPC  C220 4316   5.767   1.423   8.200 -0.3429  0.8641 -0.1980
   32SAPC  H20R 4317   5.679   1.360   8.177 -0.4273  0.7705  0.3796
   32SAPC  H20S 4318   5.727   1.509   8.258 -1.0795 -0.5297  1.3983
   32SAPC  H20T 4319   5.831   1.359   8.264 -0.3313 -0.3165 -1.3772
   32SAPC   C33 4320   5.187   1.448   6.885  0.5499 -0.6959 -0.2090
   32SAPC   H3X 4321   5.110   1.375   6.852  0.0007 -1.1312  1.9921
   32SAPC   H3Y 4322   5.157   1.547   6.845  0.7512  0.3144  2.0949
   32SAPC   C34 4323   5.176   1.447   7.036 -0.6096  0.4487 -0.1305
   32SAPC   H4X 4324   5.076   1.492   7.055 -0.8645 -0.2386  0.1415
   32SAPC   H4Y 4325   5.253   1.511   7.084 -0.8295  2.2919 -2.1098
   32SAPC   C35 4326   5.187   1.309   7.096  0.2216  0.0731  0.6411
   32SAPC   H5X 4327   5.290   1.272   7.075 -0.1489 -1.0607  0.7857
   32SAPC   H5Y 4328   5.118   1.246   7.036  0.1603  0.4805  0.2788
   32SAPC   C36 4329   5.166   1.302   7.249  0.3267  0.7384 -0.2828
   32SAPC   H6X 4330   5.226   1.384   7.294  0.4209 -0.3320  1.5691
   32SAPC   H6Y 4331   5.215   1.210   7.286 -2.3250 -0.3575  0.6342
   32SAPC   C37 4332   5.022   1.292   7.295  0.0381 -0.2364  0.3254
   32SAPC   H7X 4333   4.955   1.226   7.235 -2.0173  0.2859  1.9592
   32SAPC   H7Y 4334   4.985   1.395   7.313 -0.1912 -0.2247 -0.1985
   32SAPC   C38 4335   5.018   1.245   7.442  0.1343  0.2952  0.4599
   32SAPC   H8X 4336   5.101   1.295   7.496  2.4361 -0.9982 -1.7870
   32SAPC   H8Y 4337   5.027   1.135   7.446  0.5782  0.3702  1.7268
   32SAPC   C39 4338   4.891   1.273   7.520 -0.5904  0.1534 -0.5068
   32SAPC   H9X 4339   4.808   1.257   7.447  0.9639 -0.7530 -2.1311
   32SAPC   H9Y 4340   4.896   1.374   7.564  1.3653  0.7788 -2.1040
   32SAPC  C310 4341   4.877   1.160   7.628 -0.2402  0.1784  0.0523
   32SAPC  H10X 4342   4.978   1.145   7.672  0.5087  0.2066 -1.6009
   32SAPC  H10Y 4343   4.870   1.061   7.577 -2.1741  0.7559 -0.8612
   32SAPC  C311 4344   4.772   1.199   7.730  0.3383  0.0258 -0.1871
   32SAPC  H11X 4345   4.673   1.185   7.683  0.4133 -0.5722 -0.1832
   32SAPC  H11Y 4346   4.796   1.302   7.764 -1.1224  0.2651  0.1301
   32SAPC  C312 4347   4.751   1.107   7.846  0.0572 -0.2528 -0.0872
   32SAPC  H12X 4348   4.836   1.113   7.918 -1.2836 -2.5577  1.7525
   32SAPC  H12Y 4349   4.721   1.010   7.802 -1.6760  0.2579 -0.0716
   32SAPC  C313 4350   4.637   1.136   7.937 -0.6662 -0.2648 -0.5052
   32SAPC  H13X 4351   4.630   1.047   8.003 -1.8284  1.6225  1.9753
   32SAPC  H13Y 4352   4.547   1.153   7.874 -1.5695 -1.5143  0.4194
   32SAPC  C314 4353   4.638   1.256   8.033 -0.6693  0.4677 -0.3002
   32SAPC  H14X 4354   4.634   1.347   7.969 -2.3568  0.5960 -0.0420
   32SAPC  H14Y 4355   4.736   1.256   8.085  0.7352 -3.3543 -2.6550
   32SAPC  C315 4356   4.513   1.253   8.133 -0.1479 -0.2109  0.9059
   32SAPC  H15X 4357   4.436   1.214   8.064 -0.5436  0.7458  0.7943
   32SAPC  H15Y 4358   4.487   1.360   8.148 -0.2562  0.2199 -2.0203
   32SAPC  C316 4359   4.525   1.160   8.258 -0.0629 -0.6482  0.3214
   32SAPC  H16X 4360   4.608   1.201   8.320 -0.4002 -0.5706  0.7198
   32SAPC  H16Y 4361   4.560   1.058   8.229  0.5207 -1.3069  3.1690
   32SAPC  C317 4362   4.414   1.160   8.358 -0.4225 -0.2866 -0.0021
   32SAPC  H17X 4363   4.331   1.123   8.294  0.0374 -2.7427  0.7777
   32SAPC  H17Y 4364   4.371   1.256   8.393 -1.0077 -0.3623 -0.5012
   32SAPC  C318 4365   4.432   1.071   8.475 -0.2778 -0.2780 -0.2688
   32SAPC  H18X 4366   4.341   1.049   8.534  1.2528 -1.5714  1.6921
   32SAPC  H18Y 4367   4.502   1.108   8.553 -2.1421  1.4222  0.6207
   32SAPC  H18Z 4368   4.465   0.969   8.443  0.4793 -0.0965 -0.0760
   33POPC     N 4369   1.325   2.199  10.670  0.2008 -0.2847 -0.2573
   33POPC   C12 4370   1.463   2.257  10.655  0.3041 -0.1998  0.2498
   33POPC  H12A 4371   1.518   2.239  10.746  1.1028 -0.4608 -0.2757
   33POPC  H12B 4372   1.449   2.364  10.653 -0.0490 -0.2186 -4.4035
   33POPC   C13 4373   1.240   2.271  10.764  0.0350  0.3394 -0.4618
   33POPC  H13A 4374   1.236   2.378  10.750 -0.7145  0.3835  0.0600
   33POPC  H13B 4375   1.138   2.235  10.767 -0.8529  2.8021  0.1258
   33POPC  H13C 4376   1.277   2.256  10.864 -0.7435 -0.6378 -0.3160
   33POPC   C14 4377   1.256   2.183  10.535 -0.0841  0.1396  0.2028
   33POPC  H14A 4378   1.217   2.271  10.486 -0.5595 -0.4393 -0.4704
   33POPC  H14B 4379   1.321   2.131  10.466  0.0050 -0.9630  1.1101
   33POPC  H14C 4380   1.169   2.120  10.535  0.0855 -0.1508 -2.9764
   33POPC   C15 4381   1.339   2.057  10.723  0.1996  0.2685 -1.0016
   33POPC  H15A 4382   1.244   2.006  10.715 -0.3652  1.4722 -2.3473
   33POPC  H15B 4383   1.372   2.039  10.824 -0.9874 -3.5432 -1.2313
   33POPC  H15C 4384   1.404   1.989  10.671  1.4766 -0.7218  1.8017
   33POPC   C11 4385   1.565   2.216  10.540  0.2142  0.7333  0.1994
   33POPC  H11A 4386   1.635   2.302  10.535  1.5758 -0.4900 -2.6431
   33POPC  H11B 4387   1.517   2.206  10.440 -0.5266 -0.7503  0.6884
   33POPC     P 4388   1.625   1.954  10.501  0.0429 -0.1637 -0.0255
   33POPC   O13 4389   1.511   1.880  10.545  0.3176  0.3521  0.2738
   33POPC   O14 4390   1.758   1.881  10.511  0.6412  0.5348 -0.7471
   33POPC   O12 4391   1.636   2.097  10.569  0.2960  0.6973  0.3201
   33POPC   O11 4392   1.602   1.998  10.349  0.0694  0.3714  0.1275
   33POPC    C1 4393   1.495   1.939  10.277  0.1192  0.4977 -0.1733
   33POPC    HA 4394   1.507   1.828  10.284 -0.1101  0.5685  1.6062
   33POPC    HB 4395   1.395   1.960  10.322  0.4680  0.0614  0.8265
   33POPC    C2 4396   1.502   1.961  10.125  0.4092  0.5736  0.2165
   33POPC    HS 4397   1.433   1.891  10.074  0.9338  0.5052 -0.3967
   33POPC   O21 4398   1.631   1.928  10.072 -0.4413  0.8795  0.2500
   33POPC   C21 4399   1.660   1.800  10.060  0.7019 -1.0335 -0.6132
   33POPC   O22 4400   1.581   1.706  10.058  0.0198  0.1722 -0.6037
   33POPC   C22 4401   1.818   1.783  10.047 -0.4310  0.3137  0.2842
   33POPC   H2R 4402   1.843   1.675  10.054  0.3391  0.5026  0.5097
   33POPC   H2S 4403   1.863   1.831  10.136  1.8658  0.0947 -0.7211
   33POPC    C3 4404   1.463   2.108  10.071 -0.3173 -0.0080 -0.3710
   33POPC    HX 4405   1.533   2.176  10.124  0.0805 -1.7671  1.4071
   33POPC    HY 4406   1.369   2.132  10.124 -0.0109 -1.8405  1.0392
   33POPC   O31 4407   1.455   2.114   9.928  0.0315  0.3455 -0.5022
   33POPC   C31 4408   1.564   2.140   9.859  0.2553  0.1702 -0.3310
   33POPC   O32 4409   1.681   2.149   9.905  0.0129 -0.2636 -0.1318
   33POPC   C32 4410   1.534   2.146   9.712  0.0399 -0.2174 -0.5316
   33POPC   H2X 4411   1.591   2.229   9.665  1.0859 -0.2300  0.6787
   33POPC   H2Y 4412   1.424   2.155   9.696  0.0396 -0.4603 -0.6596
   33POPC   C23 4413   1.883   1.861   9.930  0.0399 -0.0680  0.7409
   33POPC   H3R 4414   1.992   1.849   9.946  0.5471  0.6031 -1.9181
   33POPC   H3S 4415   1.865   1.970   9.940  0.1623  0.1101 -0.8953
   33POPC   C24 4416   1.859   1.808   9.786 -1.2469 -0.0871 -0.2909
   33POPC   H4R 4417   1.751   1.818   9.763 -1.2576 -0.3308 -0.3490
   33POPC   H4S 4418   1.880   1.699   9.780  2.7830  0.6826 -1.7995
   33POPC   C25 4419   1.954   1.870   9.678  0.3090  0.4687  0.4656
   33POPC   H5R 4420   2.064   1.869   9.691  0.6705  1.7720 -2.2255
   33POPC   H5S 4421   1.931   1.979   9.686 -0.0566  0.3246  1.5198
   33POPC   C26 4422   1.928   1.830   9.522 -1.0308 -0.4056 -0.2273
   33POPC   H6R 4423   1.988   1.888   9.449  0.4938 -1.3608  0.2420
   33POPC   H6S 4424   1.820   1.848   9.506 -0.9250  0.1050 -0.3835
   33POPC   C27 4425   1.951   1.682   9.500  0.0297 -0.0707  0.5826
   33POPC   H7R 4426   1.923   1.625   9.591  1.8833 -1.0159  0.5801
   33POPC   H7S 4427   2.061   1.670   9.491  0.0246  0.7255 -0.6639
   33POPC   C28 4428   1.883   1.621   9.376  0.3341  0.7782 -0.3453
   33POPC   H8R 4429   1.773   1.614   9.389  0.4439 -1.8253 -0.6567
   33POPC   H8S 4430   1.908   1.513   9.371  0.4933  0.7929  0.1392
   33POPC   C29 4431   1.927   1.698   9.259  0.1377  0.3797  0.5473
   33POPC   H91 4432   1.860   1.780   9.231  0.9621  0.1569 -2.2153
   33POPC  C210 4433   2.034   1.672   9.183  0.3179  0.3609 -0.1927
   33POPC  H101 4434   2.038   1.727   9.087 -1.3943 -3.1857 -2.4206
   33POPC  C211 4435   2.139   1.564   9.209 -0.2012 -0.0476  0.4308
   33POPC  H11R 4436   2.125   1.515   9.307  0.1525  0.9970  1.0113
   33POPC  H11S 4437   2.243   1.604   9.202 -1.3484  2.6934 -1.9918
   33POPC  C212 4438   2.130   1.459   9.104 -0.4032 -0.0415  0.2660
   33POPC  H12R 4439   2.152   1.503   9.004  0.5547  0.7297  0.8178
   33POPC  H12S 4440   2.034   1.412   9.072 -0.0105  1.1905 -2.9276
   33POPC  C213 4441   2.239   1.353   9.128 -0.4569  1.0577 -0.4961
   33POPC  H13R 4442   2.206   1.278   9.203 -0.9630 -1.0322 -2.7371
   33POPC  H13S 4443   2.334   1.400   9.162  0.7115 -2.3113  1.1119
   33POPC  C214 4444   2.266   1.275   8.996  0.2995  0.5986  0.0638
   33POPC  H14R 4445   2.276   1.352   8.916  0.3990 -0.6374 -1.1374
   33POPC  H14S 4446   2.175   1.220   8.965  1.6395 -2.0847  0.8103
   33POPC  C215 4447   2.379   1.182   8.994  0.0613 -0.0817 -0.2938
   33POPC  H15R 4448   2.476   1.231   9.014 -0.6797  1.0960  0.4825
   33POPC  H15S 4449   2.395   1.141   8.893 -1.9525  0.2749 -0.7847
   33POPC  C216 4450   2.364   1.065   9.089  0.0396  0.6454 -0.7722
   33POPC  H16R 4451   2.260   1.027   9.097  0.7722 -0.9757  1.2687
   33POPC  H16S 4452   2.392   1.113   9.185 -1.4583 -0.0152  0.0112
   33POPC  C217 4453   2.460   0.946   9.053  0.2145  0.1374 -0.0161
   33POPC  H17R 4454   2.563   0.984   9.068  0.1853  0.2785 -0.1715
   33POPC  H17S 4455   2.452   0.917   8.946 -1.0723 -0.7862  0.3217
   33POPC  C218 4456   2.447   0.817   9.134 -0.5352 -0.8337 -0.0722
   33POPC  H18R 4457   2.476   0.838   9.239 -1.6397  0.3810  0.0137
   33POPC  H18S 4458   2.509   0.734   9.096  0.7110 -0.1258  0.3985
   33POPC  H18T 4459   2.345   0.774   9.122 -1.4078  0.8274  1.0883
   33POPC   C33 4460   1.573   2.017   9.638 -0.5679 -0.0448 -0.5272
   33POPC   H3X 4461   1.678   1.990   9.664 -0.0788  0.4387 -1.9668
   33POPC   H3Y 4462   1.574   2.043   9.530  3.4853 -2.1162 -1.0937
   33POPC   C34 4463   1.484   1.896   9.674 -0.8480 -0.1448  0.3088
   33POPC   H4X 4464   1.379   1.932   9.672 -1.4266 -1.8888 -1.8794
   33POPC   H4Y 4465   1.518   1.868   9.776  0.1893 -0.2738 -0.0705
   33POPC   C35 4466   1.521   1.772   9.586  0.1499 -0.1119  0.0955
   33POPC   H5X 4467   1.459   1.684   9.612 -1.1540  0.0026 -2.4016
   33POPC   H5Y 4468   1.628   1.743   9.586 -0.0073 -0.7061 -0.6088
   33POPC   C36 4469   1.484   1.799   9.441 -0.5259  0.0076  0.1953
   33POPC   H6X 4470   1.570   1.862   9.412 -0.3547  1.2250  3.2278
   33POPC   H6Y 4471   1.390   1.858   9.430 -0.1191  0.7691  0.7786
   33POPC   C37 4472   1.478   1.668   9.358  0.2633 -0.3055 -0.2305
   33POPC   H7X 4473   1.374   1.632   9.369  0.4159 -0.2005  1.7575
   33POPC   H7Y 4474   1.549   1.590   9.393  2.2150  1.6733  0.3285
   33POPC   C38 4475   1.490   1.699   9.211  0.0360 -0.5659  0.0830
   33POPC   H8X 4476   1.577   1.769   9.209 -0.9080  0.5947 -0.9845
   33POPC   H8Y 4477   1.398   1.754   9.183 -0.4528  0.8531  4.1315
   33POPC   C39 4478   1.510   1.582   9.113 -0.5866  0.4438 -0.2445
   33POPC   H9X 4479   1.420   1.517   9.111 -0.2080 -0.0686 -4.0856
   33POPC   H9Y 4480   1.603   1.531   9.144 -1.3402 -1.8102 -1.5776
   33POPC  C310 4481   1.543   1.622   8.971  0.4919 -0.4264  0.3188
   33POPC  H10X 4482   1.626   1.696   8.966  0.8455 -0.7240  1.7099
   33POPC  H10Y 4483   1.453   1.676   8.933  1.6071  1.4292  0.2210
   33POPC  C311 4484   1.568   1.506   8.886 -0.2358 -0.2667  0.0837
   33POPC  H11X 4485   1.474   1.445   8.885 -0.9700  0.7566  2.3978
   33POPC  H11Y 4486   1.642   1.429   8.916  0.9901  0.9442  0.1711
   33POPC  C312 4487   1.601   1.540   8.736  0.0261  0.5701  0.0777
   33POPC  H12X 4488   1.618   1.443   8.686  1.7517  0.3052  1.1259
   33POPC  H12Y 4489   1.700   1.589   8.728  0.4672 -0.7751 -3.5081
   33POPC  C313 4490   1.495   1.625   8.663 -0.1781 -0.7997 -0.4349
   33POPC  H13X 4491   1.458   1.710   8.723 -2.9213 -2.0710 -0.2241
   33POPC  H13Y 4492   1.400   1.570   8.643 -1.3135  1.1369 -0.4491
   33POPC  C314 4493   1.557   1.675   8.528 -0.6874 -1.0404 -1.1231
   33POPC  H14X 4494   1.583   1.585   8.468 -1.0676 -0.8547 -1.5720
   33POPC  H14Y 4495   1.650   1.731   8.552 -2.2725  1.3174 -0.2360
   33POPC  C315 4496   1.482   1.762   8.426  0.0499 -0.1760  0.4097
   33POPC  H15X 4497   1.558   1.797   8.352  1.8752  0.4834  2.5198
   33POPC  H15Y 4498   1.444   1.853   8.478 -2.6756 -1.0517 -0.0237
   33POPC  C316 4499   1.372   1.682   8.352  0.2252  0.2856 -0.3603
   33POPC  H16X 4500   1.318   1.743   8.276 -1.5493  0.6540  1.1715
   33POPC  H16Y 4501   1.286   1.648   8.412  0.2640  1.4298  0.3578
   33POPC  H16Z 4502   1.417   1.596   8.298  0.1046  0.4822 -0.7831
   34POPC     N 4503   1.096   3.219  10.459 -0.0821 -0.4112  0.0815
   34POPC   C12 4504   0.979   3.128  10.501 -0.1862 -0.0197  0.2981
   34POPC  H12A 4505   0.902   3.140  10.427  0.6215 -2.7086 -1.0369
   34POPC  H12B 4506   0.931   3.156  10.594  1.3452 -0.9561  1.3862
   34POPC   C13 4507   1.149   3.171  10.325 -0.2954  0.3302  0.5276
   34POPC  H13A 4508   1.203   3.078  10.339 -0.9362 -0.1171  0.0571
   34POPC  H13B 4509   1.077   3.161  10.246  0.3029 -0.3954  0.0637
   34POPC  H13C 4510   1.228   3.234  10.288  0.4342  0.4488  2.2234
   34POPC   C14 4511   1.046   3.360  10.443  0.8929 -0.3820 -0.8502
   34POPC  H14A 4512   0.967   3.358  10.369 -1.3368  0.5752  1.4209
   34POPC  H14B 4513   1.002   3.406  10.531  1.5356 -0.9979 -0.1998
   34POPC  H14C 4514   1.123   3.423  10.402  0.5232  0.4291 -0.3120
   34POPC   C15 4515   1.211   3.204  10.550 -0.4275 -0.1989  0.4095
   34POPC  H15A 4516   1.289   3.278  10.543 -1.1094  0.6060  1.1551
   34POPC  H15B 4517   1.245   3.105  10.525 -0.1225  0.0228 -0.0470
   34POPC  H15C 4518   1.173   3.211  10.651 -0.9245 -0.5987  0.2570
   34POPC   C11 4519   1.012   2.974  10.516 -0.1052 -0.5328 -0.5379
   34POPC  H11A 4520   1.032   2.926  10.419  1.2345 -1.4297  0.1651
   34POPC  H11B 4521   0.919   2.935  10.563 -0.1051  0.7583  0.5848
   34POPC     P 4522   1.140   2.791  10.658  0.1416 -0.1031 -0.0476
   34POPC   O13 4523   1.012   2.746  10.706  1.1016  0.3542  0.0316
   34POPC   O14 4524   1.237   2.809  10.767  0.4390  0.0138  0.0947
   34POPC   O12 4525   1.116   2.938  10.606  0.2558 -0.2186 -0.0232
   34POPC   O11 4526   1.200   2.703  10.545  0.2706  0.4395  0.0178
   34POPC    C1 4527   1.173   2.566  10.526 -0.3767  0.4307  0.9002
   34POPC    HA 4528   1.088   2.534  10.589 -1.6898  1.6157 -0.2516
   34POPC    HB 4529   1.259   2.503  10.558  0.1548  0.3556 -0.6349
   34POPC    C2 4530   1.133   2.533  10.376 -0.0780  0.3942 -0.1201
   34POPC    HS 4531   1.127   2.422  10.364  1.1663  0.5469 -2.4930
   34POPC   O21 4532   1.226   2.588  10.280 -0.0833 -0.0346 -1.0222
   34POPC   C21 4533   1.338   2.522  10.268 -0.0664 -0.1480 -0.5504
   34POPC   O22 4534   1.372   2.428  10.338  0.0789 -0.5667  0.2207
   34POPC   C22 4535   1.418   2.572  10.149  0.1712 -0.0604  1.0569
   34POPC   H2R 4536   1.523   2.551  10.179  0.1949 -1.0854  0.2563
   34POPC   H2S 4537   1.401   2.681  10.135  0.4955 -0.3357 -1.6112
   34POPC    C3 4538   0.989   2.587  10.354 -0.4548  0.0977  0.1439
   34POPC    HX 4539   0.995   2.693  10.384  5.2551 -0.0469  0.1031
   34POPC    HY 4540   0.923   2.528  10.421 -0.7502  0.3026  0.0327
   34POPC   O31 4541   0.950   2.562  10.218 -0.3523 -0.6365 -0.0905
   34POPC   C31 4542   0.936   2.655  10.136  0.9080 -0.8247  0.0860
   34POPC   O32 4543   0.942   2.776  10.161 -0.1120  0.0679  0.9978
   34POPC   C32 4544   0.926   2.590   9.993 -0.8032  0.1898  0.0539
   34POPC   H2X 4545   0.830   2.533   9.994  0.3326 -1.7802  0.6708
   34POPC   H2Y 4546   1.012   2.519   9.996 -0.3010  0.8293  2.6393
   34POPC   C23 4547   1.380   2.502  10.019 -0.0882 -0.0467  0.1439
   34POPC   H3R 4548   1.269   2.501  10.011 -0.0968 -2.0033  0.2685
   34POPC   H3S 4549   1.385   2.391  10.012 -1.8569 -0.1601  0.3133
   34POPC   C24 4550   1.458   2.562   9.896  0.1310 -0.7794  0.3939
   34POPC   H4R 4551   1.563   2.526   9.893  1.3053  2.4703  0.4039
   34POPC   H4S 4552   1.460   2.672   9.916 -1.0914 -0.9803  1.6937
   34POPC   C25 4553   1.382   2.529   9.769  0.5155  0.3261 -0.6031
   34POPC   H5R 4554   1.279   2.569   9.778  0.9397  1.1497  0.8377
   34POPC   H5S 4555   1.380   2.421   9.747 -5.0370  0.2266 -0.1524
   34POPC   C26 4556   1.455   2.602   9.654  0.2260  0.1809 -0.5793
   34POPC   H6R 4557   1.562   2.587   9.682  0.2473  1.5434  0.0997
   34POPC   H6S 4558   1.435   2.711   9.654  1.0631  0.3426 -0.1765
   34POPC   C27 4559   1.415   2.542   9.520 -0.9072 -0.4958  0.2386
   34POPC   H7R 4560   1.314   2.571   9.483 -1.2570 -2.8715 -0.7250
   34POPC   H7S 4561   1.411   2.432   9.528 -0.9500 -0.5246 -0.1494
   34POPC   C28 4562   1.522   2.569   9.409 -0.3226  0.0836  1.1360
   34POPC   H8R 4563   1.491   2.532   9.309  1.0550 -1.7415  1.3630
   34POPC   H8S 4564   1.606   2.500   9.430 -0.1306 -0.1568 -0.3475
   34POPC   C29 4565   1.586   2.714   9.395  0.6506 -0.5227 -0.2909
   34POPC   H91 4566   1.635   2.756   9.484 -0.5497 -1.6383  0.9433
   34POPC  C210 4567   1.584   2.800   9.297 -0.2003  0.1119  0.6662
   34POPC  H101 4568   1.642   2.892   9.307 -1.2420  0.7106  1.2870
   34POPC  C211 4569   1.520   2.776   9.161  0.1520 -0.4716  0.4042
   34POPC  H11R 4570   1.454   2.862   9.136 -1.5235 -2.1673 -1.1910
   34POPC  H11S 4571   1.455   2.686   9.156  0.6210 -0.7958  0.1075
   34POPC  C212 4572   1.627   2.772   9.053 -1.3111  0.4998 -0.0730
   34POPC  H12R 4573   1.592   2.732   8.955  0.4866  0.6579 -0.7916
   34POPC  H12S 4574   1.701   2.702   9.097 -0.3187  2.6273  1.7184
   34POPC  C213 4575   1.703   2.899   9.014 -0.3836 -0.6434  0.2085
   34POPC  H13R 4576   1.792   2.873   8.953 -0.0282  1.7021 -0.3309
   34POPC  H13S 4577   1.751   2.961   9.093  0.2772 -1.9833  0.8694
   34POPC  C214 4578   1.619   2.983   8.917 -0.6858 -0.3269 -0.7290
   34POPC  H14R 4579   1.671   3.081   8.921 -2.5567  0.7132 -1.3687
   34POPC  H14S 4580   1.515   3.013   8.944 -0.7456 -1.8463  0.7362
   34POPC  C215 4581   1.615   2.933   8.772 -0.6419  0.2205  0.7980
   34POPC  H15R 4582   1.558   2.838   8.776  1.0893 -0.8009  2.9190
   34POPC  H15S 4583   1.717   2.907   8.736 -0.5190  0.7712  0.7465
   34POPC  C216 4584   1.547   3.015   8.664  0.6433  0.4095 -0.1599
   34POPC  H16R 4585   1.449   3.049   8.704 -0.4236 -2.0609 -0.5782
   34POPC  H16S 4586   1.517   2.963   8.571 -2.5265  0.8418  0.5552
   34POPC  C217 4587   1.632   3.133   8.631  0.2944  0.5651 -0.0945
   34POPC  H17R 4588   1.727   3.092   8.588  0.0097 -2.5358  2.0872
   34POPC  H17S 4589   1.662   3.181   8.727  1.2010  1.0746 -0.6165
   34POPC  C218 4590   1.572   3.235   8.537  0.1936  0.6353 -0.0151
   34POPC  H18R 4591   1.637   3.325   8.535 -0.3174  1.0413  0.9253
   34POPC  H18S 4592   1.470   3.272   8.564 -0.5640 -0.1049 -1.8299
   34POPC  H18T 4593   1.583   3.189   8.437 -0.5906 -1.8679  1.0140
   34POPC   C33 4594   0.935   2.691   9.876 -0.7253  0.0052 -0.0472
   34POPC   H3X 4595   1.036   2.735   9.892 -0.5427 -0.9907  1.8080
   34POPC   H3Y 4596   0.852   2.764   9.886 -1.9183 -1.2055 -0.9719
   34POPC   C34 4597   0.928   2.614   9.740  0.5590 -0.4651 -0.2471
   34POPC   H4X 4598   0.823   2.584   9.720  0.3595 -0.0904  0.2289
   34POPC   H4Y 4599   0.991   2.523   9.749  1.5999  0.1401 -1.2276
   34POPC   C35 4600   0.992   2.686   9.616  0.1696 -0.7725 -0.2059
   34POPC   H5X 4601   1.093   2.721   9.649 -0.6064  0.3345  1.0504
   34POPC   H5Y 4602   0.934   2.780   9.605 -1.5520 -1.6571  1.0380
   34POPC   C36 4603   1.001   2.607   9.482  0.0935  0.0680 -0.0235
   34POPC   H6X 4604   0.899   2.589   9.440 -0.0028  0.0048  0.2366
   34POPC   H6Y 4605   1.054   2.510   9.493 -4.2896 -2.2852  1.5177
   34POPC   C37 4606   1.062   2.696   9.370 -0.1006  0.0202 -0.0633
   34POPC   H7X 4607   1.171   2.700   9.393 -0.0330 -0.1588 -0.3450
   34POPC   H7Y 4608   1.009   2.793   9.370  2.7658  1.6621 -2.2976
   34POPC   C38 4609   1.043   2.637   9.221  0.1219  0.3034  0.3023
   34POPC   H8X 4610   0.937   2.635   9.188  0.3323  1.3860 -0.4705
   34POPC   H8Y 4611   1.074   2.531   9.230 -0.6931  0.1804  1.7157
   34POPC   C39 4612   1.129   2.716   9.120  0.7219 -0.8164 -0.3711
   34POPC   H9X 4613   1.141   2.659   9.025 -1.3661 -0.6223 -0.7823
   34POPC   H9Y 4614   1.227   2.734   9.170  0.5453 -0.2878 -0.2176
   34POPC  C310 4615   1.059   2.843   9.079 -0.0224 -0.3041 -0.1500
   34POPC  H10X 4616   1.052   2.909   9.169 -0.9245 -0.9991  0.2993
   34POPC  H10Y 4617   0.960   2.817   9.034  0.3859  0.5979 -1.5987
   34POPC  C311 4618   1.131   2.922   8.962  0.0503  0.0436 -0.0201
   34POPC  H11X 4619   1.117   2.859   8.871 -0.0508  0.9200 -0.6257
   34POPC  H11Y 4620   1.240   2.922   8.981  0.0757 -1.6771 -0.1365
   34POPC  C312 4621   1.087   3.074   8.954 -0.0702  0.5845  0.2231
   34POPC  H12X 4622   1.091   3.120   9.055 -0.5631  1.8209 -0.2984
   34POPC  H12Y 4623   0.983   3.079   8.916  0.9212  3.2788 -2.3464
   34POPC  C313 4624   1.162   3.163   8.850 -0.9305  0.1643 -0.3907
   34POPC  H13X 4625   1.178   3.103   8.758  2.2435 -0.2580  0.3827
   34POPC  H13Y 4626   1.263   3.171   8.895 -1.7227 -0.2852  1.5361
   34POPC  C314 4627   1.084   3.285   8.814 -0.5317  0.4795  0.9821
   34POPC  H14X 4628   1.094   3.346   8.906  1.9316  0.1718  0.9341
   34POPC  H14Y 4629   0.974   3.266   8.810 -0.5263  0.5822  0.2941
   34POPC  C315 4630   1.138   3.363   8.689  0.2684  0.0384 -0.2150
   34POPC  H15X 4631   1.061   3.431   8.648 -1.1399 -0.7293  1.1088
   34POPC  H15Y 4632   1.167   3.287   8.614 -3.4904 -1.4426 -0.2518
   34POPC  C316 4633   1.271   3.442   8.715 -0.3371  0.7210  0.1243
   34POPC  H16X 4634   1.347   3.364   8.740 -1.8687 -0.6169  0.7447
   34POPC  H16Y 4635   1.249   3.513   8.797 -0.2685  2.0141 -0.9619
   34POPC  H16Z 4636   1.297   3.500   8.624 -1.6093  2.4668  0.8504
   35POPC     N 4637   0.879   0.144  11.300  0.2727 -0.3729  0.0442
   35POPC   C12 4638   0.812   0.028  11.379 -0.1717 -0.0430 -0.4962
   35POPC  H12A 4639   0.837   0.039  11.484  0.0065 -0.2954 -0.5110
   35POPC  H12B 4640   0.850  -0.068  11.346  1.5288  1.6398 -3.6026
   35POPC   C13 4641   0.845   0.273  11.376  0.2578  0.2912  0.8445
   35POPC  H13A 4642   0.744   0.286  11.412  0.0113 -0.0766  0.2902
   35POPC  H13B 4643   0.912   0.288  11.459 -0.5594 -0.6988  1.6890
   35POPC  H13C 4644   0.852   0.354  11.304  0.3769 -0.6492 -0.2227
   35POPC   C14 4645   1.027   0.131  11.302 -0.4621  0.4639 -0.8276
   35POPC  H14A 4646   1.089   0.208  11.259 -0.4205  1.3083  0.7118
   35POPC  H14B 4647   1.059   0.139  11.405 -1.1639  2.2410 -0.7262
   35POPC  H14C 4648   1.048   0.032  11.266  0.4583  0.2939  0.1486
   35POPC   C15 4649   0.822   0.154  11.165 -0.0232  0.0923 -0.3077
   35POPC  H15A 4650   0.845   0.070  11.101 -1.4527 -1.0040  0.5987
   35POPC  H15B 4651   0.861   0.244  11.119  1.3357 -1.9716 -3.4226
   35POPC  H15C 4652   0.715   0.166  11.156 -0.0508  0.2239  0.1890
   35POPC   C11 4653   0.654   0.017  11.374  0.0683 -0.2103  0.5657
   35POPC  H11A 4654   0.605   0.115  11.392  1.0238  0.7052 -1.6464
   35POPC  H11B 4655   0.634  -0.049  11.462 -0.0458 -0.6078  0.2437
   35POPC     P 4656   0.490   0.002  11.173 -0.5454 -0.0649  0.0139
   35POPC   O13 4657   0.363  -0.027  11.248  0.2855 -0.0840 -0.0207
   35POPC   O14 4658   0.501  -0.057  11.040  0.0655 -0.3042 -0.1054
   35POPC   O12 4659   0.614  -0.054  11.258  0.1581  0.0358  0.0389
   35POPC   O11 4660   0.511   0.157  11.164  0.2669 -0.5090 -0.3837
   35POPC    C1 4661   0.438   0.242  11.080  0.3501 -0.0574 -0.1757
   35POPC    HA 4662   0.389   0.320  11.144  2.4639  0.5637  0.7393
   35POPC    HB 4663   0.361   0.192  11.017 -1.0304  2.0168 -0.1920
   35POPC    C2 4664   0.517   0.326  10.981  0.6100 -1.4013  0.7322
   35POPC    HS 4665   0.438   0.370  10.916  0.2819 -1.3440  1.1694
   35POPC   O21 4666   0.617   0.252  10.912 -0.2277  0.2101 -0.0047
   35POPC   C21 4667   0.562   0.177  10.819  0.3346 -0.8019  0.1739
   35POPC   O22 4668   0.446   0.171  10.786  0.2465  0.5357 -0.1049
   35POPC   C22 4669   0.672   0.088  10.745 -0.0483 -0.1794  0.2190
   35POPC   H2R 4670   0.725   0.029  10.823 -0.4048 -2.2760 -1.0956
   35POPC   H2S 4671   0.739   0.162  10.698  2.0186 -0.8007  2.0959
   35POPC    C3 4672   0.592   0.431  11.062 -0.3798 -0.6683  0.1427
   35POPC    HX 4673   0.655   0.375  11.135  2.3596  0.9651 -0.9090
   35POPC    HY 4674   0.517   0.494  11.114 -1.2821 -0.6707 -1.1550
   35POPC   O31 4675   0.670   0.526  10.978 -0.3376 -0.4078  0.1476
   35POPC   C31 4676   0.802   0.522  10.994 -0.4012  0.6015 -0.9629
   35POPC   O32 4677   0.865   0.478  11.089 -0.5064  0.1583  0.3216
   35POPC   C32 4678   0.862   0.617  10.886  0.5380  0.3996  0.0267
   35POPC   H2X 4679   0.959   0.647  10.929  1.0960  0.0168 -0.9629
   35POPC   H2Y 4680   0.807   0.714  10.888  1.2493  0.8035 -0.0765
   35POPC   C23 4681   0.598  -0.008  10.650  0.3721  0.0518  0.0977
   35POPC   H3R 4682   0.503   0.037  10.615  1.1260  1.7995  0.2673
   35POPC   H3S 4683   0.576  -0.100  10.708  0.8183  0.1739  0.4634
   35POPC   C24 4684   0.685  -0.035  10.525 -0.3418  0.0549  0.2558
   35POPC   H4R 4685   0.792  -0.037  10.553 -0.0265 -1.6414 -0.9406
   35POPC   H4S 4686   0.671   0.043  10.447  0.2108 -0.4242 -0.3319
   35POPC   C25 4687   0.655  -0.164  10.454 -0.2284 -0.0755 -0.7543
   35POPC   H5R 4688   0.561  -0.152  10.396 -0.4662 -0.7716 -0.5140
   35POPC   H5S 4689   0.643  -0.245  10.528 -1.5476  1.0021  0.2217
   35POPC   C26 4690   0.762  -0.196  10.349  1.3469 -0.1862  0.0499
   35POPC   H6R 4691   0.850  -0.236  10.404  1.1063  0.5463  0.9712
   35POPC   H6S 4692   0.791  -0.102  10.298  0.1257  0.7762  1.1074
   35POPC   C27 4693   0.716  -0.312  10.250 -0.3876  0.1264  0.0753
   35POPC   H7R 4694   0.623  -0.292  10.193  1.1080 -2.0475 -3.3172
   35POPC   H7S 4695   0.708  -0.403  10.313  0.4201  0.0526  0.0789
   35POPC   C28 4696   0.835  -0.347  10.154 -0.4671  0.1332 -0.4651
   35POPC   H8R 4697   0.801  -0.442  10.107  2.4048 -0.5448 -1.2679
   35POPC   H8S 4698   0.920  -0.376  10.219 -0.8678 -1.6289 -0.7068
   35POPC   C29 4699   0.858  -0.238  10.058 -0.2421  0.0946 -0.4972
   35POPC   H91 4700   0.860  -0.135  10.098 -1.6272 -0.7097  1.7809
   35POPC  C210 4701   0.854  -0.259   9.927 -0.0864  0.3452 -0.2512
   35POPC  H101 4702   0.874  -0.179   9.853  0.5549  2.1806  1.8629
   35POPC  C211 4703   0.830  -0.386   9.851 -0.9931 -0.4303  0.1126
   35POPC  H11R 4704   0.720  -0.403   9.855 -0.8618 -1.0713  1.1841
   35POPC  H11S 4705   0.869  -0.470   9.911  0.4403  1.0786  1.3404
   35POPC  C212 4706   0.892  -0.389   9.713 -0.0244 -0.2193  0.8478
   35POPC  H12R 4707   0.892  -0.495   9.680 -2.5041  0.0617 -0.1247
   35POPC  H12S 4708   0.998  -0.355   9.716  1.2385 -3.7307 -0.7630
   35POPC  C213 4709   0.812  -0.306   9.613 -0.6436 -0.6423  0.1233
   35POPC  H13R 4710   0.809  -0.203   9.657  3.7088  0.3659 -1.6628
   35POPC  H13S 4711   0.705  -0.334   9.605 -0.8637  0.7007 -2.0128
   35POPC  C214 4712   0.883  -0.286   9.478 -0.1327  0.1373  0.3142
   35POPC  H14R 4713   0.990  -0.271   9.501 -0.6055 -0.1924  2.8698
   35POPC  H14S 4714   0.847  -0.193   9.430  3.1691  1.2877 -0.0120
   35POPC  C215 4715   0.875  -0.397   9.379 -0.2079 -0.0544 -0.4249
   35POPC  H15R 4716   0.778  -0.378   9.329 -0.0259 -0.9743 -1.1352
   35POPC  H15S 4717   0.868  -0.500   9.420  0.4274  0.6254  1.4420
   35POPC  C216 4718   0.972  -0.386   9.261  0.2419 -0.1056 -0.2360
   35POPC  H16R 4719   1.067  -0.439   9.281 -0.1724 -0.8372 -0.2091
   35POPC  H16S 4720   1.000  -0.278   9.262 -0.1447 -0.0022  0.7923
   35POPC  C217 4721   0.929  -0.416   9.118  1.2722  0.1193 -0.1207
   35POPC  H17R 4722   0.833  -0.365   9.095  1.5971  0.4841 -0.6861
   35POPC  H17S 4723   0.936  -0.526   9.112  1.0704  0.1237 -0.4292
   35POPC  C218 4724   1.025  -0.343   9.024  0.1066 -0.3038  0.2327
   35POPC  H18R 4725   1.128  -0.382   9.040  0.9360  1.8196  0.3302
   35POPC  H18S 4726   1.019  -0.233   9.043  0.1816 -0.3264  0.3897
   35POPC  H18T 4727   0.993  -0.364   8.920  0.5588 -0.6376  0.1581
   35POPC   C33 4728   0.878   0.550  10.745  0.6213  0.5875  0.4303
   35POPC   H3X 4729   0.934   0.454  10.752 -1.2685 -0.4468  1.7675
   35POPC   H3Y 4730   0.935   0.616  10.676 -1.5428 -0.0157 -2.0064
   35POPC   C34 4731   0.737   0.539  10.679 -0.5720  0.4249  0.5069
   35POPC   H4X 4732   0.710   0.647  10.674  1.3608  0.9396  0.4018
   35POPC   H4Y 4733   0.671   0.491  10.754 -0.3478  0.7568  0.9183
   35POPC   C35 4734   0.724   0.465  10.543  0.4967 -0.3404 -0.5378
   35POPC   H5X 4735   0.750   0.362  10.574  1.9172  0.1186 -0.1757
   35POPC   H5Y 4736   0.788   0.504  10.462  1.1696 -0.1885  0.0634
   35POPC   C36 4737   0.573   0.471  10.504 -0.1799 -0.4446 -0.0804
   35POPC   H6X 4738   0.545   0.574  10.474  1.3063  0.2591  0.9098
   35POPC   H6Y 4739   0.512   0.436  10.590 -0.9180 -0.1421 -0.4754
   35POPC   C37 4740   0.542   0.379  10.388  0.3626 -0.4618 -0.0523
   35POPC   H7X 4741   0.432   0.363  10.385  0.1474  0.9307  0.0895
   35POPC   H7Y 4742   0.594   0.283  10.406 -0.1377 -0.7711 -0.2381
   35POPC   C38 4743   0.581   0.448  10.256  0.7507 -1.0122  0.0465
   35POPC   H8X 4744   0.687   0.478  10.265  0.6392 -0.7698  0.6059
   35POPC   H8Y 4745   0.524   0.543  10.242  4.0610  0.8180 -1.4700
   35POPC   C39 4746   0.556   0.355  10.135 -0.3882  0.1647  0.7351
   35POPC   H9X 4747   0.449   0.326  10.127 -0.3736  0.1044  0.7619
   35POPC   H9Y 4748   0.618   0.263  10.142  1.2194  1.2022  0.5712
   35POPC  C310 4749   0.581   0.432  10.006  0.1121 -0.4524 -0.1275
   35POPC  H10X 4750   0.688   0.462  10.007 -0.6661  2.4858  2.6182
   35POPC  H10Y 4751   0.507   0.515  10.004  1.2109  0.5217 -1.6481
   35POPC  C311 4752   0.566   0.347   9.879  0.4677  0.8713  0.2726
   35POPC  H11X 4753   0.471   0.291   9.890 -0.9385  3.2885  0.7056
   35POPC  H11Y 4754   0.649   0.273   9.875  0.1268  0.3963  1.6007
   35POPC  C312 4755   0.544   0.425   9.749 -0.0200  0.4874 -0.6655
   35POPC  H12X 4756   0.482   0.510   9.784 -1.2045 -0.6374  0.0614
   35POPC  H12Y 4757   0.480   0.364   9.682  0.8758 -0.4535 -0.6694
   35POPC  C313 4758   0.670   0.476   9.683  0.4068 -0.1285  0.5194
   35POPC  H13X 4759   0.733   0.385   9.672  2.9209  1.5195  0.8647
   35POPC  H13Y 4760   0.725   0.547   9.748  0.2841 -0.3835  0.9080
   35POPC  C314 4761   0.645   0.528   9.542 -0.3620  0.0385  0.1542
   35POPC  H14X 4762   0.737   0.554   9.486 -0.6490 -0.7454 -0.6892
   35POPC  H14Y 4763   0.590   0.625   9.554  0.2211  0.5323 -1.0342
   35POPC  C315 4764   0.571   0.430   9.455  0.3489  0.2408  0.5952
   35POPC  H15X 4765   0.470   0.403   9.495 -0.4244  2.2328  0.0640
   35POPC  H15Y 4766   0.633   0.338   9.454  1.6264  1.1063 -0.1413
   35POPC  C316 4767   0.546   0.474   9.312 -0.6086  0.3668 -0.3805
   35POPC  H16X 4768   0.638   0.517   9.267  0.1831  0.6809  1.5125
   35POPC  H16Y 4769   0.464   0.545   9.293 -2.1417 -1.3983 -0.4854
   35POPC  H16Z 4770   0.526   0.378   9.260  1.5141 -0.8780  0.9933
   36POPC     N 4771   0.065   4.866  11.054 -0.3963  0.0209 -0.1886
   36POPC   C12 4772   0.140   4.881  10.921  0.3532 -0.0850 -0.6290
   36POPC  H12A 4773   0.122   4.800  10.852  0.1587  0.0435 -0.7291
   36POPC  H12B 4774   0.246   4.873  10.941  0.2104 -1.2909 -0.3262
   36POPC   C13 4775   0.127   4.957  11.151  0.1582 -0.0727  0.0233
   36POPC  H13A 4776   0.159   5.048  11.101 -0.0781  1.1558  2.0633
   36POPC  H13B 4777   0.051   4.981  11.224 -0.9501  0.5711 -1.3204
   36POPC  H13C 4778   0.215   4.917  11.199 -0.5679 -2.0108 -0.2187
   36POPC   C14 4779  -0.080   4.898  11.050  0.9454  0.4406 -0.5070
   36POPC  H14A 4780  -0.111   4.993  11.008  0.6774  0.4416 -0.3106
   36POPC  H14B 4781  -0.137   4.816  11.008 -0.0631 -0.3627  2.2466
   36POPC  H14C 4782  -0.109   4.897  11.155  0.5795 -0.1083 -0.6101
   36POPC   C15 4783   0.093   4.729  11.104 -0.1479 -0.4404  0.7413
   36POPC  H15A 4784   0.058   4.722  11.206 -2.0490  2.2185  0.3307
   36POPC  H15B 4785   0.200   4.719  11.108  0.0789 -0.4512 -3.6219
   36POPC  H15C 4786   0.054   4.648  11.045  3.3852 -1.6545 -0.0582
   36POPC   C11 4787   0.122   5.005  10.843 -0.9297  0.2294 -0.4291
   36POPC  H11A 4788   0.020   5.018  10.802 -0.3703  0.3929 -1.7960
   36POPC  H11B 4789   0.175   4.993  10.746 -0.1505  0.8851 -0.0882
   36POPC     P 4790   0.322   5.150  10.908  0.5934  0.2708  0.2786
   36POPC   O13 4791   0.402   5.026  10.944  0.0333 -0.0191  0.8624
   36POPC   O14 4792   0.342   5.270  10.998 -0.7208  0.1200 -0.1581
   36POPC   O12 4793   0.172   5.120  10.909  0.3518  0.4816  0.5267
   36POPC   O11 4794   0.353   5.191  10.764 -0.2293 -0.1243 -0.2456
   36POPC    C1 4795   0.289   5.309  10.715  0.4729  0.2644  0.3143
   36POPC    HA 4796   0.312   5.396  10.779 -0.4395 -0.2165  1.3160
   36POPC    HB 4797   0.180   5.298  10.696  0.5270  0.2900 -0.0119
   36POPC    C2 4798   0.353   5.337  10.577 -0.1543  0.3856  0.4030
   36POPC    HS 4799   0.288   5.400  10.512  1.0630 -1.8279 -3.0975
   36POPC   O21 4800   0.370   5.217  10.495  0.0519 -0.7089 -0.0966
   36POPC   C21 4801   0.259   5.144  10.478  0.2164  0.0627  0.3949
   36POPC   O22 4802   0.143   5.177  10.493  0.1857  0.4167 -0.0687
   36POPC   C22 4803   0.297   5.024  10.394 -0.7330 -0.3253 -0.2300
   36POPC   H2R 4804   0.261   4.935  10.449 -0.0803  0.1050  0.9103
   36POPC   H2S 4805   0.406   5.009  10.407 -0.5740  0.5990 -0.4265
   36POPC    C3 4806   0.488   5.420  10.586 -0.2119 -0.7417  0.4243
   36POPC    HX 4807   0.577   5.360  10.616  1.4226  1.2998 -0.1386
   36POPC    HY 4808   0.469   5.491  10.670  0.9336 -1.5140  1.3572
   36POPC   O31 4809   0.507   5.477  10.457 -0.2121 -0.3769 -0.2040
   36POPC   C31 4810   0.601   5.568  10.459  0.0026  0.3174 -0.6156
   36POPC   O32 4811   0.657   5.599  10.566  0.4243 -0.1356  0.0404
   36POPC   C32 4812   0.614   5.636  10.331  0.7029  0.1974  0.1115
   36POPC   H2X 4813   0.712   5.688  10.335  0.4131  0.8296 -0.8830
   36POPC   H2Y 4814   0.536   5.714  10.316 -0.8502 -1.2016  0.7447
   36POPC   C23 4815   0.247   5.034  10.248  0.0529  0.5041  0.1117
   36POPC   H3R 4816   0.156   5.097  10.262  0.5536  1.5908 -1.5103
   36POPC   H3S 4817   0.204   4.937  10.214  0.0046  1.0700 -1.4395
   36POPC   C24 4818   0.355   5.089  10.152  0.9557  0.3100 -0.3485
   36POPC   H4R 4819   0.432   5.010  10.141  0.2817 -0.2555 -1.1356
   36POPC   H4S 4820   0.394   5.183  10.196  1.3744 -0.0972  0.1563
   36POPC   C25 4821   0.297   5.117  10.012  0.3513 -0.4109  0.0020
   36POPC   H5R 4822   0.378   5.151   9.945 -0.3513 -0.5486 -0.9234
   36POPC   H5S 4823   0.220   5.195  10.028  1.0536 -0.4351  4.1179
   36POPC   C26 4824   0.226   4.994   9.944 -0.2569 -0.1701  0.4374
   36POPC   H6R 4825   0.118   4.983   9.967 -0.5574 -1.0915 -1.3610
   36POPC   H6S 4826   0.283   4.905   9.981 -0.1952 -0.0481  0.6369
   36POPC   C27 4827   0.247   4.993   9.796  0.3742  0.5464 -0.7318
   36POPC   H7R 4828   0.356   5.003   9.776  0.7378 -1.1598  0.3796
   36POPC   H7S 4829   0.193   5.082   9.755  2.9007  2.3074 -0.4019
   36POPC   C28 4830   0.190   4.867   9.720 -0.1770  0.4239  1.0365
   36POPC   H8R 4831   0.196   4.779   9.788 -1.0374 -0.9919 -0.6429
   36POPC   H8S 4832   0.264   4.863   9.637 -0.7558 -1.3746  0.5724
   36POPC   C29 4833   0.052   4.878   9.665  0.1028 -1.0987 -0.4629
   36POPC   H91 4834  -0.020   4.913   9.741 -1.3621 -0.7661 -1.9755
   36POPC  C210 4835   0.007   4.872   9.539  0.1737 -0.5083  0.1211
   36POPC  H101 4836  -0.093   4.905   9.505 -0.3973 -1.4751  0.8236
   36POPC  C211 4837   0.091   4.842   9.414 -0.6099 -1.5507 -0.0086
   36POPC  H11R 4838   0.053   4.763   9.346 -0.7131 -1.6914  0.2109
   36POPC  H11S 4839   0.184   4.787   9.438  0.3338  0.4333  0.9616
   36POPC  C212 4840   0.119   4.964   9.322 -0.0583  0.0577 -0.2331
   36POPC  H12R 4841   0.190   4.935   9.242  0.6936  1.8422 -0.2270
   36POPC  H12S 4842   0.166   5.045   9.382 -3.9479  1.6611  0.8226
   36POPC  C213 4843  -0.009   5.011   9.260  0.3832  0.7780 -0.1496
   36POPC  H13R 4844  -0.065   5.059   9.343  2.0972 -0.9492  2.0912
   36POPC  H13S 4845  -0.065   4.921   9.227  1.1047  0.1961  0.1911
   36POPC  C214 4846   0.026   5.115   9.151 -0.5381  0.0403 -0.1578
   36POPC  H14R 4847   0.071   5.055   9.069  0.8034  0.8611 -0.0520
   36POPC  H14S 4848   0.084   5.196   9.201  0.0676 -0.7470  0.4405
   36POPC  C215 4849  -0.100   5.173   9.084 -0.4246  0.3861 -0.4233
   36POPC  H15R 4850  -0.162   5.212   9.168  0.3606  0.0387  0.3222
   36POPC  H15S 4851  -0.162   5.096   9.032  0.9822 -0.8557 -0.2842
   36POPC  C216 4852  -0.056   5.270   8.981 -0.0535  0.3448 -0.0265
   36POPC  H16R 4853  -0.007   5.222   8.894  2.6493 -0.7702  2.0509
   36POPC  H16S 4854   0.025   5.327   9.031  1.3022 -1.6920  0.1570
   36POPC  C217 4855  -0.160   5.366   8.943  0.1211  0.0489 -0.7515
   36POPC  H17R 4856  -0.209   5.409   9.032  2.2973  0.9171  0.0765
   36POPC  H17S 4857  -0.238   5.313   8.885  1.4823 -2.2700 -0.5296
   36POPC  C218 4858  -0.107   5.494   8.867  0.0232  0.4187  1.2239
   36POPC  H18R 4859  -0.040   5.562   8.923 -2.5253  1.2544  3.3406
   36POPC  H18S 4860  -0.197   5.557   8.850  1.2113  2.4852  2.4217
   36POPC  H18T 4861  -0.056   5.448   8.780 -2.3751  0.3964 -0.2252
   36POPC   C33 4862   0.595   5.554  10.203  0.5662 -0.2132 -0.4667
   36POPC   H3X 4863   0.640   5.454  10.222 -0.7515 -1.6790 -4.4412
   36POPC   H3Y 4864   0.666   5.598  10.130  1.3850 -1.7545 -0.6225
   36POPC   C34 4865   0.449   5.561  10.147 -0.6912  0.1727  0.7775
   36POPC   H4X 4866   0.412   5.664  10.128  0.0965  0.1895 -0.6799
   36POPC   H4Y 4867   0.379   5.520  10.223  0.2894 -0.7635  1.1851
   36POPC   C35 4868   0.439   5.476  10.020  0.3163  0.8015  0.9255
   36POPC   H5X 4869   0.336   5.434  10.022  0.3386  0.7294  0.6408
   36POPC   H5Y 4870   0.508   5.390  10.023  0.6867  0.9795 -1.3067
   36POPC   C36 4871   0.469   5.545   9.884 -0.3823 -0.6624  0.3083
   36POPC   H6X 4872   0.568   5.595   9.879 -1.6888  2.1253  1.4389
   36POPC   H6Y 4873   0.399   5.628   9.863  1.7479  0.9464 -0.6340
   36POPC   C37 4874   0.445   5.442   9.766 -0.4605 -0.6306  0.1687
   36POPC   H7X 4875   0.427   5.502   9.675  0.5759  1.7301  1.4769
   36POPC   H7Y 4876   0.349   5.392   9.792 -1.9979  2.8825  1.5302
   36POPC   C38 4877   0.565   5.362   9.723  0.4430  0.3995  0.1796
   36POPC   H8X 4878   0.600   5.300   9.808 -2.0953 -1.9850 -0.4592
   36POPC   H8Y 4879   0.640   5.435   9.683 -0.6437  1.8141  0.6712
   36POPC   C39 4880   0.537   5.251   9.611 -0.6160 -0.3620  0.3501
   36POPC   H9X 4881   0.461   5.183   9.655  0.2389 -1.0074  0.8243
   36POPC   H9Y 4882   0.629   5.191   9.593  1.1403  1.1597  3.7266
   36POPC  C310 4883   0.493   5.316   9.480  0.0695 -0.3056  1.1179
   36POPC  H10X 4884   0.571   5.385   9.440  0.7639 -1.0425  1.1981
   36POPC  H10Y 4885   0.393   5.363   9.491  0.0228  0.1591 -1.0024
   36POPC  C311 4886   0.475   5.200   9.375  0.5996 -0.3708  0.2157
   36POPC  H11X 4887   0.396   5.129   9.411  1.2073 -1.8580 -1.2897
   36POPC  H11Y 4888   0.563   5.138   9.348  1.3003  0.7077  0.0513
   36POPC  C312 4889   0.429   5.262   9.236 -0.1676 -0.0931  0.1269
   36POPC  H12X 4890   0.504   5.338   9.206 -1.2061  0.2189 -1.7284
   36POPC  H12Y 4891   0.331   5.308   9.263 -1.1582 -1.9616 -0.1757
   36POPC  C313 4892   0.411   5.167   9.117 -0.6829 -0.3793 -0.3125
   36POPC  H13X 4893   0.342   5.084   9.140 -1.7780 -0.0576 -2.3278
   36POPC  H13Y 4894   0.510   5.121   9.098 -0.0591  0.8069  0.0034
   36POPC  C314 4895   0.364   5.234   8.991 -0.5769  0.2126 -0.0844
   36POPC  H14X 4896   0.435   5.312   8.958  1.9777 -2.0144 -0.0517
   36POPC  H14Y 4897   0.260   5.272   8.999 -1.1652 -1.0026 -1.8284
   36POPC  C315 4898   0.376   5.149   8.869 -0.6057 -0.1138 -0.8031
   36POPC  H15X 4899   0.332   5.048   8.876  0.4999 -0.6922 -2.1379
   36POPC  H15Y 4900   0.484   5.125   8.865 -0.2628  0.8962  1.3560
   36POPC  C316 4901   0.332   5.218   8.737 -0.1588  0.5139 -0.5870
   36POPC  H16X 4902   0.328   5.146   8.652  0.4802  0.0888 -0.2636
   36POPC  H16Y 4903   0.405   5.297   8.709 -0.5662  0.1422 -2.7908
   36POPC  H16Z 4904   0.236   5.269   8.759 -0.7388 -0.0143 -1.8409
   37POPC     N 4905   0.051   2.071   6.400  0.0788 -0.1039  0.1426
   37POPC   C12 4906  -0.016   2.012   6.524  0.2993  0.0827  0.7807
   37POPC  H12A 4907   0.068   1.975   6.582  0.2420 -1.0485  0.1654
   37POPC  H12B 4908  -0.069   1.926   6.485 -1.3051  1.5419 -0.3251
   37POPC   C13 4909  -0.049   2.127   6.305  0.2725 -0.2071  0.1535
   37POPC  H13A 4910  -0.003   2.170   6.218 -2.5937  0.1337 -1.2338
   37POPC  H13B 4911  -0.106   2.042   6.271  0.1645 -1.2292  2.7835
   37POPC  H13C 4912  -0.119   2.190   6.358  0.7052 -0.0109  0.4942
   37POPC   C14 4913   0.142   2.188   6.446  0.1300 -0.5522  0.3497
   37POPC  H14A 4914   0.234   2.154   6.493  0.5729  1.2977  0.9014
   37POPC  H14B 4915   0.171   2.246   6.360  0.5609  0.3761  1.0998
   37POPC  H14C 4916   0.092   2.265   6.503  0.5674 -0.2045  0.2718
   37POPC   C15 4917   0.134   1.963   6.336  0.1927  0.2243  0.1250
   37POPC  H15A 4918   0.173   1.999   6.242 -0.3468  0.1470 -0.1321
   37POPC  H15B 4919   0.081   1.869   6.328 -0.0908  0.0475  3.3263
   37POPC  H15C 4920   0.219   1.933   6.395  0.1746  0.4915  0.2901
   37POPC   C11 4921  -0.106   2.103   6.600 -0.3115  0.5472 -0.6387
   37POPC  H11A 4922  -0.048   2.190   6.637  1.6634 -0.4163 -1.4060
   37POPC  H11B 4923  -0.135   2.055   6.696  0.0231 -1.0382 -1.3199
   37POPC     P 4924  -0.357   2.083   6.521  0.2223  0.0683 -0.4489
   37POPC   O13 4925  -0.343   1.962   6.446  0.1684  0.1403  0.7699
   37POPC   O14 4926  -0.458   2.176   6.469 -0.3035 -0.1840 -0.1522
   37POPC   O12 4927  -0.219   2.153   6.529 -0.1475 -1.2146  0.1204
   37POPC   O11 4928  -0.398   2.052   6.673 -0.0498 -0.0392  0.3263
   37POPC    C1 4929  -0.449   2.150   6.750  0.0949 -0.4043 -0.2382
   37POPC    HA 4930  -0.532   2.202   6.697 -0.2706 -0.5098  0.2290
   37POPC    HB 4931  -0.370   2.224   6.773  0.1289 -0.0790 -1.3705
   37POPC    C2 4932  -0.512   2.099   6.887 -0.4691 -0.6273 -0.3159
   37POPC    HS 4933  -0.531   2.181   6.959  2.0322  0.2673 -0.6204
   37POPC   O21 4934  -0.401   2.019   6.943 -0.1769 -0.5130 -0.4724
   37POPC   C21 4935  -0.316   2.097   7.007  0.1119  0.5157 -0.2758
   37POPC   O22 4936  -0.311   2.220   7.018  0.2295  0.4021  0.1598
   37POPC   C22 4937  -0.214   2.001   7.076  0.2668  0.5146  0.3052
   37POPC   H2R 4938  -0.131   2.065   7.113 -0.3013  0.4966  1.6073
   37POPC   H2S 4939  -0.178   1.931   6.998 -0.8628  1.0229 -0.7081
   37POPC    C3 4940  -0.638   2.013   6.880  0.2138 -0.2893 -0.6801
   37POPC    HX 4941  -0.606   1.911   6.853  2.3738 -0.5736  2.7051
   37POPC    HY 4942  -0.710   2.054   6.805  0.1101  2.3687  0.8095
   37POPC   O31 4943  -0.705   1.990   7.011 -0.4975 -0.1937 -0.2463
   37POPC   C31 4944  -0.775   2.082   7.051  0.6415 -0.6955 -0.6101
   37POPC   O32 4945  -0.798   2.192   6.999 -1.0545  0.2015 -0.1025
   37POPC   C32 4946  -0.834   2.046   7.190  0.1272 -0.3250 -0.4989
   37POPC   H2X 4947  -0.921   1.979   7.171 -0.4474  0.0837  0.6714
   37POPC   H2Y 4948  -0.885   2.133   7.235 -1.3822 -0.8767 -1.1034
   37POPC   C23 4949  -0.282   1.930   7.197 -0.6117 -0.0170 -0.3794
   37POPC   H3R 4950  -0.220   1.849   7.241 -1.1206  0.1319  0.6389
   37POPC   H3S 4951  -0.371   1.867   7.175 -0.9438  0.2188  0.2540
   37POPC   C24 4952  -0.324   2.030   7.310 -0.5483 -0.3702 -0.5260
   37POPC   H4R 4953  -0.408   2.092   7.273  0.5610  0.7495 -1.2338
   37POPC   H4S 4954  -0.234   2.095   7.321  0.4839 -1.7177 -0.8227
   37POPC   C25 4955  -0.332   1.953   7.449 -0.3766 -0.1450  0.0453
   37POPC   H5R 4956  -0.243   1.895   7.483 -0.9005 -0.9819 -0.0073
   37POPC   H5S 4957  -0.421   1.888   7.440 -0.0953 -0.3221 -1.5657
   37POPC   C26 4958  -0.361   2.049   7.569 -0.1491  0.1112 -0.2287
   37POPC   H6R 4959  -0.444   2.111   7.530  0.1960 -1.6682 -4.0746
   37POPC   H6S 4960  -0.275   2.120   7.574  1.3840 -1.8704  3.5633
   37POPC   C27 4961  -0.382   1.977   7.701 -0.2657 -0.4701  0.6602
   37POPC   H7R 4962  -0.313   1.890   7.716  0.9762 -0.1662 -2.8136
   37POPC   H7S 4963  -0.485   1.935   7.705  0.1056 -1.4383  0.3036
   37POPC   C28 4964  -0.371   2.069   7.821 -0.3663  0.2319  0.8451
   37POPC   H8R 4965  -0.272   2.118   7.828 -1.8019  3.0942  2.4955
   37POPC   H8S 4966  -0.368   2.013   7.917  0.8488 -0.6274  0.3117
   37POPC   C29 4967  -0.476   2.174   7.826 -0.1464 -0.2718 -0.5644
   37POPC   H91 4968  -0.469   2.252   7.749 -1.7784  0.8373  0.3606
   37POPC  C210 4969  -0.579   2.182   7.918  0.5332 -0.1409  0.1411
   37POPC  H101 4970  -0.644   2.271   7.920  1.1953  0.3533 -0.1873
   37POPC  C211 4971  -0.602   2.081   8.031 -0.3094  0.5257  0.3428
   37POPC  H11R 4972  -0.553   2.127   8.120  0.0343 -1.1085  1.0070
   37POPC  H11S 4973  -0.562   1.979   8.012 -0.2067  0.2939  1.7182
   37POPC  C212 4974  -0.748   2.055   8.055 -0.1615  0.7571 -0.1235
   37POPC  H12R 4975  -0.815   2.142   8.039  1.7649  2.2805 -0.0880
   37POPC  H12S 4976  -0.760   2.021   8.160  1.5561  0.5268  0.0022
   37POPC  C213 4977  -0.808   1.942   7.964  0.3355  0.7896 -0.6422
   37POPC  H13R 4978  -0.813   1.972   7.857  0.0761  0.2637 -0.7753
   37POPC  H13S 4979  -0.917   1.938   7.986  0.6032 -1.3538  0.3529
   37POPC  C214 4980  -0.758   1.799   7.990  0.0289 -0.0690 -0.0442
   37POPC  H14R 4981  -0.844   1.732   8.010 -0.6511  0.7487 -0.1902
   37POPC  H14S 4982  -0.700   1.795   8.085  1.2822 -0.0777 -0.8060
   37POPC  C215 4983  -0.666   1.750   7.884  0.3011  0.3841  0.0046
   37POPC  H15R 4984  -0.575   1.814   7.884  2.4668 -2.6039 -0.2076
   37POPC  H15S 4985  -0.709   1.766   7.783  2.3377 -0.9790 -1.1335
   37POPC  C216 4986  -0.626   1.604   7.912  0.2660  0.1059 -0.4761
   37POPC  H16R 4987  -0.721   1.547   7.924  0.7862 -1.0769 -1.8092
   37POPC  H16S 4988  -0.581   1.606   8.013 -0.0327  0.5984 -0.3539
   37POPC  C217 4989  -0.532   1.532   7.818 -1.0455  0.2267  0.0017
   37POPC  H17R 4990  -0.518   1.425   7.844  2.5898  0.7149  0.2952
   37POPC  H17S 4991  -0.429   1.576   7.816 -0.9356 -0.0221  0.1855
   37POPC  C218 4992  -0.570   1.542   7.676 -0.0883 -1.1035 -0.2174
   37POPC  H18R 4993  -0.548   1.643   7.637 -1.9055 -1.0950 -1.2894
   37POPC  H18S 4994  -0.679   1.530   7.657 -0.4840  1.6591  0.0680
   37POPC  H18T 4995  -0.508   1.473   7.615  0.4125 -1.1625  0.3546
   37POPC   C33 4996  -0.735   1.968   7.285  0.2039 -0.1183  0.4152
   37POPC   H3X 4997  -0.648   2.035   7.304  1.2133 -1.3941  0.3684
   37POPC   H3Y 4998  -0.709   1.867   7.246  1.1694 -0.1341  1.0755
   37POPC   C34 4999  -0.782   1.932   7.427 -0.5044 -0.2114 -0.5436
   37POPC   H4X 5000  -0.818   2.029   7.468 -2.6647 -0.7436 -1.1240
   37POPC   H4Y 5001  -0.700   1.887   7.487 -1.2855  0.9805  1.4732
   37POPC   C35 5002  -0.903   1.834   7.433 -0.4713  0.4143 -0.1143
   37POPC   H5X 5003  -0.867   1.746   7.376  1.6733 -0.4783  2.5261
   37POPC   H5Y 5004  -0.992   1.883   7.386  1.1722  4.0405  0.3606
   37POPC   C36 5005  -0.959   1.800   7.571 -0.2871  0.7439  0.5206
   37POPC   H6X 5006  -0.975   1.898   7.620 -2.0386  0.7101  0.0321
   37POPC   H6Y 5007  -0.892   1.726   7.620 -0.7126  0.4974  0.7310
   37POPC   C37 5008  -1.094   1.737   7.569 -0.5356 -0.2149  0.4800
   37POPC   H7X 5009  -1.069   1.645   7.511  0.3954 -1.1361  2.3035
   37POPC   H7Y 5010  -1.168   1.787   7.503  0.2665 -1.2748 -1.2652
   37POPC   C38 5011  -1.153   1.711   7.710  0.2301 -0.0084 -0.1939
   37POPC   H8X 5012  -1.080   1.645   7.761 -0.0103  0.1192  0.3147
   37POPC   H8Y 5013  -1.247   1.653   7.710  0.9317 -1.1665  0.8473
   37POPC   C39 5014  -1.169   1.826   7.807  0.1345 -0.6202  0.0501
   37POPC   H9X 5015  -1.236   1.891   7.747  0.8016 -0.2745 -0.3311
   37POPC   H9Y 5016  -1.069   1.869   7.830 -0.5897  2.3644 -2.0270
   37POPC  C310 5017  -1.229   1.796   7.947  0.5368 -0.1623 -0.1136
   37POPC  H10X 5018  -1.252   1.888   8.004  0.9710 -0.6433  0.8455
   37POPC  H10Y 5019  -1.159   1.741   8.013  0.7224  1.4537  1.0668
   37POPC  C311 5020  -1.367   1.735   7.930  0.6497 -0.2469  0.1038
   37POPC  H11X 5021  -1.344   1.633   7.892 -2.3160 -0.7674 -0.4020
   37POPC  H11Y 5022  -1.420   1.776   7.841  0.7914  2.8459  1.3610
   37POPC  C312 5023  -1.455   1.722   8.056  0.3081 -0.0638  0.0518
   37POPC  H12X 5024  -1.546   1.663   8.033  0.6086 -0.8354  0.7648
   37POPC  H12Y 5025  -1.477   1.826   8.087  2.3021  0.2304  0.5943
   37POPC  C313 5026  -1.377   1.654   8.167  0.6181  1.0347 -0.0654
   37POPC  H13X 5027  -1.297   1.711   8.219  0.3384 -1.1803  2.9624
   37POPC  H13Y 5028  -1.339   1.558   8.126 -0.8965  0.8208 -1.0398
   37POPC  C314 5029  -1.470   1.603   8.284  0.2082  0.3799  0.2134
   37POPC  H14X 5030  -1.418   1.530   8.350 -2.2853 -2.4414 -0.7958
   37POPC  H14Y 5031  -1.542   1.535   8.233  0.8169  0.0884 -0.2631
   37POPC  C315 5032  -1.546   1.712   8.355  0.1972 -0.7390 -0.3651
   37POPC  H15X 5033  -1.589   1.792   8.291  0.8091  0.1549  0.3352
   37POPC  H15Y 5034  -1.462   1.756   8.413 -1.4082 -0.1357  1.5750
   37POPC  C316 5035  -1.648   1.660   8.461 -0.0190  0.0745  0.3882
   37POPC  H16X 5036  -1.595   1.625   8.552  1.0961  0.2660 -0.1866
   37POPC  H16Y 5037  -1.713   1.582   8.417  1.9033 -0.8014 -0.9541
   37POPC  H16Z 5038  -1.717   1.742   8.493  0.8409  0.1910  1.9893
   38POPC     N 5039   0.667   5.111   6.046 -0.5631  0.2204 -0.0355
   38POPC   C12 5040   0.732   5.119   6.187  0.7479  0.3578  0.2566
   38POPC  H12A 5041   0.787   5.212   6.190 -0.8430  1.4395 -2.0197
   38POPC  H12B 5042   0.804   5.039   6.194 -1.1913 -1.3799  0.8021
   38POPC   C13 5043   0.763   5.109   5.938 -0.5047  0.4071 -0.2894
   38POPC  H13A 5044   0.839   5.034   5.952  0.0645  0.5901 -2.2683
   38POPC  H13B 5045   0.715   5.087   5.844  0.3541  0.5439 -0.7628
   38POPC  H13C 5046   0.804   5.208   5.921 -0.3146  0.0410 -2.0366
   38POPC   C14 5047   0.579   4.995   6.042  0.5411  0.4520  0.3161
   38POPC  H14A 5048   0.520   4.989   5.952  3.1361 -0.7593 -1.3819
   38POPC  H14B 5049   0.629   4.901   6.061 -0.5032  0.0847  1.2945
   38POPC  H14C 5050   0.507   5.007   6.121  1.5459 -0.8995  1.4453
   38POPC   C15 5051   0.586   5.238   6.022 -0.2298 -0.1445  0.3659
   38POPC  H15A 5052   0.643   5.329   6.021 -0.5082  0.0432  1.0553
   38POPC  H15B 5053   0.524   5.254   6.109  1.0932  1.6782  1.0045
   38POPC  H15C 5054   0.516   5.225   5.940 -2.8316 -2.2315  2.7878
   38POPC   C11 5055   0.654   5.122   6.313 -0.3763  0.0073  0.4326
   38POPC  H11A 5056   0.724   5.109   6.398 -1.9479  1.5403  2.0010
   38POPC  H11B 5057   0.585   5.035   6.311 -0.8332  0.3868 -0.6723
   38POPC     P 5058   0.464   5.259   6.420  0.0890 -0.3283  0.0017
   38POPC   O13 5059   0.362   5.171   6.357 -0.1731  0.3607  0.3852
   38POPC   O14 5060   0.433   5.401   6.443  0.0176  0.0959 -0.3267
   38POPC   O12 5061   0.587   5.251   6.324 -0.0919 -0.0284  0.6968
   38POPC   O11 5062   0.536   5.193   6.543 -0.0910  0.1023 -0.0058
   38POPC    C1 5063   0.463   5.115   6.636  0.2693 -0.1369 -0.9305
   38POPC    HA 5064   0.426   5.019   6.593 -0.0855 -0.2880 -0.2922
   38POPC    HB 5065   0.371   5.169   6.669  0.7469 -0.5269  1.0736
   38POPC    C2 5066   0.550   5.074   6.751  0.3796  0.1999  0.6491
   38POPC    HS 5067   0.490   5.026   6.832 -0.2543  0.4758  0.3409
   38POPC   O21 5068   0.624   5.184   6.804 -0.3891  0.8170  0.5919
   38POPC   C21 5069   0.550   5.270   6.872 -0.3133  0.1579  0.3692
   38POPC   O22 5070   0.433   5.262   6.884  0.3187 -0.0045 -0.4243
   38POPC   C22 5071   0.637   5.369   6.930 -0.1437 -0.1997  0.2917
   38POPC   H2R 5072   0.630   5.464   6.872  0.9069 -1.5029 -2.0447
   38POPC   H2S 5073   0.740   5.328   6.925  0.5094  1.1532  1.9276
   38POPC    C3 5074   0.645   4.966   6.701  0.2667 -0.4765  0.9196
   38POPC    HX 5075   0.701   5.011   6.617  0.4308  0.9127  1.7567
   38POPC    HY 5076   0.587   4.892   6.642  1.3109 -0.1002 -0.5941
   38POPC   O31 5077   0.728   4.909   6.806  0.0424  0.1955 -0.0482
   38POPC   C31 5078   0.848   4.965   6.818 -0.1129 -0.3017  0.2847
   38POPC   O32 5079   0.882   5.072   6.769 -0.2635 -0.4952  0.0929
   38POPC   C32 5080   0.931   4.892   6.932  0.4885  0.2868 -0.5109
   38POPC   H2X 5081   1.033   4.935   6.918  0.5600  0.0660 -0.6746
   38POPC   H2Y 5082   0.933   4.784   6.907  1.3804  0.1445  0.1521
   38POPC   C23 5083   0.622   5.403   7.078 -0.3014  0.1766  0.3426
   38POPC   H3R 5084   0.518   5.433   7.104 -0.2276  1.3449 -0.6317
   38POPC   H3S 5085   0.676   5.498   7.099 -1.7342  1.1972 -0.4652
   38POPC   C24 5086   0.667   5.299   7.169 -0.3801  0.8540 -0.3532
   38POPC   H4R 5087   0.773   5.279   7.143 -0.2346  3.8242 -2.3422
   38POPC   H4S 5088   0.620   5.199   7.157 -0.9995  0.9907  0.8737
   38POPC   C25 5089   0.671   5.336   7.314  0.0635 -0.6393 -0.5176
   38POPC   H5R 5090   0.566   5.345   7.346 -0.6218 -0.6884 -2.6465
   38POPC   H5S 5091   0.718   5.436   7.332 -2.3052  0.7481 -1.7934
   38POPC   C26 5092   0.738   5.231   7.399  0.2113 -0.5243 -0.3581
   38POPC   H6R 5093   0.848   5.243   7.405 -0.1020  0.9739  3.3171
   38POPC   H6S 5094   0.705   5.133   7.358 -0.7057 -0.8532  1.1179
   38POPC   C27 5095   0.680   5.216   7.541 -0.0343  1.3257 -0.5439
   38POPC   H7R 5096   0.576   5.185   7.517 -0.2903  0.4897  1.5294
   38POPC   H7S 5097   0.676   5.315   7.592 -0.8467  0.7490  0.5351
   38POPC   C28 5098   0.743   5.113   7.631 -0.2762 -0.1905  0.0901
   38POPC   H8R 5099   0.853   5.124   7.640  0.1381 -2.5114 -1.6817
   38POPC   H8S 5100   0.747   5.016   7.576  0.2940  0.1177 -0.4255
   38POPC   C29 5101   0.669   5.109   7.763 -0.1451  0.2664  0.5854
   38POPC   H91 5102   0.570   5.063   7.748 -0.8074  1.0284  2.3715
   38POPC  C210 5103   0.714   5.152   7.884  0.4890  0.6651 -0.0384
   38POPC  H101 5104   0.649   5.133   7.971  1.3007  0.9959  0.6478
   38POPC  C211 5105   0.841   5.227   7.906  0.3243 -0.1793 -0.0146
   38POPC  H11R 5106   0.826   5.331   7.872 -2.5995 -1.2558 -2.2869
   38POPC  H11S 5107   0.933   5.177   7.868  0.5525  1.0674 -1.1055
   38POPC  C212 5108   0.881   5.227   8.060  0.5049 -0.6361  0.8738
   38POPC  H12R 5109   0.804   5.282   8.118  0.9829  1.0257 -0.0206
   38POPC  H12S 5110   0.968   5.293   8.079  0.1408  0.7955 -2.0629
   38POPC  C213 5111   0.903   5.085   8.109 -0.0905 -0.5361  0.2129
   38POPC  H13R 5112   0.975   5.038   8.037  0.1245 -0.5160  0.4129
   38POPC  H13S 5113   0.806   5.033   8.114 -0.0204 -0.5453  1.4718
   38POPC  C214 5114   0.963   5.076   8.252  0.4701 -0.5799 -0.2868
   38POPC  H14R 5115   0.894   5.115   8.330  1.2437  1.2866 -0.5193
   38POPC  H14S 5116   1.040   5.156   8.257  1.4063 -1.5245  0.9007
   38POPC  C215 5117   1.018   4.941   8.286 -0.5285  0.2361  0.0745
   38POPC  H15R 5118   1.081   4.942   8.378 -0.0877 -0.4432 -0.2185
   38POPC  H15S 5119   1.083   4.903   8.205  0.2092  1.2439  0.1827
   38POPC  C216 5120   0.903   4.830   8.300  0.3965 -0.2464  0.2631
   38POPC  H16R 5121   0.854   4.810   8.203 -0.0553 -0.7471  0.5932
   38POPC  H16S 5122   0.829   4.852   8.380  1.2143  0.8926  0.7189
   38POPC  C217 5123   0.969   4.692   8.346 -0.7158  0.0821 -0.3542
   38POPC  H17R 5124   1.038   4.709   8.432  1.9561 -0.5229 -2.3211
   38POPC  H17S 5125   1.025   4.668   8.253  0.7889  1.8861  0.0549
   38POPC  C218 5126   0.870   4.590   8.402  0.1551  0.5270 -0.1699
   38POPC  H18R 5127   0.789   4.559   8.332  0.4714  1.8627 -1.1421
   38POPC  H18S 5128   0.813   4.635   8.486 -2.1370 -0.1714 -1.2859
   38POPC  H18T 5129   0.930   4.503   8.435  1.5402  1.2894 -0.6621
   38POPC   C33 5130   0.882   4.914   7.076  0.1318 -0.1292  0.6646
   38POPC   H3X 5131   0.780   4.871   7.081 -0.2745  0.4199 -2.0428
   38POPC   H3Y 5132   0.880   5.023   7.098 -2.8216  1.0303 -4.4292
   38POPC   C34 5133   0.965   4.841   7.189 -0.1970 -0.3188  0.2342
   38POPC   H4X 5134   1.076   4.845   7.182 -0.2265  0.1701  0.0903
   38POPC   H4Y 5135   0.940   4.733   7.197 -0.4395 -0.1216  2.5069
   38POPC   C35 5136   0.933   4.890   7.329 -0.0502  0.5472 -0.3373
   38POPC   H5X 5137   0.825   4.882   7.353 -0.2424  2.4272 -0.5644
   38POPC   H5Y 5138   0.975   4.990   7.351 -1.5028  1.0288  0.2786
   38POPC   C36 5139   1.006   4.802   7.431 -0.0591  0.1051 -0.8317
   38POPC   H6X 5140   1.116   4.815   7.419  0.0957 -1.0974 -0.7614
   38POPC   H6Y 5141   0.975   4.696   7.419 -0.5098 -0.0530  1.4325
   38POPC   C37 5142   0.969   4.845   7.577  0.5534  0.0102 -0.0519
   38POPC   H7X 5143   0.868   4.811   7.606 -0.1744 -0.7402 -3.2785
   38POPC   H7Y 5144   0.973   4.954   7.597 -1.1230 -0.2727  1.9491
   38POPC   C38 5145   1.064   4.777   7.670 -0.3441 -0.2692 -0.5459
   38POPC   H8X 5146   1.165   4.819   7.651  0.3178 -1.0755  1.1196
   38POPC   H8Y 5147   1.078   4.667   7.657  0.0855 -0.1221 -1.3717
   38POPC   C39 5148   1.033   4.813   7.817 -0.7384  0.4850  0.0281
   38POPC   H9X 5149   0.924   4.807   7.838  0.0636 -1.1005  4.3349
   38POPC   H9Y 5150   1.069   4.916   7.839 -4.2076  1.2478  2.4866
   38POPC  C310 5151   1.099   4.714   7.914  1.0929  0.6924 -0.2125
   38POPC  H10X 5152   1.059   4.612   7.891  0.5298  1.1344 -1.2251
   38POPC  H10Y 5153   1.058   4.743   8.013  2.6829  2.7663 -0.1446
   38POPC  C311 5154   1.246   4.727   7.910  0.6580  0.0295  0.9439
   38POPC  H11X 5155   1.277   4.828   7.943  2.0125  0.3632 -1.2652
   38POPC  H11Y 5156   1.289   4.691   7.814  0.8061 -3.2726  2.1586
   38POPC  C312 5157   1.318   4.622   7.995  0.8833 -0.0770 -0.0569
   38POPC  H12X 5158   1.268   4.524   7.980 -1.1729  0.8978  0.2517
   38POPC  H12Y 5159   1.304   4.639   8.104 -1.5843  0.9929 -0.5133
   38POPC  C313 5160   1.469   4.604   7.959 -0.0121  0.1124  0.1397
   38POPC  H13X 5161   1.486   4.632   7.853 -0.2037 -1.6770 -0.3757
   38POPC  H13Y 5162   1.488   4.495   7.953  0.0548  0.1006  0.5765
   38POPC  C314 5163   1.563   4.677   8.042 -0.0712 -0.9573  0.0480
   38POPC  H14X 5164   1.543   4.786   8.050 -1.7234 -0.9706 -3.3295
   38POPC  H14Y 5165   1.667   4.668   8.004 -0.0064  1.4134 -0.4114
   38POPC  C315 5166   1.561   4.636   8.194 -0.2587  0.0131  0.3816
   38POPC  H15X 5167   1.589   4.529   8.204 -0.7352 -0.2040 -0.5804
   38POPC  H15Y 5168   1.462   4.660   8.237 -0.1321  2.0519 -0.4207
   38POPC  C316 5169   1.661   4.709   8.287  0.1908 -0.6394  0.6934
   38POPC  H16X 5170   1.645   4.672   8.390  1.6397  1.3707  1.6846
   38POPC  H16Y 5171   1.634   4.817   8.293 -1.2871 -1.0934  2.4888
   38POPC  H16Z 5172   1.764   4.681   8.255 -0.9445 -3.7380 -0.4421
   39POPC     N 5173   4.639   1.554   6.217  0.3873  0.2874  0.0320
   39POPC   C12 5174   4.513   1.552   6.301 -0.0344 -0.0819 -0.1727
   39POPC  H12A 5175   4.524   1.603   6.396  1.2832 -3.1525  1.4067
   39POPC  H12B 5176   4.494   1.450   6.331 -0.5891 -0.0638 -0.4634
   39POPC   C13 5177   4.757   1.514   6.292 -0.1756 -1.0539  0.2457
   39POPC  H13A 5178   4.776   1.577   6.378  1.1254 -2.7812  1.2506
   39POPC  H13B 5179   4.750   1.409   6.315 -0.7801 -0.7158  1.7479
   39POPC  H13C 5180   4.853   1.527   6.244 -0.7565  0.2596 -0.6006
   39POPC   C14 5181   4.617   1.458   6.101  0.1507  0.7783  0.3159
   39POPC  H14A 5182   4.523   1.485   6.054 -0.1950  1.4218  1.3544
   39POPC  H14B 5183   4.696   1.452   6.028 -0.2545  1.3241 -0.1762
   39POPC  H14C 5184   4.599   1.369   6.159 -0.2442  0.9491  0.4595
   39POPC   C15 5185   4.656   1.690   6.168  0.1147 -0.1687 -0.0968
   39POPC  H15A 5186   4.567   1.728   6.120  0.1621 -0.1589 -0.1772
   39POPC  H15B 5187   4.751   1.699   6.117  0.0558  0.7986 -0.0350
   39POPC  H15C 5188   4.658   1.753   6.256  0.9702  0.6894 -0.7144
   39POPC   C11 5189   4.377   1.599   6.249 -0.1036 -0.7249 -0.3641
   39POPC  H11A 5190   4.300   1.583   6.328  0.1073 -1.4947 -0.3069
   39POPC  H11B 5191   4.350   1.516   6.181 -0.7162 -0.1600 -0.8146
   39POPC     P 5192   4.374   1.851   6.281 -0.1081 -0.5513  0.4848
   39POPC   O13 5193   4.241   1.855   6.339  0.4956 -0.2305 -0.3488
   39POPC   O14 5194   4.399   1.974   6.201  0.0846 -0.6160 -0.2081
   39POPC   O12 5195   4.375   1.726   6.185 -0.2120 -0.0402 -0.1860
   39POPC   O11 5196   4.487   1.822   6.388  0.4923 -0.4805  0.1543
   39POPC    C1 5197   4.571   1.929   6.436  0.6249  0.0085 -0.2433
   39POPC    HA 5198   4.509   2.009   6.482 -2.2087 -1.2918 -1.7008
   39POPC    HB 5199   4.635   1.973   6.355  0.4451 -1.9393 -1.4752
   39POPC    C2 5200   4.665   1.891   6.548  0.9949 -0.0902  0.2038
   39POPC    HS 5201   4.727   1.815   6.495 -0.7586 -0.4164 -1.4505
   39POPC   O21 5202   4.583   1.846   6.657  0.3872 -0.2019 -0.5587
   39POPC   C21 5203   4.644   1.742   6.718  0.0849 -0.1442  0.5482
   39POPC   O22 5204   4.754   1.708   6.692 -0.5117 -0.6097  0.0352
   39POPC   C22 5205   4.548   1.681   6.818  0.0468  0.5308 -0.4389
   39POPC   H2R 5206   4.605   1.597   6.865  0.9138  0.1403 -2.1411
   39POPC   H2S 5207   4.454   1.655   6.764  1.1013 -0.3149 -1.8875
   39POPC    C3 5208   4.750   2.009   6.589 -0.5364 -0.1179  1.0241
   39POPC    HX 5209   4.809   2.036   6.499  1.2733 -0.6872  2.0162
   39POPC    HY 5210   4.831   1.982   6.661 -0.4848 -0.1863  0.9398
   39POPC   O31 5211   4.675   2.127   6.629 -0.1416  0.2956  0.0113
   39POPC   C31 5212   4.685   2.166   6.758  0.8352 -0.4569 -0.4233
   39POPC   O32 5213   4.758   2.110   6.843 -0.6237  0.0685  0.0141
   39POPC   C32 5214   4.597   2.290   6.789  0.4193  0.8944  0.1966
   39POPC   H2X 5215   4.630   2.374   6.724  0.5373 -0.9955 -2.2248
   39POPC   H2Y 5216   4.492   2.260   6.769  0.8069 -0.3895  0.0662
   39POPC   C23 5217   4.507   1.778   6.935 -0.1133  0.1105  0.3719
   39POPC   H3R 5218   4.596   1.799   6.998  1.4341  0.6301 -1.9321
   39POPC   H3S 5219   4.444   1.725   7.010 -2.0372 -0.9284 -1.8994
   39POPC   C24 5220   4.429   1.904   6.896  1.0948  0.4951  0.5701
   39POPC   H4R 5221   4.369   1.888   6.804 -0.4330  0.5646  1.5443
   39POPC   H4S 5222   4.509   1.979   6.874  2.1975 -0.9461 -0.4016
   39POPC   C25 5223   4.320   1.940   6.993 -0.6886  0.0022 -0.5285
   39POPC   H5R 5224   4.231   1.875   7.003 -1.8151  2.0042  3.5795
   39POPC   H5S 5225   4.294   2.041   6.955 -1.6910 -0.9053 -2.3263
   39POPC   C26 5226   4.355   1.959   7.142  0.5497 -0.1533  0.1056
   39POPC   H6R 5227   4.461   1.982   7.162  0.6728 -1.4044  0.9717
   39POPC   H6S 5228   4.361   1.858   7.190  1.4039  0.4044  1.2029
   39POPC   C27 5229   4.256   2.053   7.217  0.3775  0.0858  0.0100
   39POPC   H7R 5230   4.155   2.010   7.203  0.5972  0.3243 -2.4220
   39POPC   H7S 5231   4.267   2.156   7.176  0.1805 -0.2230 -0.8155
   39POPC   C28 5232   4.287   2.053   7.371  0.1480 -0.2449  0.6703
   39POPC   H8R 5233   4.373   2.123   7.379  0.6107 -0.8052  0.7107
   39POPC   H8S 5234   4.317   1.949   7.395 -0.3201 -1.0756 -2.1696
   39POPC   C29 5235   4.169   2.108   7.455 -0.5662 -0.2266  0.4549
   39POPC   H91 5236   4.119   2.188   7.399  0.1111 -0.6395 -0.7474
   39POPC  C210 5237   4.134   2.075   7.580 -0.3530  0.4080 -0.1227
   39POPC  H101 5238   4.046   2.121   7.627  0.6547  2.1973  0.0647
   39POPC  C211 5239   4.210   1.981   7.669 -0.2854  0.3203 -0.2042
   39POPC  H11R 5240   4.320   1.993   7.672 -0.4849  2.2185  0.8907
   39POPC  H11S 5241   4.188   1.876   7.641  0.0590  0.1242  0.2583
   39POPC  C212 5242   4.168   1.994   7.819 -0.4424 -0.0697 -0.3803
   39POPC  H12R 5243   4.067   1.949   7.826 -0.9189  0.9720 -0.4923
   39POPC  H12S 5244   4.166   2.102   7.848 -0.3928  0.4537 -2.2374
   39POPC  C213 5245   4.262   1.912   7.917  0.9228  0.5842 -0.2933
   39POPC  H13R 5246   4.371   1.916   7.896  0.9531 -0.0509 -0.2830
   39POPC  H13S 5247   4.235   1.805   7.900 -0.9783  0.9378  0.3422
   39POPC  C214 5248   4.233   1.948   8.065 -0.2777  0.3883 -0.4456
   39POPC  H14R 5249   4.251   2.057   8.072 -3.0733  0.9490 -1.2188
   39POPC  H14S 5250   4.300   1.894   8.135 -1.8200  0.1881  0.9009
   39POPC  C215 5251   4.086   1.926   8.105  0.1508  0.0917  0.0531
   39POPC  H15R 5252   4.070   1.816   8.103 -0.7936  0.2381 -1.3186
   39POPC  H15S 5253   4.012   1.978   8.040  1.7749  2.5251  0.1118
   39POPC  C216 5254   4.062   1.974   8.257 -0.3373 -0.6916  0.0999
   39POPC  H16R 5255   4.060   2.085   8.259  0.1716 -0.6899  0.4007
   39POPC  H16S 5256   4.149   1.950   8.321  1.1961 -0.7841 -1.9350
   39POPC  C217 5257   3.947   1.917   8.328  0.6436 -0.5571  0.1437
   39POPC  H17R 5258   3.852   1.940   8.275  1.0812 -2.9821 -1.7638
   39POPC  H17S 5259   3.942   1.976   8.422  0.3161 -0.7744  0.2615
   39POPC  C218 5260   3.943   1.769   8.359  0.8326  0.2848 -0.2671
   39POPC  H18R 5261   3.851   1.738   8.414  0.9476 -1.3524 -0.9765
   39POPC  H18S 5262   4.040   1.745   8.407  0.4454  0.7870  0.7853
   39POPC  H18T 5263   3.946   1.717   8.261  0.1073  0.4340 -0.3752
   39POPC   C33 5264   4.599   2.308   6.944  0.0119 -0.1370 -0.8308
   39POPC   H3X 5265   4.696   2.359   6.964 -0.3295  0.5481 -0.9014
   39POPC   H3Y 5266   4.601   2.214   7.002  1.2506  1.3785  1.6399
   39POPC   C34 5267   4.479   2.392   6.992 -0.1674  0.3975  0.1528
   39POPC   H4X 5268   4.388   2.343   6.952 -1.4446  1.8601  1.1788
   39POPC   H4Y 5269   4.475   2.490   6.940  0.3604 -0.7222 -2.0464
   39POPC   C35 5270   4.459   2.415   7.148 -0.4611 -0.2330 -0.1177
   39POPC   H5X 5271   4.470   2.318   7.201 -0.2356  0.0694  0.3980
   39POPC   H5Y 5272   4.359   2.455   7.176  0.5809  2.5848 -0.2282
   39POPC   C36 5273   4.555   2.510   7.210 -0.4871 -0.4449 -0.5454
   39POPC   H6X 5274   4.516   2.611   7.188  0.9066  0.0455 -0.8381
   39POPC   H6Y 5275   4.654   2.512   7.160 -1.2217  1.0865 -1.9556
   39POPC   C37 5276   4.587   2.497   7.364 -0.1675  1.0972  0.2320
   39POPC   H7X 5277   4.662   2.575   7.386 -1.9214  2.7249  0.5440
   39POPC   H7Y 5278   4.631   2.398   7.387  2.2895  2.0947 -0.0841
   39POPC   C38 5279   4.472   2.522   7.461 -0.5199 -0.1188  0.2099
   39POPC   H8X 5280   4.383   2.459   7.439 -0.7835 -0.4635  2.2118
   39POPC   H8Y 5281   4.439   2.628   7.453 -0.8495 -0.2333  0.0536
   39POPC   C39 5282   4.516   2.485   7.602  0.3622  0.6518 -0.9343
   39POPC   H9X 5283   4.429   2.507   7.667  0.9094 -2.0135  0.7815
   39POPC   H9Y 5284   4.597   2.554   7.634 -2.2003  3.0936  0.5279
   39POPC  C310 5285   4.555   2.340   7.635  0.5873 -0.4176  0.3273
   39POPC  H10X 5286   4.636   2.302   7.568  1.0637 -1.2675  1.3718
   39POPC  H10Y 5287   4.466   2.278   7.610  1.3189 -1.3091 -0.1217
   39POPC  C311 5288   4.591   2.325   7.779 -0.6741  0.2798  0.5281
   39POPC  H11X 5289   4.494   2.343   7.831 -1.3711  2.8480 -1.5360
   39POPC  H11Y 5290   4.671   2.395   7.811  0.4750 -1.5839  1.7921
   39POPC  C312 5291   4.626   2.174   7.807 -0.1926  0.5604 -0.1567
   39POPC  H12X 5292   4.715   2.151   7.745 -0.2944 -0.2439 -0.0090
   39POPC  H12Y 5293   4.535   2.117   7.778 -2.4471  4.1129 -0.4098
   39POPC  C313 5294   4.665   2.150   7.954  0.0375  0.1667  0.1093
   39POPC  H13X 5295   4.750   2.216   7.980  0.1568  0.0255  0.0734
   39POPC  H13Y 5296   4.682   2.043   7.978  1.5775  0.5346  0.7034
   39POPC  C314 5297   4.549   2.182   8.054 -0.3945  0.2001  0.1840
   39POPC  H14X 5298   4.465   2.122   8.013  1.5666 -1.4558 -1.5038
   39POPC  H14Y 5299   4.512   2.286   8.039  2.4639  0.6422 -4.8728
   39POPC  C315 5300   4.571   2.139   8.203 -0.2252  0.1611  0.6689
   39POPC  H15X 5301   4.635   2.216   8.250 -0.5306 -0.1418  1.6043
   39POPC  H15Y 5302   4.625   2.042   8.207  1.5535  1.1901  2.3431
   39POPC  C316 5303   4.447   2.126   8.280  0.9853 -0.0333 -0.7628
   39POPC  H16X 5304   4.429   2.016   8.289 -2.0769  0.6775  2.9284
   39POPC  H16Y 5305   4.361   2.167   8.223  1.2912  2.2790  0.4085
   39POPC  H16Z 5306   4.452   2.169   8.382 -2.8230 -0.7088 -0.2070
   40POPC     N 5307   3.584   6.496   6.245  0.7537 -0.1335  0.9945
   40POPC   C12 5308   3.540   6.563   6.376  0.2576  0.1017 -0.9014
   40POPC  H12A 5309   3.517   6.486   6.447 -1.4922  1.0052 -0.4492
   40POPC  H12B 5310   3.455   6.627   6.357 -0.1806 -0.7674 -1.8765
   40POPC   C13 5311   3.679   6.382   6.256 -0.0370  0.0928  0.3920
   40POPC  H13A 5312   3.773   6.417   6.295 -0.3103 -0.4887  1.5885
   40POPC  H13B 5313   3.635   6.310   6.324  0.8314 -0.6061  0.2240
   40POPC  H13C 5314   3.707   6.336   6.162  0.5923  1.3307 -0.0333
   40POPC   C14 5315   3.464   6.436   6.173 -0.5784  0.2760  0.2498
   40POPC  H14A 5316   3.425   6.355   6.232 -0.1221 -1.0276 -1.2159
   40POPC  H14B 5317   3.387   6.512   6.165  0.2229  1.0663 -0.0898
   40POPC  H14C 5318   3.490   6.404   6.073 -0.1312 -2.2265  1.1477
   40POPC   C15 5319   3.642   6.608   6.164  0.1020  0.7708 -0.9845
   40POPC  H15A 5320   3.720   6.657   6.220  2.3555 -2.2150 -1.3810
   40POPC  H15B 5321   3.564   6.680   6.146 -1.0005 -0.2462 -0.3403
   40POPC  H15C 5322   3.701   6.569   6.082  2.5931  0.8914  0.6943
   40POPC   C11 5323   3.634   6.653   6.459  0.2987  0.8897  0.8310
   40POPC  H11A 5324   3.725   6.589   6.469 -0.6974 -0.5297  0.9250
   40POPC  H11B 5325   3.601   6.661   6.565  0.1924  0.1898  0.8534
   40POPC     P 5326   3.551   6.883   6.402  0.1001  0.5317  0.3108
   40POPC   O13 5327   3.423   6.828   6.359 -1.0041  0.2313  0.3918
   40POPC   O14 5328   3.593   7.005   6.331  0.4328 -1.0339 -0.2475
   40POPC   O12 5329   3.664   6.773   6.384 -0.5778 -0.4424  0.2545
   40POPC   O11 5330   3.557   6.908   6.559 -0.1976  0.3062 -0.3239
   40POPC    C1 5331   3.438   6.980   6.608 -0.5028 -0.3520  0.4597
   40POPC    HA 5332   3.351   6.913   6.591 -0.4129  0.4868 -3.8839
   40POPC    HB 5333   3.422   7.081   6.565 -1.2022 -0.7439 -0.2280
   40POPC    C2 5334   3.446   7.000   6.763  0.0101 -0.2296  0.1974
   40POPC    HS 5335   3.522   7.082   6.766  0.7943 -0.8842 -1.5358
   40POPC   O21 5336   3.488   6.877   6.821 -0.5141 -0.4736  0.2107
   40POPC   C21 5337   3.622   6.865   6.822  0.3789  0.5733 -0.7674
   40POPC   O22 5338   3.707   6.945   6.789 -0.1349 -0.1803  0.1815
   40POPC   C22 5339   3.647   6.724   6.878  0.0117 -0.0022 -0.3762
   40POPC   H2R 5340   3.755   6.700   6.873 -0.1646 -0.9689  0.2689
   40POPC   H2S 5341   3.598   6.644   6.818 -1.2043 -0.8677  1.6850
   40POPC    C3 5342   3.314   7.048   6.830 -0.2604 -0.0374  0.0166
   40POPC    HX 5343   3.246   6.962   6.815 -0.2982  0.3291 -1.9972
   40POPC    HY 5344   3.265   7.125   6.768  0.8375  0.9691  0.3730
   40POPC   O31 5345   3.347   7.086   6.970  0.4991  0.0724 -0.1167
   40POPC   C31 5346   3.296   6.996   7.056  0.4059  0.8869 -0.5830
   40POPC   O32 5347   3.230   6.898   7.036 -0.4071  0.1984 -0.0023
   40POPC   C32 5348   3.335   7.029   7.198  0.4664 -0.7841 -0.3877
   40POPC   H2X 5349   3.275   7.106   7.249 -0.7538 -2.1794  0.3170
   40POPC   H2Y 5350   3.444   7.050   7.205 -0.0296  1.1847  2.0483
   40POPC   C23 5351   3.602   6.722   7.033  0.7535  0.0021 -0.4183
   40POPC   H3R 5352   3.542   6.630   7.054  0.3679  0.3101 -0.1676
   40POPC   H3S 5353   3.525   6.802   7.046  1.8040  0.8943  0.2981
   40POPC   C24 5354   3.718   6.730   7.130  0.2876 -0.7733 -0.8316
   40POPC   H4R 5355   3.679   6.772   7.224  0.8998 -0.4003 -0.7481
   40POPC   H4S 5356   3.799   6.799   7.099  1.2316 -0.8904  1.3448
   40POPC   C25 5357   3.781   6.590   7.156 -0.0270 -0.5257 -0.5292
   40POPC   H5R 5358   3.839   6.573   7.063 -1.5853 -4.1764 -0.9569
   40POPC   H5S 5359   3.709   6.508   7.182 -0.8409  0.9558  2.0641
   40POPC   C26 5360   3.877   6.588   7.281  0.1169  0.3838  0.2028
   40POPC   H6R 5361   3.854   6.499   7.342  3.2353  1.0961  2.5300
   40POPC   H6S 5362   3.850   6.680   7.337  0.2550 -0.3732  1.5184
   40POPC   C27 5363   4.021   6.594   7.228  0.5273  0.0590  0.4259
   40POPC   H7R 5364   4.010   6.676   7.154 -2.9592  0.2419  1.0373
   40POPC   H7S 5365   4.025   6.498   7.172 -1.2155 -1.2515  2.4440
   40POPC   C28 5366   4.140   6.600   7.319  0.6891 -0.0761 -0.1424
   40POPC   H8R 5367   4.236   6.574   7.270  0.6800 -0.1333 -0.1301
   40POPC   H8S 5368   4.124   6.532   7.405 -0.8976  0.9052  0.3655
   40POPC   C29 5369   4.166   6.732   7.380  0.6706  0.6003 -0.1377
   40POPC   H91 5370   4.231   6.791   7.314  0.2872  0.3309 -0.7639
   40POPC  C210 5371   4.122   6.789   7.497  0.2532 -0.4801 -0.1000
   40POPC  H101 5372   4.152   6.894   7.498 -4.1404  0.8710  1.6771
   40POPC  C211 5373   4.028   6.739   7.605 -0.2302 -0.2875  0.2527
   40POPC  H11R 5374   4.008   6.630   7.607 -1.2737 -0.1446 -1.7287
   40POPC  H11S 5375   3.924   6.774   7.587 -0.4425  0.3992  2.6279
   40POPC  C212 5376   4.073   6.785   7.748  0.1962 -0.0462 -0.2053
   40POPC  H12R 5377   4.067   6.894   7.767 -1.3110 -0.6651  3.2392
   40POPC  H12S 5378   4.176   6.748   7.767 -0.1718 -1.0793 -0.1682
   40POPC  C213 5379   3.990   6.713   7.865  0.1581  0.2669 -0.5826
   40POPC  H13R 5380   3.972   6.607   7.837 -0.9073  0.3630 -0.2631
   40POPC  H13S 5381   3.885   6.748   7.871  0.5356  1.4017 -0.4285
   40POPC  C214 5382   4.075   6.733   7.988 -0.2837 -0.2956  0.3868
   40POPC  H14R 5383   4.185   6.726   7.973 -0.0926  3.2480 -0.2548
   40POPC  H14S 5384   4.044   6.653   8.059  0.9701 -0.6480  0.5411
   40POPC  C215 5385   4.053   6.869   8.058  1.0163  0.0780  0.9769
   40POPC  H15R 5386   4.121   6.943   8.010  1.2869 -0.9782 -0.2945
   40POPC  H15S 5387   4.077   6.858   8.166  1.3532  0.2836  0.9262
   40POPC  C216 5388   3.910   6.936   8.053  0.3002 -0.2437  0.4937
   40POPC  H16R 5389   3.840   6.861   8.097 -2.0130  0.6073 -1.6101
   40POPC  H16S 5390   3.883   6.969   7.951  0.7679  1.9047  1.0286
   40POPC  C217 5391   3.899   7.068   8.133  0.4946  0.1539  0.6892
   40POPC  H17R 5392   3.839   7.040   8.222  1.2099  0.2443  1.2142
   40POPC  H17S 5393   3.847   7.152   8.083  0.1610  1.0319  2.4580
   40POPC  C218 5394   4.028   7.141   8.161 -0.4353 -0.1806 -0.1949
   40POPC  H18R 5395   4.099   7.092   8.231  0.4957 -0.9540 -1.6646
   40POPC  H18S 5396   4.005   7.240   8.206 -0.7639 -0.0228 -0.7073
   40POPC  H18T 5397   4.091   7.162   8.072  2.0415 -1.1580  1.2814
   40POPC   C33 5398   3.299   6.899   7.282 -0.6847 -0.5805 -0.0643
   40POPC   H3X 5399   3.351   6.809   7.244  0.3600 -0.2521  0.5552
   40POPC   H3Y 5400   3.190   6.875   7.283 -0.5373 -1.2488 -0.4567
   40POPC   C34 5401   3.332   6.914   7.430  0.6739 -0.4723  0.1542
   40POPC   H4X 5402   3.305   6.818   7.477  1.8080 -1.8483 -1.9317
   40POPC   H4Y 5403   3.275   6.993   7.484  1.9104  1.7516 -1.6869
   40POPC   C35 5404   3.479   6.943   7.458  0.0089 -0.0582  0.0502
   40POPC   H5X 5405   3.491   7.050   7.429 -0.9654  0.2753  0.8666
   40POPC   H5Y 5406   3.550   6.900   7.384  1.9874  4.2205 -0.7306
   40POPC   C36 5407   3.530   6.926   7.602 -0.0375  0.2615  0.2593
   40POPC   H6X 5408   3.484   7.011   7.657 -0.6668  0.2655 -0.2552
   40POPC   H6Y 5409   3.639   6.943   7.600  0.4284 -2.5671  0.6892
   40POPC   C37 5410   3.499   6.792   7.673 -0.2910 -0.3081 -0.0113
   40POPC   H7X 5411   3.506   6.706   7.603  0.9257  0.3159 -0.6708
   40POPC   H7Y 5412   3.396   6.797   7.715 -1.5005  0.0040 -2.9364
   40POPC   C38 5413   3.585   6.768   7.799  0.7268 -0.1900 -0.5335
   40POPC   H8X 5414   3.551   6.833   7.883 -0.9023  0.8625 -1.9709
   40POPC   H8Y 5415   3.690   6.796   7.773 -0.0842  2.3833 -1.1956
   40POPC   C39 5416   3.565   6.626   7.856 -0.0635  0.1070  0.5616
   40POPC   H9X 5417   3.640   6.550   7.827 -0.7766 -1.0381  1.6694
   40POPC   H9Y 5418   3.465   6.603   7.813  0.6421  1.5966 -1.9952
   40POPC  C310 5419   3.544   6.620   8.010 -0.2605 -0.5067  0.4752
   40POPC  H10X 5420   3.464   6.696   8.027  0.3742  1.0474 -2.9182
   40POPC  H10Y 5421   3.636   6.655   8.062 -2.4915  1.4681  3.2157
   40POPC  C311 5422   3.500   6.480   8.054  0.0682 -0.2021  0.6060
   40POPC  H11X 5423   3.578   6.408   8.026  1.1395  1.2222 -0.1336
   40POPC  H11Y 5424   3.405   6.458   8.001  0.4028  0.6383 -0.3616
   40POPC  C312 5425   3.471   6.450   8.203  0.4103 -0.3390  0.0664
   40POPC  H12X 5426   3.416   6.354   8.208  1.8078 -1.1850 -0.6074
   40POPC  H12Y 5427   3.413   6.531   8.253 -0.6049 -0.7440 -0.4478
   40POPC  C313 5428   3.600   6.421   8.275  1.1590 -0.6669 -0.1197
   40POPC  H13X 5429   3.672   6.503   8.257  1.2318 -0.5642  0.6385
   40POPC  H13Y 5430   3.657   6.332   8.242 -0.3923 -2.3123  1.5058
   40POPC  C314 5431   3.578   6.388   8.423 -0.0373  0.0837  0.1447
   40POPC  H14X 5432   3.527   6.289   8.426  0.0303  0.0869  2.0972
   40POPC  H14Y 5433   3.513   6.464   8.472 -1.3215 -0.2307 -1.0407
   40POPC  C315 5434   3.704   6.357   8.502  0.1037  1.0409 -0.7855
   40POPC  H15X 5435   3.767   6.448   8.499  1.2781  0.2466 -0.4251
   40POPC  H15Y 5436   3.756   6.268   8.460 -1.2421  0.7427 -1.8591
   40POPC  C316 5437   3.680   6.331   8.647  0.2461  0.0840 -0.6965
   40POPC  H16X 5438   3.628   6.417   8.696 -2.0313 -1.4083 -0.4002
   40POPC  H16Y 5439   3.772   6.311   8.705  1.2607  0.8625 -2.0275
   40POPC  H16Z 5440   3.610   6.247   8.667  2.0957 -0.6851  3.0306
   41CHL1    C3 5441   2.672   2.874  10.018 -0.5402  0.3125 -0.6933
   41CHL1    H3 5442   2.774   2.904   9.987  0.6489  0.6286  3.2376
   41CHL1    O3 5443   2.672   2.873  10.157  0.4942 -0.2612 -0.1133
   41CHL1   H3' 5444   2.585   2.843  10.185 -0.7936  2.9862 -0.3474
   41CHL1    C4 5445   2.562   2.969   9.974  1.2828 -0.6078 -0.1823
   41CHL1   H4A 5446   2.465   2.933  10.014  0.9702 -1.3827 -1.5856
   41CHL1   H4B 5447   2.588   3.066  10.022 -0.8928 -1.0091  1.8720
   41CHL1    C5 5448   2.547   2.977   9.828  0.2044  0.0436  0.7844
   41CHL1    C6 5449   2.547   3.102   9.775 -0.2742 -0.1634  0.0275
   41CHL1    H6 5450   2.565   3.194   9.834  3.5749  0.4787 -1.9751
   41CHL1    C7 5451   2.553   3.122   9.627  1.2924 -0.7822  0.4533
   41CHL1   H7A 5452   2.503   3.216   9.596 -2.2604 -2.3125  1.3067
   41CHL1   H7B 5453   2.660   3.141   9.601  1.2118  0.5608  1.0663
   41CHL1    C8 5454   2.493   3.010   9.542 -0.3703  0.6428 -0.3909
   41CHL1    H8 5455   2.384   3.010   9.561 -0.1612 -1.2399  0.9027
   41CHL1   C14 5456   2.520   3.031   9.394  0.5423 -1.0594  1.1942
   41CHL1   H14 5457   2.630   3.029   9.377  0.6435  1.0008  1.5682
   41CHL1   C15 5458   2.467   3.162   9.335 -0.2166 -0.9657 -0.5543
   41CHL1  H15A 5459   2.363   3.177   9.370 -0.4272  1.8386 -2.2165
   41CHL1  H15B 5460   2.528   3.252   9.359  2.1609 -2.7014  0.0618
   41CHL1   C16 5461   2.479   3.139   9.177  0.0742  0.0630 -0.0903
   41CHL1  H16A 5462   2.386   3.172   9.126  1.0595  1.5770 -0.9428
   41CHL1  H16B 5463   2.561   3.196   9.128  0.4043 -1.1909 -1.0242
   41CHL1   C17 5464   2.502   2.983   9.162  0.4240 -0.4487 -0.1128
   41CHL1   H17 5465   2.611   2.978   9.142  0.7573  0.4291  1.3976
   41CHL1   C13 5466   2.470   2.922   9.306 -0.6890 -0.4755 -0.1129
   41CHL1   C18 5467   2.316   2.901   9.310 -0.4014 -0.1623 -0.5306
   41CHL1  H18A 5468   2.280   2.904   9.415 -2.4100 -2.2479 -1.1397
   41CHL1  H18B 5469   2.263   2.988   9.266 -2.6768 -1.0495  0.3891
   41CHL1  H18C 5470   2.278   2.805   9.271  0.6244 -1.2575  1.1128
   41CHL1   C12 5471   2.542   2.785   9.349  0.5019  0.0522 -0.6550
   41CHL1  H12A 5472   2.507   2.696   9.292 -2.7648 -0.2065  1.5855
   41CHL1  H12B 5473   2.650   2.799   9.331  1.3443 -3.8798  0.8594
   41CHL1   C11 5474   2.519   2.747   9.495  0.4641  0.4713  0.5038
   41CHL1  H11A 5475   2.411   2.726   9.507  0.3283 -0.2750 -1.7100
   41CHL1  H11B 5476   2.572   2.653   9.522  0.3259 -0.2761 -1.6625
   41CHL1    C9 5477   2.554   2.870   9.587 -0.3934 -0.0822 -0.2295
   41CHL1    H9 5478   2.664   2.882   9.577 -0.5545  1.2456 -0.4234
   41CHL1   C10 5479   2.528   2.855   9.740  0.4245  0.4880 -0.5866
   41CHL1   C19 5480   2.387   2.803   9.759  0.0600 -0.1060 -0.2211
   41CHL1  H19A 5481   2.379   2.695   9.733 -2.3115 -0.0833  0.3052
   41CHL1  H19B 5482   2.355   2.795   9.865  0.4297 -1.8809 -0.2264
   41CHL1  H19C 5483   2.306   2.855   9.703 -0.0315  0.3287  0.3129
   41CHL1    C1 5484   2.634   2.747   9.804 -0.1463  0.6233 -0.7308
   41CHL1   H1A 5485   2.611   2.647   9.762  0.0876 -0.3011  1.2812
   41CHL1   H1B 5486   2.739   2.767   9.773  0.6201 -1.0414  0.7390
   41CHL1    C2 5487   2.632   2.737   9.962 -0.3705  0.0264  0.7881
   41CHL1   H2A 5488   2.710   2.661   9.986  0.9434  0.9058 -0.6115
   41CHL1   H2B 5489   2.537   2.708  10.010 -1.8648  1.0159 -1.5177
   41CHL1   C20 5490   2.422   2.925   9.037 -0.0270 -0.2591  1.1077
   41CHL1   H20 5491   2.314   2.934   9.064 -0.4259 -1.2167 -0.1233
   41CHL1   C21 5492   2.443   2.777   9.019 -0.2325  0.0159  0.0891
   41CHL1  H21A 5493   2.389   2.740   8.929 -0.1847 -2.1045  0.8886
   41CHL1  H21B 5494   2.409   2.715   9.105  2.5368 -0.1318  1.1265
   41CHL1  H21C 5495   2.549   2.745   9.006 -0.0670  0.2825  0.7835
   41CHL1   C22 5496   2.447   2.997   8.901  0.3032  0.7083  0.9439
   41CHL1  H22A 5497   2.378   2.959   8.823  0.0661 -1.6986  2.2929
   41CHL1  H22B 5498   2.425   3.104   8.921 -0.0179  1.1278 -1.4600
   41CHL1   C23 5499   2.588   2.982   8.839 -0.4881  0.2968 -0.6983
   41CHL1  H23A 5500   2.660   3.010   8.919 -0.7714  2.1413 -1.0718
   41CHL1  H23B 5501   2.607   2.875   8.817 -4.0626 -0.7263  0.8236
   41CHL1   C24 5502   2.627   3.067   8.711  0.5425  0.1767 -0.0676
   41CHL1  H24A 5503   2.632   3.173   8.745 -1.0565  0.5566 -1.0142
   41CHL1  H24B 5504   2.734   3.041   8.695  0.2235  0.0319 -2.1503
   41CHL1   C25 5505   2.535   3.058   8.592  0.0496 -0.4748 -0.0549
   41CHL1   H25 5506   2.438   3.110   8.604  0.7497  1.1802 -1.4114
   41CHL1   C26 5507   2.597   3.126   8.471 -0.0714  0.8288 -0.7656
   41CHL1  H26A 5508   2.575   3.235   8.477  0.5635  0.8369  2.1337
   41CHL1  H26B 5509   2.707   3.120   8.457 -0.1103  1.8131 -1.6105
   41CHL1  H26C 5510   2.541   3.090   8.382 -0.9616  0.4611 -0.0630
   41CHL1   C27 5511   2.503   2.913   8.561  0.3931 -1.1072 -0.0446
   41CHL1  H27A 5512   2.447   2.850   8.633  1.4002 -2.3843 -0.3435
   41CHL1  H27B 5513   2.462   2.912   8.458 -0.0623 -0.6962  0.1365
   41CHL1  H27C 5514   2.603   2.865   8.547  1.0043  0.4976 -1.3366
   42CHL1    C3 5515   1.845   2.556   9.821 -0.3389  0.1804  0.2505
   42CHL1    H3 5516   1.744   2.591   9.791 -0.3919 -0.1876 -0.0041
   42CHL1    O3 5517   1.843   2.553   9.967 -0.2876  0.0292  0.1940
   42CHL1   H3' 5518   1.894   2.627  10.002 -0.0847  1.1586 -2.3714
   42CHL1    C4 5519   1.886   2.411   9.767 -0.1771 -0.5180  0.6103
   42CHL1   H4A 5520   1.982   2.386   9.817  1.6475 -1.3467 -3.1227
   42CHL1   H4B 5521   1.808   2.339   9.800  1.4137 -1.6522  1.9684
   42CHL1    C5 5522   1.905   2.412   9.615  0.5114  0.2565  0.2472
   42CHL1    C6 5523   1.846   2.314   9.543 -0.3194  1.6894 -0.9018
   42CHL1    H6 5524   1.785   2.239   9.594 -1.8382  3.8678  0.6022
   42CHL1    C7 5525   1.851   2.306   9.391 -0.1790  0.0869 -0.1353
   42CHL1   H7A 5526   1.861   2.202   9.355 -1.7990  0.2663 -1.1383
   42CHL1   H7B 5527   1.753   2.346   9.358 -0.3157 -0.7528 -0.7546
   42CHL1    C8 5528   1.953   2.405   9.328 -0.4570  0.6059 -0.3201
   42CHL1    H8 5529   2.055   2.362   9.330  0.3432  2.5203 -0.1341
   42CHL1   C14 5530   1.912   2.433   9.189 -0.2919 -0.1916  0.1724
   42CHL1   H14 5531   1.821   2.496   9.192 -2.3320 -3.0352 -0.5017
   42CHL1   C15 5532   1.860   2.317   9.101 -0.1494  0.4187  0.2753
   42CHL1  H15A 5533   1.927   2.231   9.124 -1.3848 -0.9360 -1.0463
   42CHL1  H15B 5534   1.756   2.282   9.118  0.2943 -1.5893 -0.9154
   42CHL1   C16 5535   1.874   2.372   8.959 -0.3254 -0.4163  1.1282
   42CHL1  H16A 5536   1.957   2.311   8.916 -2.5361 -3.0442  0.4727
   42CHL1  H16B 5537   1.793   2.359   8.885 -1.0563  2.5945  1.3411
   42CHL1   C17 5538   1.933   2.518   8.966  0.2572 -0.0207  0.0606
   42CHL1   H17 5539   1.849   2.590   8.978  1.8797  1.9594 -0.3562
   42CHL1   C13 5540   2.012   2.517   9.100 -0.4788 -0.1020 -0.0194
   42CHL1   C18 5541   2.143   2.436   9.083  0.2619 -0.3918 -0.1694
   42CHL1  H18A 5542   2.201   2.421   9.177 -1.2069 -1.4124  0.5842
   42CHL1  H18B 5543   2.130   2.337   9.033 -2.1230 -0.5272  0.6606
   42CHL1  H18C 5544   2.219   2.495   9.028  0.8522  0.0967  1.1549
   42CHL1   C12 5545   2.032   2.654   9.174  0.2135 -0.0097 -0.2212
   42CHL1  H12A 5546   2.111   2.706   9.116 -1.0103 -1.3978 -3.2108
   42CHL1  H12B 5547   1.944   2.719   9.159 -0.6667 -1.2583 -0.5469
   42CHL1   C11 5548   2.065   2.636   9.319  0.5840  0.5878  0.7060
   42CHL1  H11A 5549   2.167   2.591   9.324  1.8152  2.4489 -4.4321
   42CHL1  H11B 5550   2.058   2.733   9.372 -1.9884  1.4712 -1.1868
   42CHL1    C9 5551   1.962   2.543   9.394  0.0738  0.3670 -0.5018
   42CHL1    H9 5552   1.858   2.580   9.380 -1.0255 -2.9135 -1.6117
   42CHL1   C10 5553   1.987   2.530   9.548  0.3452  0.2325 -0.5998
   42CHL1   C19 5554   2.132   2.497   9.574  0.7833  0.2538  0.2722
   42CHL1  H19A 5555   2.168   2.432   9.492 -0.4514  0.8922 -0.7889
   42CHL1  H19B 5556   2.197   2.587   9.580  0.9231  0.1450  0.4079
   42CHL1  H19C 5557   2.148   2.454   9.675 -0.9159  0.5647  0.6994
   42CHL1    C1 5558   1.953   2.667   9.623  0.5053  0.1541 -0.0256
   42CHL1   H1A 5559   2.026   2.746   9.593  1.4156 -0.6976 -0.1089
   42CHL1   H1B 5560   1.856   2.691   9.576  1.0252 -1.4107 -1.9766
   42CHL1    C2 5561   1.948   2.665   9.779  0.0185  0.4908  0.2255
   42CHL1   H2A 5562   1.910   2.757   9.828 -0.8952 -0.4844  1.4012
   42CHL1   H2B 5563   2.047   2.636   9.821  0.4830  1.4914 -0.1662
   42CHL1   C20 5564   2.010   2.543   8.842  0.2113 -0.3157  0.2895
   42CHL1   H20 5565   2.074   2.454   8.822  1.7283  1.5215 -3.3786
   42CHL1   C21 5566   2.097   2.669   8.847 -0.3240  0.3223 -0.0865
   42CHL1  H21A 5567   2.181   2.656   8.918 -1.5065 -1.0057  1.1209
   42CHL1  H21B 5568   2.037   2.755   8.883 -0.8694 -0.0632 -0.0594
   42CHL1  H21C 5569   2.149   2.695   8.753  1.8130 -0.8089  0.7568
   42CHL1   C22 5570   1.926   2.560   8.718 -0.1722 -0.2745  0.0963
   42CHL1  H22A 5571   1.851   2.480   8.701 -0.9955  0.6066 -0.4456
   42CHL1  H22B 5572   1.877   2.659   8.714  1.6597  0.8068  2.8252
   42CHL1   C23 5573   2.010   2.539   8.591 -0.1142  0.1739 -0.3897
   42CHL1  H23A 5574   2.093   2.610   8.572 -1.4317  1.8917  0.0925
   42CHL1  H23B 5575   2.053   2.437   8.605  2.8847  1.7009  1.9676
   42CHL1   C24 5576   1.920   2.533   8.463 -0.8524  0.2237  0.3154
   42CHL1  H24A 5577   1.843   2.460   8.497  0.3008 -0.3131  1.8297
   42CHL1  H24B 5578   1.882   2.636   8.452 -0.9514  0.3183  1.5652
   42CHL1   C25 5579   1.970   2.464   8.331  0.0540 -0.5654 -0.5880
   42CHL1   H25 5580   2.050   2.526   8.287 -0.2391 -0.1233 -0.4964
   42CHL1   C26 5581   2.038   2.331   8.350  1.0592  0.3838  0.2764
   42CHL1  H26A 5582   1.962   2.251   8.364 -0.0880  1.1741 -1.3036
   42CHL1  H26B 5583   2.089   2.295   8.259  0.2793 -1.0587  0.3974
   42CHL1  H26C 5584   2.117   2.337   8.428  0.5094 -0.3804  0.9040
   42CHL1   C27 5585   1.857   2.452   8.229  0.1699  0.3484  0.0079
   42CHL1  H27A 5586   1.776   2.385   8.263  0.4390 -0.3445 -0.6957
   42CHL1  H27B 5587   1.814   2.552   8.205 -0.4631 -0.4432 -2.2674
   42CHL1  H27C 5588   1.897   2.415   8.132 -0.9369 -1.2696  0.1547
   43CHL1    C3 5589   2.297   2.341   9.975 -0.3364 -0.2078 -0.3428
   43CHL1    H3 5590   2.226   2.417   9.935 -0.1576  0.4187  0.5151
   43CHL1    O3 5591   2.282   2.327  10.111 -0.2885 -0.4552 -0.1709
   43CHL1   H3' 5592   2.295   2.235  10.133  1.0529  0.0394  1.1447
   43CHL1    C4 5593   2.262   2.205   9.915  0.3089 -0.4081  1.2499
   43CHL1   H4A 5594   2.317   2.123   9.967 -1.5134 -3.0293 -0.8078
   43CHL1   H4B 5595   2.161   2.172   9.947 -0.6583  1.8659  0.6188
   43CHL1    C5 5596   2.279   2.197   9.765  0.0624 -0.6537 -0.1484
   43CHL1    C6 5597   2.182   2.170   9.673  0.5199 -0.8167 -1.0611
   43CHL1    H6 5598   2.081   2.145   9.708  1.9863 -1.7452  2.8406
   43CHL1    C7 5599   2.205   2.152   9.527 -0.4675 -0.3684 -0.0966
   43CHL1   H7A 5600   2.159   2.064   9.478  0.4227 -1.4125  0.8973
   43CHL1   H7B 5601   2.159   2.236   9.472 -0.8860 -0.7718 -0.3657
   43CHL1    C8 5602   2.356   2.156   9.481  0.1117 -0.5369 -0.0207
   43CHL1    H8 5603   2.411   2.061   9.496 -0.2482 -0.9744 -1.3443
   43CHL1   C14 5604   2.368   2.186   9.326  0.4891  0.5612 -0.2380
   43CHL1   H14 5605   2.315   2.283   9.317  0.7946  0.7698  0.1966
   43CHL1   C15 5606   2.298   2.086   9.244  0.0998  0.1284 -0.2176
   43CHL1  H15A 5607   2.318   1.982   9.278 -2.6580 -0.8884 -1.5989
   43CHL1  H15B 5608   2.189   2.106   9.234 -0.0232 -0.1330  0.5672
   43CHL1   C16 5609   2.371   2.103   9.111 -0.7116  0.1464 -0.1680
   43CHL1  H16A 5610   2.418   2.004   9.092 -2.5233 -1.2576  2.3932
   43CHL1  H16B 5611   2.308   2.130   9.023 -0.7635 -1.2867 -0.5797
   43CHL1   C17 5612   2.487   2.212   9.125  0.4917 -0.0806  0.1269
   43CHL1   H17 5613   2.444   2.313   9.107 -1.4497 -0.9711 -0.3171
   43CHL1   C13 5614   2.511   2.203   9.277  0.1144 -1.4251 -0.5893
   43CHL1   C18 5615   2.590   2.068   9.305 -1.0565 -0.2172  0.4677
   43CHL1  H18A 5616   2.589   2.039   9.412  3.1001 -1.4133  0.2731
   43CHL1  H18B 5617   2.538   1.986   9.251  1.9212 -0.0835 -2.7393
   43CHL1  H18C 5618   2.695   2.071   9.268 -1.4412  0.9024 -0.5579
   43CHL1   C12 5619   2.570   2.328   9.351  0.2134  0.4064 -0.2083
   43CHL1  H12A 5620   2.677   2.344   9.326  0.3959 -1.2626 -0.5384
   43CHL1  H12B 5621   2.518   2.419   9.316 -1.1257  0.8924  2.8745
   43CHL1   C11 5622   2.566   2.307   9.502  0.7706  0.1564 -0.3237
   43CHL1  H11A 5623   2.628   2.217   9.521  0.1359  0.4127  3.4630
   43CHL1  H11B 5624   2.613   2.399   9.544 -0.3799  0.7510 -0.3191
   43CHL1    C9 5625   2.431   2.272   9.558 -0.2192 -0.4782  0.9130
   43CHL1    H9 5626   2.376   2.368   9.548  0.5106  0.2906  3.7393
   43CHL1   C10 5627   2.422   2.252   9.716  0.4784 -0.3812 -0.1695
   43CHL1   C19 5628   2.532   2.152   9.753  0.3803  0.3728 -0.1059
   43CHL1  H19A 5629   2.632   2.192   9.726 -0.4157  2.3328 -0.2242
   43CHL1  H19B 5630   2.533   2.131   9.862 -0.3215 -1.2407 -0.3789
   43CHL1  H19C 5631   2.508   2.055   9.702  0.9136 -0.3677  1.0328
   43CHL1    C1 5632   2.452   2.389   9.791 -0.6970  0.8033 -0.0487
   43CHL1   H1A 5633   2.553   2.427   9.765  0.0859 -0.7290  0.7244
   43CHL1   H1B 5634   2.390   2.477   9.763 -1.1993  0.1339 -1.0957
   43CHL1    C2 5635   2.439   2.387   9.941 -0.5528 -0.1333  0.6285
   43CHL1   H2A 5636   2.448   2.491   9.976  0.1827 -0.1954  0.6137
   43CHL1   H2B 5637   2.517   2.336  10.001  0.6045  1.5925  0.6141
   43CHL1   C20 5638   2.598   2.192   9.025 -0.4381  0.1717 -0.1162
   43CHL1   H20 5639   2.643   2.093   9.045 -0.8253 -0.3817 -1.9394
   43CHL1   C21 5640   2.710   2.295   9.049  0.3318  0.1670  0.5193
   43CHL1  H21A 5641   2.776   2.276   9.136 -0.6504 -0.5358  1.1152
   43CHL1  H21B 5642   2.657   2.391   9.070 -0.7942 -0.6093  1.2605
   43CHL1  H21C 5643   2.784   2.298   8.967 -0.6099 -3.1231 -0.5282
   43CHL1   C22 5644   2.565   2.191   8.870  0.7484 -0.5168 -0.2358
   43CHL1  H22A 5645   2.666   2.204   8.825  0.8400 -1.8063 -0.4258
   43CHL1  H22B 5646   2.534   2.089   8.837 -1.7788  0.3228 -0.5201
   43CHL1   C23 5647   2.460   2.301   8.819 -0.2301  0.9577 -0.3578
   43CHL1  H23A 5648   2.362   2.262   8.854  0.5448 -0.4543  0.2781
   43CHL1  H23B 5649   2.469   2.394   8.879  1.2794  1.0208 -0.6480
   43CHL1   C24 5650   2.485   2.335   8.673  0.2837 -0.3808 -0.3105
   43CHL1  H24A 5651   2.591   2.366   8.665 -0.2041  1.3190 -0.4383
   43CHL1  H24B 5652   2.466   2.246   8.610 -2.8413  0.0708 -0.0821
   43CHL1   C25 5653   2.381   2.444   8.632 -0.1839  0.3299  0.7858
   43CHL1   H25 5654   2.281   2.394   8.633 -1.5677  2.9663 -0.3638
   43CHL1   C26 5655   2.393   2.573   8.713 -0.7246 -0.6270 -0.6282
   43CHL1  H26A 5656   2.347   2.555   8.812 -1.4609  1.8349 -0.5081
   43CHL1  H26B 5657   2.494   2.615   8.730 -1.8822  0.7697  3.2227
   43CHL1  H26C 5658   2.334   2.653   8.662  1.1909  0.7928 -0.6367
   43CHL1   C27 5659   2.422   2.480   8.487 -0.4861 -0.9266  0.7526
   43CHL1  H27A 5660   2.524   2.522   8.485 -1.5364  1.9937  3.5489
   43CHL1  H27B 5661   2.424   2.393   8.418  2.1406  1.0171 -1.7425
   43CHL1  H27C 5662   2.355   2.560   8.448 -0.2447 -0.0894  2.0075
   44CHL1    C3 5663   2.975   3.211  10.188 -0.4241 -0.1736  0.0014
   44CHL1    H3 5664   2.878   3.158  10.194  0.7065 -2.0542  2.7549
   44CHL1    O3 5665   3.015   3.248  10.320 -0.2962  0.5129 -0.4200
   44CHL1   H3' 5666   3.090   3.308  10.317  0.0959  0.4477  4.2250
   44CHL1    C4 5667   3.072   3.108  10.126 -0.3432 -0.5820  0.2099
   44CHL1   H4A 5668   3.170   3.141  10.167 -0.3537 -1.1798  0.7140
   44CHL1   H4B 5669   3.050   3.009  10.170  0.8741 -1.0106 -0.1430
   44CHL1    C5 5670   3.053   3.105   9.977 -0.6459  0.3213  0.3060
   44CHL1    C6 5671   3.050   2.987   9.917  0.5218 -0.3044 -0.7573
   44CHL1    H6 5672   3.045   2.896   9.979 -0.7408  0.8458  0.8831
   44CHL1    C7 5673   3.062   2.971   9.771  0.8015  0.0920 -0.5608
   44CHL1   H7A 5674   3.136   2.892   9.744  0.7769 -0.2069  0.2418
   44CHL1   H7B 5675   2.958   2.952   9.736  0.2770  2.0542 -0.0961
   44CHL1    C8 5676   3.090   3.096   9.693 -0.0799  0.0944  0.0517
   44CHL1    H8 5677   3.200   3.103   9.682 -0.2318 -1.2084 -2.9025
   44CHL1   C14 5678   3.040   3.082   9.543 -0.2258  0.6035  0.6270
   44CHL1   H14 5679   2.929   3.069   9.546 -0.4537  2.3788  0.3531
   44CHL1   C15 5680   3.094   2.965   9.461 -0.4045 -0.1460 -0.4570
   44CHL1  H15A 5681   3.201   2.964   9.489 -0.6889  2.8802  0.9467
   44CHL1  H15B 5682   3.042   2.873   9.496  1.3511 -0.4525  1.4652
   44CHL1   C16 5683   3.079   2.997   9.314  0.6733 -0.4536 -0.0996
   44CHL1  H16A 5684   3.178   2.992   9.264  1.4528  1.6583  1.1480
   44CHL1  H16B 5685   3.005   2.925   9.273 -0.5596  1.1528 -0.7550
   44CHL1   C17 5686   3.025   3.143   9.316  0.1129  0.0589 -0.2443
   44CHL1   H17 5687   2.914   3.131   9.317  0.0045  0.8305 -2.3070
   44CHL1   C13 5688   3.061   3.208   9.459  0.4800  0.2929  0.5770
   44CHL1   C18 5689   3.211   3.232   9.447  0.1306  0.3826 -0.2614
   44CHL1  H18A 5690   3.230   3.331   9.400  0.9907  0.2253 -0.2530
   44CHL1  H18B 5691   3.260   3.224   9.546 -2.1174 -0.3489  0.8354
   44CHL1  H18C 5692   3.260   3.158   9.381 -0.5611  0.9460 -1.4232
   44CHL1   C12 5693   2.984   3.329   9.510  0.1935  0.5520 -1.0746
   44CHL1  H12A 5694   3.017   3.417   9.451 -1.0047  0.4605 -1.8873
   44CHL1  H12B 5695   2.874   3.325   9.494  0.0408 -0.1901  0.0647
   44CHL1   C11 5696   3.022   3.352   9.659  0.5427  0.0432  0.4958
   44CHL1  H11A 5697   3.124   3.396   9.648  0.8435 -0.3629  1.6111
   44CHL1  H11B 5698   2.963   3.435   9.704 -0.2129 -0.6376  0.7578
   44CHL1    C9 5699   3.021   3.222   9.748 -0.0605 -0.1402  0.1664
   44CHL1    H9 5700   2.914   3.189   9.752  0.4200 -1.5767  1.8827
   44CHL1   C10 5701   3.055   3.241   9.897  0.3586  0.0049  0.3557
   44CHL1   C19 5702   3.191   3.311   9.911 -0.7698 -0.4069 -0.1793
   44CHL1  H19A 5703   3.174   3.419   9.890  0.7603  0.1030  1.1274
   44CHL1  H19B 5704   3.223   3.312  10.017  3.7127 -0.6914 -1.4094
   44CHL1  H19C 5705   3.267   3.269   9.842 -0.5382  0.3527 -0.3909
   44CHL1    C1 5706   2.933   3.325   9.965  0.1149 -0.2760 -0.5890
   44CHL1   H1A 5707   2.925   3.426   9.921 -0.9070  1.1895  2.7582
   44CHL1   H1B 5708   2.835   3.275   9.950 -0.2617  0.3670 -0.2922
   44CHL1    C2 5709   2.965   3.340  10.117 -0.2180 -0.2248 -0.0588
   44CHL1   H2A 5710   2.886   3.408  10.153  1.9801  0.7581  3.0790
   44CHL1   H2B 5711   3.062   3.393  10.129 -0.6575  1.1495 -2.2566
   44CHL1   C20 5712   3.055   3.221   9.182 -0.0095 -0.4465  0.7180
   44CHL1   H20 5713   3.160   3.257   9.190  0.4681 -1.7004  0.3268
   44CHL1   C21 5714   2.949   3.340   9.157 -0.1945  0.2196  0.6608
   44CHL1  H21A 5715   2.953   3.393   9.254 -0.3037  0.3054  0.6186
   44CHL1  H21B 5716   2.841   3.318   9.166 -0.2856  1.7561  3.8766
   44CHL1  H21C 5717   2.978   3.401   9.068 -0.4616  0.5464  0.7996
   44CHL1   C22 5718   3.071   3.124   9.059  0.5870 -0.4105 -0.0609
   44CHL1  H22A 5719   3.161   3.059   9.060  0.5254 -0.5019 -0.4845
   44CHL1  H22B 5720   2.993   3.045   9.064  0.7366 -0.4283  4.3123
   44CHL1   C23 5721   3.057   3.186   8.920 -0.5140 -0.6878  0.1589
   44CHL1  H23A 5722   3.034   3.100   8.853  2.6520 -2.1194  0.8664
   44CHL1  H23B 5723   2.981   3.267   8.912  0.8385  1.0310  3.8957
   44CHL1   C24 5724   3.190   3.251   8.867  0.0586  0.2202 -0.8323
   44CHL1  H24A 5725   3.212   3.345   8.921  1.1817 -0.5425  0.0812
   44CHL1  H24B 5726   3.268   3.177   8.896 -0.1429 -0.2655 -1.5239
   44CHL1   C25 5727   3.199   3.282   8.710 -0.4401  0.5267 -0.3768
   44CHL1   H25 5728   3.198   3.184   8.657  0.9847 -0.1191  0.7480
   44CHL1   C26 5729   3.094   3.379   8.660  0.2162 -0.2560  0.8333
   44CHL1  H26A 5730   3.095   3.377   8.549  0.7964 -2.0640  0.8655
   44CHL1  H26B 5731   2.990   3.353   8.691 -0.5823  1.0908 -0.6219
   44CHL1  H26C 5732   3.097   3.486   8.691  0.2733 -0.4878  1.6455
   44CHL1   C27 5733   3.338   3.347   8.669 -0.0834  0.0422 -0.7956
   44CHL1  H27A 5734   3.351   3.374   8.562  3.0862 -0.7032 -0.6368
   44CHL1  H27B 5735   3.365   3.434   8.732  0.8862  0.3268 -1.5940
   44CHL1  H27C 5736   3.410   3.265   8.689  1.8318  2.4364  2.6399
   45CHL1    C3 5737   6.404   2.021  10.148  0.1718 -0.1229 -0.2881
   45CHL1    H3 5738   6.334   1.937  10.133 -0.2147  0.2313 -0.4838
   45CHL1    O3 5739   6.445   2.045  10.286 -0.0264  0.1181  0.1183
   45CHL1   H3' 5740   6.408   2.133  10.296 -0.4657 -0.2187  1.4923
   45CHL1    C4 5741   6.542   1.991  10.074  0.1567  0.2009 -0.4282
   45CHL1   H4A 5742   6.609   2.077  10.095  0.7647 -0.2610 -0.4974
   45CHL1   H4B 5743   6.591   1.905  10.123  0.8931  0.1889 -1.1721
   45CHL1    C5 5744   6.534   1.993   9.921 -0.0332  0.2607  1.4260
   45CHL1    C6 5745   6.573   1.888   9.853  0.1458  0.2809 -0.2353
   45CHL1    H6 5746   6.630   1.817   9.916  0.3013  1.6677  1.2319
   45CHL1    C7 5747   6.547   1.863   9.714 -0.2016 -0.7577 -0.1651
   45CHL1   H7A 5748   6.629   1.814   9.658 -2.1684 -1.6930 -2.3274
   45CHL1   H7B 5749   6.467   1.786   9.700 -1.5987  0.7626 -0.6536
   45CHL1    C8 5750   6.503   1.984   9.622  0.3391 -0.0172 -0.6096
   45CHL1    H8 5751   6.443   1.942   9.538  1.3447 -1.4359 -0.6481
   45CHL1   C14 5752   6.624   2.051   9.557  0.9535 -0.1201 -0.3024
   45CHL1   H14 5753   6.694   2.075   9.640 -2.9782 -0.6227  3.3734
   45CHL1   C15 5754   6.684   1.959   9.450 -0.0016 -0.5902 -0.5175
   45CHL1  H15A 5755   6.794   1.955   9.464  0.2651 -0.4962 -2.4405
   45CHL1  H15B 5756   6.649   1.854   9.457  1.4462 -1.1288 -1.2242
   45CHL1   C16 5757   6.658   2.017   9.309 -0.0896 -0.4232 -0.1797
   45CHL1  H16A 5758   6.753   2.066   9.279 -1.9243  2.6701 -1.1996
   45CHL1  H16B 5759   6.613   1.943   9.240 -1.7598 -1.3600  1.8849
   45CHL1   C17 5760   6.550   2.123   9.338 -0.1986 -0.1119  0.5910
   45CHL1   H17 5761   6.457   2.063   9.345  0.6961 -1.3889  1.7716
   45CHL1   C13 5762   6.576   2.179   9.480 -0.1083  0.1864 -0.3126
   45CHL1   C18 5763   6.705   2.267   9.473 -0.4903 -0.0502 -0.0619
   45CHL1  H18A 5764   6.796   2.208   9.451 -0.9153 -1.6899  2.3557
   45CHL1  H18B 5765   6.688   2.357   9.410  0.7761 -0.6253 -1.2432
   45CHL1  H18C 5766   6.724   2.301   9.577 -0.5478  2.8577 -0.9615
   45CHL1   C12 5767   6.459   2.272   9.539  0.0663 -0.2109  0.3056
   45CHL1  H12A 5768   6.494   2.349   9.611  2.1963 -0.5891 -0.3143
   45CHL1  H12B 5769   6.408   2.325   9.456  1.5226 -0.6956 -0.9174
   45CHL1   C11 5770   6.360   2.187   9.616  0.0503 -0.4204  0.0416
   45CHL1  H11A 5771   6.294   2.243   9.686  0.3447  1.5620 -1.2065
   45CHL1  H11B 5772   6.287   2.140   9.546  1.0125  2.0665 -2.7796
   45CHL1    C9 5773   6.412   2.075   9.706  0.1148  0.2638  0.2965
   45CHL1    H9 5774   6.322   2.012   9.724  1.3056 -2.3358 -2.3811
   45CHL1   C10 5775   6.453   2.110   9.856 -0.5764 -0.0900  0.3433
   45CHL1   C19 5776   6.534   2.244   9.860  0.6301 -0.7397  0.3365
   45CHL1  H19A 5777   6.625   2.235   9.797  2.2435  2.6261  2.0631
   45CHL1  H19B 5778   6.472   2.327   9.820  0.8688 -1.5111 -1.7043
   45CHL1  H19C 5779   6.561   2.276   9.963 -1.4971 -0.0270  0.7047
   45CHL1    C1 5780   6.314   2.132   9.936 -0.1462 -0.7029  0.2101
   45CHL1   H1A 5781   6.259   2.221   9.898  2.5067 -0.1879 -2.6380
   45CHL1   H1B 5782   6.254   2.041   9.913 -0.3015 -0.8592  1.2130
   45CHL1    C2 5783   6.328   2.148  10.095 -0.1081 -0.1604 -0.9447
   45CHL1   H2A 5784   6.232   2.159  10.150 -0.6197 -0.5272 -1.7550
   45CHL1   H2B 5785   6.394   2.234  10.116  0.9560 -1.4037  0.9233
   45CHL1   C20 5786   6.529   2.224   9.224  0.3634  0.2767 -0.3484
   45CHL1   H20 5787   6.507   2.323   9.271  1.0830  0.0289  0.5308
   45CHL1   C21 5788   6.395   2.185   9.154  0.2376  0.2462  0.0844
   45CHL1  H21A 5789   6.312   2.157   9.222 -0.7862 -0.0928 -1.2979
   45CHL1  H21B 5790   6.405   2.088   9.102  0.5915 -0.6815  1.8282
   45CHL1  H21C 5791   6.352   2.250   9.075 -2.2730 -1.1416  0.2587
   45CHL1   C22 5792   6.645   2.242   9.132 -0.8416 -0.5565 -0.3805
   45CHL1  H22A 5793   6.732   2.276   9.192 -1.4601 -1.7674  1.2443
   45CHL1  H22B 5794   6.670   2.145   9.086 -0.5732 -0.8527  0.3790
   45CHL1   C23 5795   6.610   2.343   9.020 -0.1457  0.1903 -0.1439
   45CHL1  H23A 5796   6.549   2.289   8.945  0.1387  2.2720 -1.8963
   45CHL1  H23B 5797   6.557   2.431   9.062 -0.5148  0.5545 -1.3489
   45CHL1   C24 5798   6.737   2.389   8.950  0.5622  0.3190 -0.1246
   45CHL1  H24A 5799   6.799   2.457   9.013 -0.5214  1.6030 -0.4292
   45CHL1  H24B 5800   6.797   2.305   8.911  0.6243 -0.2964  1.2611
   45CHL1   C25 5801   6.705   2.466   8.812 -0.0794 -0.1434  0.0179
   45CHL1   H25 5802   6.645   2.395   8.751 -2.4450  0.6775  1.3126
   45CHL1   C26 5803   6.606   2.585   8.840  0.1130  1.3035 -0.2959
   45CHL1  H26A 5804   6.650   2.661   8.908 -1.1415  1.6223  0.1610
   45CHL1  H26B 5805   6.572   2.631   8.745 -0.3100  3.7226  1.0007
   45CHL1  H26C 5806   6.508   2.550   8.878 -1.0335  2.4147 -2.1728
   45CHL1   C27 5807   6.832   2.490   8.735  0.3360  0.0857 -0.3963
   45CHL1  H27A 5808   6.810   2.539   8.637 -0.3027  2.0095  0.6831
   45CHL1  H27B 5809   6.902   2.562   8.784  1.0433 -0.2266 -0.9223
   45CHL1  H27C 5810   6.900   2.402   8.725 -0.6052 -0.8598  1.4378
   46CHL1    C3 5811   3.002   6.471  10.115  0.0378 -0.5219  0.5076
   46CHL1    H3 5812   3.109   6.491  10.089  0.2503  0.2200  1.9229
   46CHL1    O3 5813   2.992   6.483  10.256 -0.3003  0.0472  0.4827
   46CHL1   H3' 5814   2.940   6.560  10.280 -0.3143  0.9998 -2.3830
   46CHL1    C4 5815   2.900   6.569  10.051 -0.7179  0.4063 -0.0269
   46CHL1   H4A 5816   2.798   6.550  10.089 -0.7931  1.8585  0.5240
   46CHL1   H4B 5817   2.933   6.674  10.068  1.5776 -0.2053 -0.4706
   46CHL1    C5 5818   2.901   6.550   9.896 -0.1749 -0.0611  0.1614
   46CHL1    C6 5819   2.940   6.644   9.810 -0.3036 -0.3736  0.0145
   46CHL1    H6 5820   2.980   6.739   9.846  0.9524 -1.4086  1.3643
   46CHL1    C7 5821   2.941   6.626   9.660  0.4059  0.2484  1.0249
   46CHL1   H7A 5822   2.898   6.713   9.605  1.3728 -2.1204 -3.7268
   46CHL1   H7B 5823   3.045   6.609   9.623  0.1282  1.9207 -0.6207
   46CHL1    C8 5824   2.852   6.505   9.612 -1.0725 -0.7821  0.3145
   46CHL1    H8 5825   2.749   6.545   9.627 -1.3006 -0.6193 -1.5399
   46CHL1   C14 5826   2.876   6.464   9.466 -0.0072  0.6448  0.1083
   46CHL1   H14 5827   2.979   6.426   9.455 -0.0823  0.8722 -1.6325
   46CHL1   C15 5828   2.865   6.583   9.360 -0.0902  0.1104 -0.3282
   46CHL1  H15A 5829   2.775   6.635   9.400 -1.0577 -0.7241 -1.4006
   46CHL1  H15B 5830   2.956   6.647   9.372 -0.6377  0.9415 -0.5389
   46CHL1   C16 5831   2.852   6.503   9.232 -0.2803 -0.2197 -0.0862
   46CHL1  H16A 5832   2.755   6.530   9.184 -0.4182 -1.0209 -0.2562
   46CHL1  H16B 5833   2.935   6.531   9.165 -1.2417 -1.1450 -1.6855
   46CHL1   C17 5834   2.833   6.353   9.260 -0.7114  0.1083 -0.0092
   46CHL1   H17 5835   2.933   6.305   9.264 -0.2546  0.9883 -0.5082
   46CHL1   C13 5836   2.785   6.357   9.408 -0.9682 -0.5075  0.5330
   46CHL1   C18 5837   2.629   6.386   9.415  0.1458  0.4587 -1.5822
   46CHL1  H18A 5838   2.578   6.292   9.383 -1.1232  0.2117  1.0889
   46CHL1  H18B 5839   2.605   6.401   9.522  1.0425  0.8979 -1.4378
   46CHL1  H18C 5840   2.594   6.463   9.343  0.0174  0.7862 -1.1662
   46CHL1   C12 5841   2.808   6.229   9.489  0.7559  0.3283 -0.1411
   46CHL1  H12A 5842   2.742   6.145   9.459  0.0006  0.1813  1.8643
   46CHL1  H12B 5843   2.914   6.198   9.473  0.7937  0.8802 -0.9898
   46CHL1   C11 5844   2.793   6.261   9.639 -0.9845 -0.2005 -0.5749
   46CHL1  H11A 5845   2.685   6.280   9.653 -1.4329 -0.7495 -3.0212
   46CHL1  H11B 5846   2.830   6.172   9.695  1.7331  1.7010  0.7878
   46CHL1    C9 5847   2.871   6.380   9.699  0.3215  0.0059  0.7808
   46CHL1    H9 5848   2.979   6.354   9.688 -0.0822 -1.2511 -0.3173
   46CHL1   C10 5849   2.848   6.413   9.854  0.1216  0.1335  0.1356
   46CHL1   C19 5850   2.700   6.391   9.888 -0.3216 -0.2020 -0.1740
   46CHL1  H19A 5851   2.633   6.438   9.813 -1.8128  0.8025  1.7399
   46CHL1  H19B 5852   2.670   6.284   9.879  2.4516 -0.9245 -1.3693
   46CHL1  H19C 5853   2.680   6.444   9.983  1.2944  1.2351 -0.6171
   46CHL1    C1 5854   2.937   6.310   9.922 -0.4758 -0.0103  0.4674
   46CHL1   H1A 5855   2.890   6.210   9.905  0.3852 -0.6241  1.6500
   46CHL1   H1B 5856   3.035   6.315   9.870 -0.6506 -0.0604  0.1303
   46CHL1    C2 5857   2.946   6.332  10.078 -0.0869 -0.0428  0.6745
   46CHL1   H2A 5858   3.015   6.255  10.120 -1.1801 -0.5630  1.5174
   46CHL1   H2B 5859   2.840   6.328  10.108 -0.9340  1.7980 -1.8992
   46CHL1   C20 5860   2.755   6.277   9.151  0.4062 -0.1693  0.8581
   46CHL1   H20 5861   2.648   6.307   9.154  0.7195  1.1095 -0.2478
   46CHL1   C21 5862   2.769   6.123   9.176  0.3241 -0.4946  0.1572
   46CHL1  H21A 5863   2.729   6.057   9.096 -0.2809  1.7589 -1.4810
   46CHL1  H21B 5864   2.707   6.099   9.264  2.1565  2.4005  2.3359
   46CHL1  H21C 5865   2.876   6.104   9.199  0.8393  1.8899 -0.1333
   46CHL1   C22 5866   2.795   6.324   9.011 -0.4606 -0.5739  0.0098
   46CHL1  H22A 5867   2.782   6.432   8.988  0.9916 -0.1543  1.1002
   46CHL1  H22B 5868   2.904   6.305   9.018 -0.8755 -2.9822  0.4776
   46CHL1   C23 5869   2.745   6.246   8.890 -0.3764  0.2900 -0.4949
   46CHL1  H23A 5870   2.797   6.149   8.875 -1.7582 -0.6848  0.8845
   46CHL1  H23B 5871   2.636   6.233   8.908  0.5244 -4.5150  2.4383
   46CHL1   C24 5872   2.773   6.324   8.760  0.5176 -0.2983 -0.2997
   46CHL1  H24A 5873   2.755   6.433   8.775 -1.9603 -0.8184  0.6358
   46CHL1  H24B 5874   2.883   6.313   8.746  0.7724 -0.1615  1.5189
   46CHL1   C25 5875   2.689   6.279   8.640  0.8157  0.1572  0.9177
   46CHL1   H25 5876   2.583   6.274   8.674  0.3183 -0.5776 -0.6881
   46CHL1   C26 5877   2.701   6.374   8.516 -0.7918  0.4266  0.0249
   46CHL1  H26A 5878   2.645   6.338   8.427 -2.0700  0.0874  0.9443
   46CHL1  H26B 5879   2.656   6.474   8.532 -0.8959  0.4554 -0.4551
   46CHL1  H26C 5880   2.806   6.384   8.483 -0.2415  1.4007  1.9810
   46CHL1   C27 5881   2.719   6.137   8.595 -0.8850 -0.1366  0.1605
   46CHL1  H27A 5882   2.719   6.070   8.683 -1.9310  0.5755  0.7137
   46CHL1  H27B 5883   2.647   6.095   8.521 -0.5762 -0.4229  0.0193
   46CHL1  H27C 5884   2.821   6.139   8.552 -0.0554  2.8730  2.0876
   47CHL1    C3 5885   2.889   2.218   9.965 -0.4213 -0.4575  0.1910
   47CHL1    H3 5886   2.814   2.157   9.910 -1.4930  0.5910  0.4647
   47CHL1    O3 5887   2.885   2.172  10.104 -0.3281 -0.3311  0.3966
   47CHL1   H3' 5888   2.900   2.241  10.169  1.6682 -0.1197 -0.2523
   47CHL1    C4 5889   3.022   2.191   9.894 -0.7664  0.3799 -0.2171
   47CHL1   H4A 5890   3.104   2.234   9.956 -0.2270 -0.0446 -0.6307
   47CHL1   H4B 5891   3.020   2.080   9.902 -1.6203  0.3984 -0.1641
   47CHL1    C5 5892   3.027   2.237   9.751  0.0216  0.6605  0.0458
   47CHL1    C6 5893   3.049   2.158   9.648  0.2673 -0.8557  0.4129
   47CHL1    H6 5894   3.060   2.049   9.653 -1.0789 -1.0766 -1.1993
   47CHL1    C7 5895   3.040   2.201   9.501 -0.6001  0.6887 -0.3314
   47CHL1   H7A 5896   3.136   2.159   9.465 -0.1088 -0.4532  2.1496
   47CHL1   H7B 5897   2.956   2.153   9.447  0.8212 -0.9001 -1.1833
   47CHL1    C8 5898   3.043   2.358   9.490  0.2804 -0.1378 -0.0963
   47CHL1    H8 5899   3.149   2.385   9.509  0.3813  1.4936 -2.7478
   47CHL1   C14 5900   3.018   2.393   9.341  0.6005 -0.0133 -0.3864
   47CHL1   H14 5901   2.920   2.346   9.316 -0.7036  1.8165  1.0998
   47CHL1   C15 5902   3.106   2.329   9.233 -0.0083 -0.2804 -0.2976
   47CHL1  H15A 5903   3.209   2.320   9.274 -0.4001 -0.1245  0.7201
   47CHL1  H15B 5904   3.085   2.224   9.204 -4.0480  0.2327  0.5091
   47CHL1   C16 5905   3.084   2.420   9.110 -0.1561  0.0422 -0.1147
   47CHL1  H16A 5906   3.184   2.459   9.081  0.5850 -1.0352  0.9227
   47CHL1  H16B 5907   3.046   2.382   9.013  1.3552 -0.6236 -0.4667
   47CHL1   C17 5908   2.993   2.538   9.158  0.7875  0.3962  0.5303
   47CHL1   H17 5909   2.886   2.511   9.147  1.1769 -0.2869 -1.8001
   47CHL1   C13 5910   3.014   2.541   9.309 -0.2728  0.0032 -0.2424
   47CHL1   C18 5911   3.158   2.603   9.335  0.9161 -0.0911  0.3354
   47CHL1  H18A 5912   3.235   2.562   9.266 -0.9193  1.4099 -2.6849
   47CHL1  H18B 5913   3.157   2.714   9.342 -0.7667 -0.1441  1.1777
   47CHL1  H18C 5914   3.194   2.576   9.437 -0.7153  0.7140  1.1510
   47CHL1   C12 5915   2.906   2.602   9.405  0.1891 -0.5380  0.0292
   47CHL1  H12A 5916   2.901   2.712   9.395  0.1541 -0.3495  2.0074
   47CHL1  H12B 5917   2.806   2.567   9.371 -1.0860  1.6685  1.3758
   47CHL1   C11 5918   2.929   2.577   9.557  0.4420 -0.1089  0.6755
   47CHL1  H11A 5919   3.029   2.621   9.580  0.2713 -0.0337  1.2714
   47CHL1  H11B 5920   2.849   2.629   9.613  1.5348  2.1251  0.1895
   47CHL1    C9 5921   2.951   2.425   9.584 -0.6795 -0.1483  0.3005
   47CHL1    H9 5922   2.851   2.380   9.566 -0.0169 -0.6629 -2.3105
   47CHL1   C10 5923   2.983   2.384   9.735  0.0888  0.2091  0.5126
   47CHL1   C19 5924   3.110   2.467   9.772  0.5823 -0.2997  0.1116
   47CHL1  H19A 5925   3.188   2.461   9.692  0.0630  0.2161 -0.4383
   47CHL1  H19B 5926   3.093   2.574   9.793 -2.0019 -0.7863  0.6903
   47CHL1  H19C 5927   3.150   2.429   9.868 -0.9938  2.0510  1.7259
   47CHL1    C1 5928   2.855   2.432   9.820 -0.4130 -0.4462  0.0626
   47CHL1   H1A 5929   2.859   2.543   9.824 -0.2576 -0.4627  0.3277
   47CHL1   H1B 5930   2.764   2.395   9.768  0.1408 -0.0751 -1.1750
   47CHL1    C2 5931   2.853   2.370   9.959  0.4347 -0.3727  0.3259
   47CHL1   H2A 5932   2.749   2.380   9.997  1.3623 -0.8655  3.1097
   47CHL1   H2B 5933   2.915   2.422  10.036 -0.1539 -0.7538  1.0547
   47CHL1   C20 5934   3.005   2.675   9.080 -0.5789  0.4096  0.7646
   47CHL1   H20 5935   3.084   2.730   9.135  2.9215 -0.9730 -2.6412
   47CHL1   C21 5936   2.863   2.737   9.092 -0.1176 -0.4248 -0.0549
   47CHL1  H21A 5937   2.861   2.828   9.027  0.9751 -1.1750 -1.1756
   47CHL1  H21B 5938   2.842   2.762   9.198 -2.2337 -2.9494  0.1576
   47CHL1  H21C 5939   2.795   2.668   9.038  1.2922 -1.1473 -0.9441
   47CHL1   C22 5940   3.046   2.662   8.933  0.0564 -0.4483  0.9172
   47CHL1  H22A 5941   3.135   2.599   8.910 -0.5083 -0.8449 -0.2151
   47CHL1  H22B 5942   2.965   2.610   8.878  0.2053 -0.8957  1.1111
   47CHL1   C23 5943   3.074   2.803   8.881 -0.6189 -0.7318 -0.5788
   47CHL1  H23A 5944   2.981   2.863   8.874  0.4887  1.0931 -0.1108
   47CHL1  H23B 5945   3.156   2.854   8.937 -0.2625 -1.7475 -0.1540
   47CHL1   C24 5946   3.149   2.794   8.746  0.4655  0.4877 -0.1890
   47CHL1  H24A 5947   3.174   2.896   8.709  1.3265  0.4972  0.4059
   47CHL1  H24B 5948   3.240   2.732   8.758 -1.5580 -2.3609  0.9315
   47CHL1   C25 5949   3.077   2.726   8.634  0.0167 -0.1189  0.6441
   47CHL1   H25 5950   3.065   2.617   8.649  0.1308 -0.2684 -0.3417
   47CHL1   C26 5951   2.938   2.786   8.621 -0.1093  0.4460  0.6903
   47CHL1  H26A 5952   2.883   2.749   8.531 -1.9963  0.7390  1.7192
   47CHL1  H26B 5953   2.939   2.896   8.611  1.7682  0.4299  0.4816
   47CHL1  H26C 5954   2.875   2.761   8.709 -0.9592 -1.8897 -0.5318
   47CHL1   C27 5955   3.159   2.753   8.508  0.0666 -0.6855  0.1889
   47CHL1  H27A 5956   3.116   2.689   8.428 -2.7605 -0.0356  1.1137
   47CHL1  H27B 5957   3.156   2.862   8.488 -0.0137 -0.6241  0.5240
   47CHL1  H27C 5958   3.265   2.723   8.521 -0.2945 -0.5736  4.2348
   48CHL1    C3 5959   3.947   4.089  10.055  0.1645 -0.3125 -0.1262
   48CHL1    H3 5960   4.021   4.014  10.020  0.3130  0.8690 -2.4882
   48CHL1    O3 5961   3.951   4.090  10.192 -0.7565  0.3551  0.1875
   48CHL1   H3' 5962   4.026   4.145  10.215 -0.6031  0.1950  0.0793
   48CHL1    C4 5963   3.983   4.231   9.996 -0.5156 -0.1354 -0.3591
   48CHL1   H4A 5964   3.916   4.291  10.061  0.4480 -0.2374  0.7366
   48CHL1   H4B 5965   4.084   4.269  10.023 -0.9270 -0.6723  2.0673
   48CHL1    C5 5966   3.956   4.250   9.847  0.0010 -0.1702 -0.2587
   48CHL1    C6 5967   4.044   4.299   9.762 -0.1271 -0.1673 -0.1621
   48CHL1    H6 5968   4.137   4.336   9.808  0.6767 -0.9165 -1.1687
   48CHL1    C7 5969   4.034   4.323   9.617 -0.0982  0.0764  0.1611
   48CHL1   H7A 5970   4.071   4.425   9.591  1.9197 -0.7529 -0.3342
   48CHL1   H7B 5971   4.100   4.250   9.565 -0.0239  0.2755 -0.0231
   48CHL1    C8 5972   3.891   4.296   9.566 -0.8603  0.2974  0.2256
   48CHL1    H8 5973   3.818   4.377   9.590 -0.0889  0.3389  2.4979
   48CHL1   C14 5974   3.900   4.248   9.421 -0.5804 -0.2724 -0.7202
   48CHL1   H14 5975   3.951   4.150   9.419  0.6297  0.3347  0.0907
   48CHL1   C15 5976   3.989   4.333   9.328 -0.5055 -0.0535 -0.5298
   48CHL1  H15A 5977   3.963   4.440   9.343  2.0417  0.7391 -1.5714
   48CHL1  H15B 5978   4.098   4.317   9.339 -0.6982 -0.3848  1.0057
   48CHL1   C16 5979   3.944   4.286   9.189  0.1963 -0.6822 -0.1646
   48CHL1  H16A 5980   3.905   4.373   9.131 -3.8744 -1.5971  1.0380
   48CHL1  H16B 5981   4.017   4.226   9.130  0.7053 -0.0874 -0.1469
   48CHL1   C17 5982   3.820   4.187   9.217 -0.0865  0.3128 -0.1959
   48CHL1   H17 5983   3.863   4.087   9.235 -1.1826  0.1636  1.6676
   48CHL1   C13 5984   3.769   4.230   9.355 -0.8278  0.5093 -1.1478
   48CHL1   C18 5985   3.694   4.363   9.352 -0.5768  0.3845 -0.1604
   48CHL1  H18A 5986   3.742   4.448   9.299 -0.8565  0.2006 -0.7157
   48CHL1  H18B 5987   3.596   4.348   9.302 -1.4859 -1.4482  2.0540
   48CHL1  H18C 5988   3.680   4.402   9.455 -0.9474 -2.0872  0.7601
   48CHL1   C12 5989   3.686   4.127   9.428 -0.5843  0.2470 -1.1485
   48CHL1  H12A 5990   3.583   4.120   9.385 -1.1022  2.1605 -0.2866
   48CHL1  H12B 5991   3.734   4.027   9.419  0.5770  0.3840  2.8356
   48CHL1   C11 5992   3.681   4.162   9.578 -0.1140 -0.1163 -0.1608
   48CHL1  H11A 5993   3.611   4.247   9.591 -0.5181 -0.5473  0.5554
   48CHL1  H11B 5994   3.646   4.076   9.640 -1.9106  0.3777 -0.4530
   48CHL1    C9 5995   3.819   4.184   9.646 -0.6937 -0.5385  0.6490
   48CHL1    H9 5996   3.874   4.090   9.626  0.6888  0.9533 -2.9807
   48CHL1   C10 5997   3.822   4.199   9.803 -0.5424 -0.3197  0.2126
   48CHL1   C19 5998   3.716   4.298   9.841 -0.1639 -0.1886  0.3095
   48CHL1  H19A 5999   3.621   4.242   9.824  0.7527 -1.4275 -0.8276
   48CHL1  H19B 6000   3.710   4.315   9.951 -2.8294 -0.6724  0.2708
   48CHL1  H19C 6001   3.727   4.396   9.789  1.4392 -0.1470  0.7054
   48CHL1    C1 6002   3.787   4.055   9.862  0.3493  0.6180  0.0880
   48CHL1   H1A 6003   3.682   4.024   9.846  1.4070 -2.6741 -0.7641
   48CHL1   H1B 6004   3.854   3.973   9.829  0.8042  0.6399  0.9521
   48CHL1    C2 6005   3.803   4.049  10.010 -0.2723  0.2610 -0.6174
   48CHL1   H2A 6006   3.767   3.957  10.060 -1.0436  1.4847  1.1001
   48CHL1   H2B 6007   3.748   4.131  10.059  2.3875  1.5983  0.2614
   48CHL1   C20 6008   3.734   4.183   9.093  0.0498 -0.1377 -0.0808
   48CHL1   H20 6009   3.705   4.287   9.065 -1.9831 -0.9138 -0.9479
   48CHL1   C21 6010   3.607   4.093   9.122 -0.8200 -1.0824  0.4072
   48CHL1  H21A 6011   3.552   4.072   9.027 -4.0332 -1.0892  2.2055
   48CHL1  H21B 6012   3.527   4.134   9.186 -1.8827 -0.9012 -1.0105
   48CHL1  H21C 6013   3.648   3.996   9.158  1.6475  0.0401  0.7181
   48CHL1   C22 6014   3.804   4.128   8.966  0.6259 -0.5045 -0.5102
   48CHL1  H22A 6015   3.890   4.064   8.992 -0.0134 -0.5398  1.6303
   48CHL1  H22B 6016   3.737   4.054   8.917  1.3554 -0.0973 -2.1510
   48CHL1   C23 6017   3.849   4.234   8.865  0.0215  0.3907  0.3239
   48CHL1  H23A 6018   3.756   4.273   8.819  0.2493  0.8973  0.2984
   48CHL1  H23B 6019   3.897   4.319   8.916  0.0046  0.4658  0.2158
   48CHL1   C24 6020   3.952   4.177   8.764  0.1181  0.1810  0.4494
   48CHL1  H24A 6021   4.030   4.148   8.838  1.0269  0.6321 -0.3238
   48CHL1  H24B 6022   3.918   4.083   8.716 -0.4522  0.9279 -0.6210
   48CHL1   C25 6023   3.991   4.278   8.664 -0.5258  0.6039 -0.0930
   48CHL1   H25 6024   4.022   4.373   8.713 -0.7926  1.5115 -1.6623
   48CHL1   C26 6025   4.126   4.249   8.592 -0.2195  0.0841 -0.3600
   48CHL1  H26A 6026   4.199   4.235   8.674 -2.1769 -0.5348  1.2957
   48CHL1  H26B 6027   4.121   4.158   8.529 -0.8934  0.3593 -0.7127
   48CHL1  H26C 6028   4.152   4.343   8.538 -0.0222 -0.2494 -0.8458
   48CHL1   C27 6029   3.877   4.299   8.557 -0.3477 -0.2389 -0.2426
   48CHL1  H27A 6030   3.785   4.331   8.609 -0.4536 -0.5232 -0.2565
   48CHL1  H27B 6031   3.909   4.374   8.481  2.5868 -0.2387  0.9316
   48CHL1  H27C 6032   3.864   4.202   8.506 -2.4169  0.9329 -2.0219
   49CHL1    C3 6033   2.152   5.719  10.250 -0.6961  0.0085 -0.2905
   49CHL1    H3 6034   2.072   5.775  10.198  0.4169  3.5184  1.5803
   49CHL1    O3 6035   2.147   5.758  10.384 -0.0368 -0.4080 -0.1622
   49CHL1   H3' 6036   2.068   5.716  10.419  0.6919 -1.5946  0.0938
   49CHL1    C4 6037   2.137   5.573  10.245 -0.1223 -0.5755  0.2582
   49CHL1   H4A 6038   2.222   5.521  10.293 -1.8867 -2.9865  0.8229
   49CHL1   H4B 6039   2.043   5.540  10.294 -1.4547 -1.0943 -2.5595
   49CHL1    C5 6040   2.131   5.537  10.097 -0.5785  0.3631 -0.0633
   49CHL1    C6 6041   2.021   5.482  10.039 -0.5269 -0.3194  0.0848
   49CHL1    H6 6042   1.940   5.457  10.109 -0.0175  4.1868  2.4680
   49CHL1    C7 6043   2.000   5.446   9.890  0.4082  0.1247  0.3930
   49CHL1   H7A 6044   1.954   5.352   9.852  0.4238 -0.3600  1.5510
   49CHL1   H7B 6045   1.943   5.527   9.839 -0.5178  0.0540  1.2887
   49CHL1    C8 6046   2.139   5.441   9.817 -0.3819  0.8733  0.2793
   49CHL1    H8 6047   2.193   5.346   9.837  0.5373  1.3844  0.2573
   49CHL1   C14 6048   2.117   5.458   9.671  0.3381 -0.1414 -0.3284
   49CHL1   H14 6049   2.086   5.562   9.647  1.9043 -0.1262 -2.4195
   49CHL1   C15 6050   2.020   5.360   9.608  0.4847 -0.4164 -0.3294
   49CHL1  H15A 6051   2.042   5.257   9.644  0.7963 -0.0413  0.5633
   49CHL1  H15B 6052   1.914   5.387   9.630  0.0561 -2.0113 -0.3965
   49CHL1   C16 6053   2.051   5.375   9.462  0.4487 -0.0860  0.0383
   49CHL1  H16A 6054   2.071   5.273   9.423 -1.6365 -0.5857  0.1807
   49CHL1  H16B 6055   1.963   5.423   9.414  0.9533  0.5322 -0.2649
   49CHL1   C17 6056   2.182   5.457   9.442 -0.9289 -0.7073 -0.2095
   49CHL1   H17 6057   2.159   5.565   9.427  4.1752  1.0171  3.1627
   49CHL1   C13 6058   2.248   5.463   9.581  0.0090  0.2787 -0.1501
   49CHL1   C18 6059   2.324   5.330   9.604  0.1731 -0.5795 -0.4065
   49CHL1  H18A 6060   2.269   5.240   9.568 -0.4304 -0.4974  0.2823
   49CHL1  H18B 6061   2.409   5.321   9.533  0.0797 -0.4375 -0.5339
   49CHL1  H18C 6062   2.365   5.305   9.705 -0.5350 -2.2898 -0.5374
   49CHL1   C12 6063   2.338   5.578   9.623 -0.0834 -0.2229 -0.4366
   49CHL1  H12A 6064   2.436   5.577   9.571  0.9790  2.2699  1.3982
   49CHL1  H12B 6065   2.290   5.674   9.592 -0.2880 -0.8639 -2.1362
   49CHL1   C11 6066   2.355   5.580   9.776 -0.2008 -0.0315  0.3797
   49CHL1  H11A 6067   2.429   5.500   9.796 -0.5462 -0.6924 -0.9625
   49CHL1  H11B 6068   2.410   5.674   9.800  0.6208  0.2788 -2.4680
   49CHL1    C9 6069   2.227   5.559   9.861  0.1843  0.0973  0.2442
   49CHL1    H9 6070   2.163   5.646   9.836  0.4214 -0.5632 -2.7435
   49CHL1   C10 6071   2.252   5.574  10.015 -0.0922  0.0543  0.6544
   49CHL1   C19 6072   2.377   5.485  10.056 -0.1472  0.5583 -0.3207
   49CHL1  H19A 6073   2.468   5.533  10.014 -0.9350  0.1175 -2.6226
   49CHL1  H19B 6074   2.397   5.483  10.165  0.1611  0.3159 -0.3787
   49CHL1  H19C 6075   2.371   5.380  10.021  1.3140  0.2997  0.1714
   49CHL1    C1 6076   2.281   5.726  10.035 -0.2518 -0.2900 -0.1868
   49CHL1   H1A 6077   2.382   5.741   9.990 -0.4341  2.7106  0.3357
   49CHL1   H1B 6078   2.202   5.791   9.992 -0.3502  0.1335  0.6293
   49CHL1    C2 6079   2.289   5.759  10.186  0.4675  0.2994 -0.1361
   49CHL1   H2A 6080   2.307   5.865  10.212 -0.6597  0.5570 -0.3642
   49CHL1   H2B 6081   2.377   5.708  10.230  0.4332  1.5330  1.4293
   49CHL1   C20 6082   2.271   5.414   9.320 -0.0800  0.2760  0.0262
   49CHL1   H20 6083   2.312   5.311   9.319  0.3261  0.4451 -0.8870
   49CHL1   C21 6084   2.391   5.518   9.308  0.2617  0.6299  0.4073
   49CHL1  H21A 6085   2.469   5.504   9.385  0.6249 -1.2269 -0.2597
   49CHL1  H21B 6086   2.371   5.627   9.300  0.8394  0.6071 -1.5828
   49CHL1  H21C 6087   2.445   5.493   9.214  1.5103 -0.9371  1.5210
   49CHL1   C22 6088   2.183   5.422   9.191 -0.3199  0.1550 -0.4042
   49CHL1  H22A 6089   2.096   5.355   9.209  1.0849 -1.3810  0.9032
   49CHL1  H22B 6090   2.152   5.528   9.181 -0.7853  0.0577 -0.0557
   49CHL1   C23 6091   2.259   5.377   9.069 -0.0690 -0.1637  0.3203
   49CHL1  H23A 6092   2.340   5.449   9.046  2.0828 -2.0363  1.8715
   49CHL1  H23B 6093   2.300   5.281   9.107  0.7146  0.2406  0.4993
   49CHL1   C24 6094   2.185   5.348   8.940 -0.2462  0.1562  0.3082
   49CHL1  H24A 6095   2.093   5.285   8.943  0.8204 -1.4075  0.5948
   49CHL1  H24B 6096   2.145   5.443   8.900  0.1131  0.1041 -0.1742
   49CHL1   C25 6097   2.272   5.289   8.829 -0.3935  0.9105 -0.9571
   49CHL1   H25 6098   2.194   5.276   8.752 -0.8559 -0.8041 -0.2202
   49CHL1   C26 6099   2.390   5.369   8.790  0.1086 -0.0561  0.5149
   49CHL1  H26A 6100   2.433   5.314   8.704  0.2249  0.1722  0.4279
   49CHL1  H26B 6101   2.359   5.472   8.765  3.8477  0.9213 -0.3427
   49CHL1  H26C 6102   2.470   5.368   8.866 -0.2689  2.0241  0.9578
   49CHL1   C27 6103   2.317   5.140   8.853  0.0645  0.3033  0.8143
   49CHL1  H27A 6104   2.225   5.078   8.851 -0.1768  0.6832 -1.1579
   49CHL1  H27B 6105   2.382   5.110   8.767 -1.7234  2.2180 -1.2754
   49CHL1  H27C 6106   2.380   5.121   8.943  0.1858 -0.9498  0.4823
   50CHL1    C3 6107   5.599   1.008  10.024  0.0994 -0.0728 -0.8848
   50CHL1    H3 6108   5.493   1.020   9.992  0.2099  1.6351 -0.6162
   50CHL1    O3 6109   5.604   0.967  10.157  0.1701 -0.8206 -0.5023
   50CHL1   H3' 6110   5.543   1.023  10.206  1.1055  0.4779 -0.7990
   50CHL1    C4 6111   5.656   0.897   9.938 -0.6714 -0.2562  1.2038
   50CHL1   H4A 6112   5.759   0.874   9.973 -1.1084 -1.1565  1.9119
   50CHL1   H4B 6113   5.602   0.804   9.963 -0.0396 -0.3972  2.0999
   50CHL1    C5 6114   5.660   0.936   9.789 -0.1705  0.2208  0.5492
   50CHL1    C6 6115   5.592   0.863   9.701  0.1862  0.3567 -0.4723
   50CHL1    H6 6116   5.539   0.774   9.737  0.2416 -0.5127 -2.4679
   50CHL1    C7 6117   5.590   0.895   9.556  0.3863 -0.2433 -0.0631
   50CHL1   H7A 6118   5.602   0.806   9.490  2.9476  1.4967 -2.0575
   50CHL1   H7B 6119   5.486   0.930   9.541  0.9397  1.3596 -0.2532
   50CHL1    C8 6120   5.699   0.999   9.511  0.2118 -0.5604 -0.4627
   50CHL1    H8 6121   5.797   0.947   9.508  0.3532 -0.2230 -1.8788
   50CHL1   C14 6122   5.669   1.047   9.370 -0.1263  0.3571  0.0791
   50CHL1   H14 6123   5.580   1.107   9.397 -0.4329  0.2280 -0.6301
   50CHL1   C15 6124   5.641   0.941   9.264 -0.2964  0.5945 -1.4941
   50CHL1  H15A 6125   5.713   0.858   9.278 -1.5443 -0.3146 -0.3892
   50CHL1  H15B 6126   5.541   0.895   9.277  1.3964 -2.3477  1.6675
   50CHL1   C16 6127   5.664   1.023   9.136  0.1865 -0.4173 -0.3415
   50CHL1  H16A 6128   5.754   0.988   9.081  0.3320 -1.0230  0.2631
   50CHL1  H16B 6129   5.574   1.029   9.072  0.4962 -1.9885 -0.9567
   50CHL1   C17 6130   5.704   1.171   9.182 -0.8383 -0.1008  0.4996
   50CHL1   H17 6131   5.611   1.226   9.207 -0.0313  1.0921  0.9444
   50CHL1   C13 6132   5.769   1.151   9.318 -0.1794  0.5603 -0.1521
   50CHL1   C18 6133   5.916   1.095   9.296 -0.0967 -0.6489 -0.4614
   50CHL1  H18A 6134   5.911   1.005   9.231  2.6438 -0.3820 -1.1069
   50CHL1  H18B 6135   5.974   1.175   9.245  0.5603 -0.2068  0.9852
   50CHL1  H18C 6136   5.967   1.068   9.391 -0.2019 -3.3928 -1.1365
   50CHL1   C12 6137   5.787   1.268   9.419  0.4242  0.0090  0.0562
   50CHL1  H12A 6138   5.863   1.340   9.383 -1.2311  1.9781  0.4620
   50CHL1  H12B 6139   5.691   1.323   9.419 -0.2492 -1.1318  0.6975
   50CHL1   C11 6140   5.812   1.225   9.562  0.6034  0.1957 -0.2771
   50CHL1  H11A 6141   5.917   1.189   9.558 -0.0670 -2.3243  3.0670
   50CHL1  H11B 6142   5.814   1.310   9.633 -0.3696  1.3481 -1.5924
   50CHL1    C9 6143   5.707   1.115   9.609  0.3808 -0.3632 -0.1271
   50CHL1    H9 6144   5.610   1.170   9.607 -0.2195 -1.1924  3.2960
   50CHL1   C10 6145   5.737   1.077   9.757 -0.4586  1.5857 -0.0902
   50CHL1   C19 6146   5.898   1.057   9.772  0.3693 -0.1109  0.3540
   50CHL1  H19A 6147   5.929   0.980   9.697  1.8446 -3.0613  3.8755
   50CHL1  H19B 6148   5.949   1.150   9.740 -0.7769 -0.4656 -2.7661
   50CHL1  H19C 6149   5.926   1.026   9.875 -1.4348 -2.8310  0.0975
   50CHL1    C1 6150   5.697   1.184   9.860 -0.2023  0.2761 -0.2594
   50CHL1   H1A 6151   5.769   1.269   9.867  1.2236 -0.8156 -1.2597
   50CHL1   H1B 6152   5.601   1.228   9.825 -1.1536 -2.1324 -0.7263
   50CHL1    C2 6153   5.677   1.139  10.008  0.5544 -0.0184 -0.1672
   50CHL1   H2A 6154   5.628   1.218  10.068 -0.3841  0.6756 -1.8101
   50CHL1   H2B 6155   5.779   1.121  10.049  0.9871 -0.3154 -1.3477
   50CHL1   C20 6156   5.768   1.250   9.067 -0.0809 -0.0880  0.4288
   50CHL1   H20 6157   5.856   1.192   9.034 -0.6038 -0.4947 -0.2536
   50CHL1   C21 6158   5.789   1.395   9.105 -0.3408 -0.6641 -0.1578
   50CHL1  H21A 6159   5.693   1.449   9.120  0.4425  0.7997 -0.2218
   50CHL1  H21B 6160   5.842   1.449   9.023  0.2973 -1.0310  0.0078
   50CHL1  H21C 6161   5.849   1.417   9.196 -2.4478  2.8547  0.4722
   50CHL1   C22 6162   5.670   1.252   8.945 -0.6268  0.1847  0.2407
   50CHL1  H22A 6163   5.649   1.149   8.909 -0.1028 -0.0368  0.5642
   50CHL1  H22B 6164   5.578   1.301   8.982 -0.3535 -0.7625  2.2435
   50CHL1   C23 6165   5.728   1.326   8.814  0.3744 -0.0334 -0.0085
   50CHL1  H23A 6166   5.753   1.434   8.823 -0.6817  0.2505 -0.3447
   50CHL1  H23B 6167   5.829   1.279   8.811  0.6915  0.6905 -1.0212
   50CHL1   C24 6168   5.648   1.312   8.680  0.2262 -0.7771  0.0354
   50CHL1  H24A 6169   5.546   1.355   8.693 -0.4091 -2.7802  1.8150
   50CHL1  H24B 6170   5.710   1.366   8.605  1.6287 -2.0295  0.2699
   50CHL1   C25 6171   5.623   1.172   8.622 -0.2996  0.3491 -0.7629
   50CHL1   H25 6172   5.578   1.098   8.692  1.9348 -0.1247  0.2476
   50CHL1   C26 6173   5.526   1.177   8.499  0.1660 -0.5945  0.2346
   50CHL1  H26A 6174   5.430   1.231   8.513  1.2088  1.0632  1.1673
   50CHL1  H26B 6175   5.582   1.226   8.416  0.1313  0.7060  0.9631
   50CHL1  H26C 6176   5.521   1.073   8.461  0.0095 -0.5252  0.0633
   50CHL1   C27 6177   5.756   1.101   8.585 -0.0850 -0.1857  0.3877
   50CHL1  H27A 6178   5.828   1.093   8.669  0.6437 -1.7224 -0.3591
   50CHL1  H27B 6179   5.740   0.997   8.550  1.5690  0.6903 -3.1729
   50CHL1  H27C 6180   5.809   1.155   8.504 -0.1679 -0.6393  0.0291
   51CHL1    C3 6181   6.541   3.038  10.272  0.1413 -0.0341 -0.1811
   51CHL1    H3 6182   6.567   2.931  10.258  0.7165 -0.2611  2.3021
   51CHL1    O3 6183   6.516   3.063  10.410 -0.4638  0.2890 -0.8991
   51CHL1   H3' 6184   6.516   3.158  10.418  1.3785  0.2308 -0.1142
   51CHL1    C4 6185   6.657   3.122  10.221 -0.3834 -0.0772  0.4863
   51CHL1   H4A 6186   6.635   3.228  10.245  0.2656  0.0946  0.3243
   51CHL1   H4B 6187   6.746   3.090  10.279 -0.9380 -3.3118 -0.3334
   51CHL1    C5 6188   6.676   3.088  10.077  0.2898 -0.3120  0.5944
   51CHL1    C6 6189   6.789   3.040  10.033 -0.5620 -0.7563 -0.0551
   51CHL1    H6 6190   6.876   3.038  10.101 -1.0356  0.1039  0.5841
   51CHL1    C7 6191   6.833   3.008   9.892  0.2568  0.5148  1.0165
   51CHL1   H7A 6192   6.927   3.064   9.874  0.8013 -0.6258  0.2756
   51CHL1   H7B 6193   6.853   2.904   9.860 -0.6511  0.0736  1.8532
   51CHL1    C8 6194   6.726   3.071   9.791 -0.1083 -0.2034  0.1740
   51CHL1    H8 6195   6.748   3.179   9.780 -0.2302 -0.2119 -0.1612
   51CHL1   C14 6196   6.729   3.018   9.647  0.0110 -0.4944 -0.2076
   51CHL1   H14 6197   6.699   2.911   9.654 -0.4991 -0.1684  3.0128
   51CHL1   C15 6198   6.871   3.007   9.584  0.1855  0.1290  0.5719
   51CHL1  H15A 6199   6.915   3.106   9.561  1.8558 -0.5789  0.6325
   51CHL1  H15B 6200   6.949   2.955   9.644  1.1164  1.0632  0.1807
   51CHL1   C16 6201   6.827   2.963   9.443 -0.1170  0.1597 -0.3628
   51CHL1  H16A 6202   6.878   3.028   9.368 -0.7693 -0.8931 -1.7465
   51CHL1  H16B 6203   6.854   2.858   9.424 -1.0925 -0.1707  0.0307
   51CHL1   C17 6204   6.675   2.979   9.425 -0.0155  0.7406 -0.0448
   51CHL1   H17 6205   6.637   2.876   9.440  1.7447  0.2857  1.4761
   51CHL1   C13 6206   6.631   3.068   9.538 -0.3755  0.0848  0.0812
   51CHL1   C18 6207   6.641   3.222   9.505 -0.0414  0.1165 -0.2904
   51CHL1  H18A 6208   6.742   3.245   9.466 -0.8515  1.8504 -1.4662
   51CHL1  H18B 6209   6.554   3.252   9.442 -2.6998 -3.4468  1.4873
   51CHL1  H18C 6210   6.634   3.282   9.599  0.0448  1.3546 -1.0590
   51CHL1   C12 6211   6.490   3.044   9.597 -0.3303  0.4238  0.1151
   51CHL1  H12A 6212   6.406   3.084   9.536 -0.3510 -1.5449 -1.2216
   51CHL1  H12B 6213   6.471   2.935   9.609  0.0502  0.5463  1.8532
   51CHL1   C11 6214   6.478   3.106   9.734 -0.1644  0.1113  0.2684
   51CHL1  H11A 6215   6.467   3.217   9.730 -0.1713  0.0617 -1.5122
   51CHL1  H11B 6216   6.382   3.071   9.778  0.0683 -0.2586  0.4851
   51CHL1    C9 6217   6.574   3.055   9.846  0.5702  0.3236  0.2516
   51CHL1    H9 6218   6.547   2.948   9.850  0.7945  0.3477  3.8862
   51CHL1   C10 6219   6.554   3.118   9.983  0.4950 -0.4277 -0.0948
   51CHL1   C19 6220   6.530   3.271   9.973 -0.5827  0.1827 -0.1245
   51CHL1  H19A 6221   6.503   3.306  10.075  0.3436 -0.6909  0.4275
   51CHL1  H19B 6222   6.615   3.331   9.934 -1.5647  1.3272 -0.5564
   51CHL1  H19C 6223   6.435   3.300   9.922 -1.0497 -0.8086  0.1832
   51CHL1    C1 6224   6.430   3.043  10.045  0.1918  0.1604 -0.6776
   51CHL1   H1A 6225   6.340   3.078   9.990 -0.7594  1.4454  1.6022
   51CHL1   H1B 6226   6.436   2.935  10.021  4.0791  0.0939  0.3903
   51CHL1    C2 6227   6.407   3.073  10.197 -0.2287  0.2599  0.2582
   51CHL1   H2A 6228   6.323   3.007  10.227  0.8176 -1.3207 -0.2341
   51CHL1   H2B 6229   6.385   3.181  10.209  1.7927  0.4779  2.3104
   51CHL1   C20 6230   6.648   3.020   9.288  0.2118 -0.1192  0.0833
   51CHL1   H20 6231   6.674   3.127   9.275  0.0448 -0.0065  0.6667
   51CHL1   C21 6232   6.492   3.016   9.271 -0.1767  0.0500 -0.1710
   51CHL1  H21A 6233   6.458   2.913   9.293  3.5535 -1.2288  0.0432
   51CHL1  H21B 6234   6.479   3.044   9.164 -2.0395 -1.8878 -0.4752
   51CHL1  H21C 6235   6.436   3.092   9.329 -1.0485 -2.2785  2.1526
   51CHL1   C22 6236   6.729   2.945   9.172 -0.1810  0.3147 -0.2892
   51CHL1  H22A 6237   6.838   2.952   9.190 -0.0168 -1.8760 -0.2859
   51CHL1  H22B 6238   6.701   2.837   9.174  0.2395  0.1879 -1.0263
   51CHL1   C23 6239   6.705   2.998   9.031 -0.7343  0.0417  0.3205
   51CHL1  H23A 6240   6.603   2.972   8.995 -1.3340  1.8227  0.7070
   51CHL1  H23B 6241   6.718   3.108   9.033  1.3209 -0.1870  1.3864
   51CHL1   C24 6242   6.806   2.932   8.927 -0.1545 -0.1371  1.3289
   51CHL1  H24A 6243   6.909   2.957   8.959 -0.0520 -0.2800  1.1154
   51CHL1  H24B 6244   6.798   2.822   8.926 -0.6224 -0.1039  1.0318
   51CHL1   C25 6245   6.787   2.981   8.783  0.4102  0.4400  0.3628
   51CHL1   H25 6246   6.784   3.091   8.795  0.2279  0.2499  2.2431
   51CHL1   C26 6247   6.907   2.931   8.699 -0.8823  0.1688 -0.5160
   51CHL1  H26A 6248   6.908   2.820   8.699  1.2842  0.1092  3.6321
   51CHL1  H26B 6249   6.905   2.960   8.591 -2.2240  2.1021  0.0055
   51CHL1  H26C 6250   7.004   2.967   8.741 -0.1458 -1.0620 -1.1290
   51CHL1   C27 6251   6.656   2.957   8.707  0.5376  0.1743 -0.0899
   51CHL1  H27A 6252   6.581   3.029   8.746  0.4502  0.2792 -0.4523
   51CHL1  H27B 6253   6.660   2.982   8.599  0.3491 -1.0287 -0.3770
   51CHL1  H27C 6254   6.615   2.856   8.728 -1.7116  0.8035 -1.2379
   52CHL1    C3 6255   4.263   2.150   9.920  0.3359 -0.1061 -0.1270
   52CHL1    H3 6256   4.178   2.081   9.904  0.7662 -0.6948  0.1131
   52CHL1    O3 6257   4.258   2.207  10.049 -0.2486  0.1890  0.3127
   52CHL1   H3' 6258   4.345   2.202  10.088 -0.4995 -0.6449  0.7633
   52CHL1    C4 6259   4.395   2.071   9.909 -1.0385  0.3774  0.0885
   52CHL1   H4A 6260   4.494   2.120   9.924  0.4172 -2.8927  1.8763
   52CHL1   H4B 6261   4.390   1.992   9.987  1.1215 -0.5457 -0.6592
   52CHL1    C5 6262   4.398   2.006   9.769  0.1226  0.4232  0.2448
   52CHL1    C6 6263   4.401   1.868   9.752 -0.3640 -0.2425  0.5597
   52CHL1    H6 6264   4.409   1.807   9.843  0.1439 -0.1846  0.5544
   52CHL1    C7 6265   4.385   1.797   9.620 -0.6177 -0.6507 -0.1803
   52CHL1   H7A 6266   4.452   1.709   9.613 -0.6884 -0.9460  2.2082
   52CHL1   H7B 6267   4.284   1.758   9.598 -0.9069 -0.0275  0.0107
   52CHL1    C8 6268   4.437   1.903   9.512 -0.1827  0.0541  0.0859
   52CHL1    H8 6269   4.547   1.910   9.530  0.2724 -1.8170 -1.8302
   52CHL1   C14 6270   4.413   1.843   9.371  0.3728  0.9762  0.2874
   52CHL1   H14 6271   4.302   1.836   9.363  0.1312  2.2250  2.3724
   52CHL1   C15 6272   4.467   1.700   9.343 -0.2210 -0.0349 -0.4211
   52CHL1  H15A 6273   4.570   1.698   9.383 -0.0147  1.9608 -0.8334
   52CHL1  H15B 6274   4.396   1.624   9.384 -1.2357  1.8080  1.3257
   52CHL1   C16 6275   4.462   1.695   9.190 -0.0421  0.3202 -0.1762
   52CHL1  H16A 6276   4.553   1.652   9.142 -1.1652  0.0988 -2.1337
   52CHL1  H16B 6277   4.375   1.631   9.168 -1.4111  1.7118  1.0889
   52CHL1   C17 6278   4.430   1.840   9.131  0.3053  0.2441  0.9424
   52CHL1   H17 6279   4.321   1.841   9.107  0.9484 -0.2849 -2.2357
   52CHL1   C13 6280   4.453   1.932   9.254 -0.3154  0.8500  0.0693
   52CHL1   C18 6281   4.601   1.965   9.273 -0.8847  0.3358 -0.4155
   52CHL1  H18A 6282   4.635   2.035   9.192 -1.1129  1.3653  0.3702
   52CHL1  H18B 6283   4.641   2.004   9.369 -2.8717  0.0217  0.5511
   52CHL1  H18C 6284   4.655   1.868   9.273 -0.8936  0.3261 -1.3335
   52CHL1   C12 6285   4.362   2.060   9.263 -0.2302 -0.2810  0.1591
   52CHL1  H12A 6286   4.388   2.126   9.178 -1.0409  0.7851  0.7368
   52CHL1  H12B 6287   4.254   2.033   9.262  0.4256 -3.0758 -0.1850
   52CHL1   C11 6288   4.381   2.133   9.403  0.1485  0.1864 -0.4512
   52CHL1  H11A 6289   4.475   2.192   9.403  1.5163 -1.8679 -1.8783
   52CHL1  H11B 6290   4.309   2.216   9.417  2.2613  1.8731  0.6819
   52CHL1    C9 6291   4.365   2.038   9.520  1.1266 -0.0226  0.4601
   52CHL1    H9 6292   4.258   2.010   9.513  1.3232 -0.8536  0.7712
   52CHL1   C10 6293   4.381   2.111   9.657  0.2761 -0.7333  0.2782
   52CHL1   C19 6294   4.513   2.204   9.652  0.1699  0.8927 -0.7135
   52CHL1  H19A 6295   4.537   2.253   9.749 -0.9601  1.7267 -0.8357
   52CHL1  H19B 6296   4.600   2.150   9.609 -0.4083 -0.2772 -0.4120
   52CHL1  H19C 6297   4.494   2.293   9.588 -0.5046  0.5516 -0.9792
   52CHL1    C1 6298   4.264   2.204   9.674 -0.4223 -0.3633 -0.3004
   52CHL1   H1A 6299   4.268   2.290   9.604 -0.2959 -0.6984 -0.7045
   52CHL1   H1B 6300   4.172   2.149   9.646 -1.5033  1.3453 -0.2063
   52CHL1    C2 6301   4.251   2.263   9.815 -0.0859  0.2639 -0.6032
   52CHL1   H2A 6302   4.160   2.327   9.823  0.2558  0.5565  1.0749
   52CHL1   H2B 6303   4.340   2.329   9.821  1.0845 -1.2070 -1.4716
   52CHL1   C20 6304   4.504   1.872   9.000 -0.8171 -0.2075 -0.3387
   52CHL1   H20 6305   4.607   1.841   9.027 -1.8532 -2.1674  1.5468
   52CHL1   C21 6306   4.496   2.017   8.945  0.5003 -0.3243  0.4483
   52CHL1  H21A 6307   4.395   2.039   8.904  0.2487 -1.6850  0.3296
   52CHL1  H21B 6308   4.582   2.033   8.876 -0.6196  2.4210 -0.3667
   52CHL1  H21C 6309   4.514   2.092   9.025 -4.0576 -0.6623  1.9630
   52CHL1   C22 6310   4.456   1.785   8.882 -0.1638  0.1131 -0.6468
   52CHL1  H22A 6311   4.449   1.683   8.926  0.3651  1.8285  3.6409
   52CHL1  H22B 6312   4.354   1.824   8.864 -0.8749 -0.8906  1.0198
   52CHL1   C23 6313   4.547   1.767   8.760  0.7988 -0.1011  0.2941
   52CHL1  H23A 6314   4.541   1.864   8.707 -2.3751 -0.4596 -0.1375
   52CHL1  H23B 6315   4.649   1.736   8.790 -0.2816 -0.4094  3.8724
   52CHL1   C24 6316   4.500   1.654   8.668 -0.1329 -0.7461 -0.3694
   52CHL1  H24A 6317   4.516   1.555   8.716  1.8939 -0.7200 -0.9486
   52CHL1  H24B 6318   4.390   1.655   8.657 -0.3248 -1.4991  1.2482
   52CHL1   C25 6319   4.571   1.654   8.529  0.1303  0.5193  0.6734
   52CHL1   H25 6320   4.679   1.661   8.553  0.3861  0.4210 -0.4047
   52CHL1   C26 6321   4.564   1.519   8.461  0.1674  0.6669  0.2882
   52CHL1  H26A 6322   4.470   1.491   8.410  1.4833  1.8563 -2.9230
   52CHL1  H26B 6323   4.644   1.513   8.384 -1.6179 -1.5798 -1.4785
   52CHL1  H26C 6324   4.579   1.436   8.534 -0.2842  2.1136  2.0323
   52CHL1   C27 6325   4.530   1.779   8.454  0.1897 -0.3527  0.1900
   52CHL1  H27A 6326   4.534   1.878   8.505 -1.1928 -0.5204  0.6402
   52CHL1  H27B 6327   4.600   1.778   8.369 -1.1694 -0.7830 -0.9459
   52CHL1  H27C 6328   4.421   1.769   8.434  0.1726  0.7541 -0.2861
   53CHL1    C3 6329   4.629   1.768  10.357 -0.2864 -0.5789  0.0027
   53CHL1    H3 6330   4.532   1.785  10.306 -0.3455  1.1312  0.6258
   53CHL1    O3 6331   4.595   1.746  10.494 -0.1083  0.1078 -0.3819
   53CHL1   H3' 6332   4.629   1.658  10.510  1.6821  0.4877 -1.8999
   53CHL1    C4 6333   4.697   1.652  10.297  0.8030  0.5354  0.4614
   53CHL1   H4A 6334   4.792   1.630  10.350  2.5882  1.6290 -2.1772
   53CHL1   H4B 6335   4.641   1.556  10.303 -0.0709  1.0495  0.5890
   53CHL1    C5 6336   4.737   1.670  10.153  0.3864  0.3481  0.6267
   53CHL1    C6 6337   4.696   1.585  10.057  0.2144 -0.0428 -0.4895
   53CHL1    H6 6338   4.634   1.504  10.100  1.4857 -0.7536  0.0293
   53CHL1    C7 6339   4.710   1.603   9.906  0.0062 -0.4314  0.0963
   53CHL1   H7A 6340   4.737   1.505   9.861  0.8138 -0.6958  1.1571
   53CHL1   H7B 6341   4.614   1.636   9.860  0.7858  0.7882 -0.6937
   53CHL1    C8 6342   4.814   1.715   9.872 -0.0024 -0.8938  0.2982
   53CHL1    H8 6343   4.911   1.668   9.896  1.3417  0.4279 -2.3083
   53CHL1   C14 6344   4.806   1.756   9.731  0.0717  0.4834 -0.1450
   53CHL1   H14 6345   4.703   1.798   9.728  0.0154  0.3086 -0.8907
   53CHL1   C15 6346   4.815   1.646   9.620 -0.2969 -0.6501 -0.8503
   53CHL1  H15A 6347   4.892   1.573   9.653 -2.6961 -2.9536 -0.2211
   53CHL1  H15B 6348   4.723   1.593   9.589  0.1332 -2.8874  1.5559
   53CHL1   C16 6349   4.863   1.731   9.497 -0.2977 -0.0586 -0.5139
   53CHL1  H16A 6350   4.963   1.688   9.477 -0.0067  1.3997 -2.3334
   53CHL1  H16B 6351   4.798   1.724   9.407  1.0230 -0.4692 -1.4489
   53CHL1   C17 6352   4.895   1.877   9.543  0.2460 -0.6345 -0.4593
   53CHL1   H17 6353   4.801   1.937   9.541  0.4536 -0.2883  0.1016
   53CHL1   C13 6354   4.913   1.860   9.693 -0.6905 -0.3999  0.4832
   53CHL1   C18 6355   5.053   1.808   9.719 -0.3967 -0.2784 -0.1311
   53CHL1  H18A 6356   5.087   1.792   9.824 -0.8259 -2.0565 -0.2446
   53CHL1  H18B 6357   5.076   1.714   9.665 -1.8813 -0.5707 -0.2815
   53CHL1  H18C 6358   5.138   1.870   9.682  0.2804 -1.2919 -0.3078
   53CHL1   C12 6359   4.874   1.983   9.780  0.5411  0.0087  0.1293
   53CHL1  H12A 6360   4.949   2.062   9.759  1.6555 -0.6246  1.6426
   53CHL1  H12B 6361   4.778   2.031   9.753  0.3965  0.0752  0.7608
   53CHL1   C11 6362   4.885   1.949   9.933  0.2002 -0.4700  0.4055
   53CHL1  H11A 6363   4.994   1.953   9.953  0.4619 -3.0638 -0.3209
   53CHL1  H11B 6364   4.843   2.038   9.985 -0.9467 -1.2369  0.8070
   53CHL1    C9 6365   4.800   1.834   9.971  0.1483 -0.3299 -0.3374
   53CHL1    H9 6366   4.694   1.864   9.958  0.0191 -0.1708  1.0130
   53CHL1   C10 6367   4.806   1.806  10.122 -0.0074 -0.1406  0.1972
   53CHL1   C19 6368   4.957   1.783  10.154 -0.5197 -0.2876  0.1886
   53CHL1  H19A 6369   4.965   1.749  10.259  3.5821 -0.5337 -0.1231
   53CHL1  H19B 6370   5.005   1.712  10.084  0.0155  0.5987 -0.3576
   53CHL1  H19C 6371   5.021   1.874  10.150 -0.3388 -0.4333 -0.2891
   53CHL1    C1 6372   4.750   1.933  10.201  0.9269  0.7107 -0.1118
   53CHL1   H1A 6373   4.822   2.018  10.204  1.3725  0.3491 -0.5326
   53CHL1   H1B 6374   4.663   1.968  10.140  1.2449  0.5875 -0.6412
   53CHL1    C2 6375   4.716   1.896  10.350 -0.5600 -0.8841 -0.3563
   53CHL1   H2A 6376   4.661   1.983  10.391 -0.1675 -0.5612 -0.5046
   53CHL1   H2B 6377   4.813   1.865  10.395 -1.0120 -0.3573  0.9965
   53CHL1   C20 6378   5.009   1.936   9.452 -0.0150 -0.5630 -0.6685
   53CHL1   H20 6379   5.095   1.866   9.453  0.6652  0.2744  0.0858
   53CHL1   C21 6380   5.065   2.068   9.505 -0.3078  0.1787 -0.7709
   53CHL1  H21A 6381   4.982   2.139   9.529 -0.7759 -1.5070  2.8265
   53CHL1  H21B 6382   5.136   2.114   9.432  3.1400 -1.4809  1.4223
   53CHL1  H21C 6383   5.111   2.053   9.605 -0.3427 -3.2250 -1.2314
   53CHL1   C22 6384   4.959   1.946   9.303  0.1179  0.2758 -0.9837
   53CHL1  H22A 6385   4.878   1.870   9.288  1.2446 -1.2020  0.2572
   53CHL1  H22B 6386   4.899   2.039   9.293  2.7949  2.1781  0.2841
   53CHL1   C23 6387   5.064   1.918   9.189  0.6947  0.8381 -0.3818
   53CHL1  H23A 6388   5.125   2.011   9.186 -1.9309  2.7137  1.4395
   53CHL1  H23B 6389   5.138   1.844   9.225  0.6886  0.6953 -0.6625
   53CHL1   C24 6390   5.006   1.886   9.059  0.0051  0.7908  0.4160
   53CHL1  H24A 6391   4.926   1.811   9.076 -0.0769  0.5014 -1.1846
   53CHL1  H24B 6392   4.962   1.980   9.017 -1.0621  0.2617  0.3225
   53CHL1   C25 6393   5.102   1.822   8.965  0.6268  0.1983  0.4774
   53CHL1   H25 6394   5.130   1.723   9.007  3.5077  0.2257 -1.2348
   53CHL1   C26 6395   5.041   1.792   8.824  0.0681  0.0753  0.0709
   53CHL1  H26A 6396   4.938   1.750   8.832  1.3590 -2.8742  2.2713
   53CHL1  H26B 6397   5.052   1.883   8.761  1.4639 -0.3897 -0.3750
   53CHL1  H26C 6398   5.095   1.721   8.758 -1.4641 -0.0886 -1.0567
   53CHL1   C27 6399   5.230   1.904   8.945  0.8140 -0.5853 -0.2531
   53CHL1  H27A 6400   5.287   1.842   8.873 -1.6325 -1.9773 -1.0156
   53CHL1  H27B 6401   5.198   2.006   8.914  0.3231 -0.5527  0.3511
   53CHL1  H27C 6402   5.300   1.914   9.032  1.3630 -3.3229 -0.3430
   54CHL1    C3 6403   3.964   3.379  10.151  0.3756  0.1901 -0.2142
   54CHL1    H3 6404   4.000   3.291  10.093 -2.4160 -1.6548  0.7706
   54CHL1    O3 6405   3.953   3.335  10.285 -0.3506 -0.0307 -0.0162
   54CHL1   H3' 6406   3.945   3.421  10.328  1.3979 -0.3595  1.0092
   54CHL1    C4 6407   4.074   3.487  10.147 -0.1062 -0.0286  0.1638
   54CHL1   H4A 6408   4.036   3.566  10.216  1.1173  0.4408  0.3105
   54CHL1   H4B 6409   4.164   3.436  10.188 -0.8803  0.2114  2.2338
   54CHL1    C5 6410   4.101   3.536  10.009  0.3819  0.0318  0.7966
   54CHL1    C6 6411   4.225   3.523   9.958 -0.6685 -0.3577 -0.0057
   54CHL1    H6 6412   4.310   3.489  10.020 -0.8045 -1.5445 -0.4499
   54CHL1    C7 6413   4.268   3.540   9.813 -0.7009  0.7684 -0.0958
   54CHL1   H7A 6414   4.368   3.588   9.809 -1.0166  1.2402 -3.0271
   54CHL1   H7B 6415   4.287   3.443   9.763  0.0095  2.9226 -4.1598
   54CHL1    C8 6416   4.155   3.611   9.728  0.2214 -0.7106  0.2091
   54CHL1    H8 6417   4.153   3.719   9.757  1.2256 -0.4500 -0.6413
   54CHL1   C14 6418   4.176   3.598   9.577 -0.2113  0.4645 -0.1586
   54CHL1   H14 6419   4.160   3.489   9.564  1.3574  0.2892 -0.7620
   54CHL1   C15 6420   4.307   3.635   9.516 -0.0885  0.3936  0.4808
   54CHL1  H15A 6421   4.338   3.736   9.552  1.9936 -0.3570  0.8893
   54CHL1  H15B 6422   4.394   3.566   9.519  0.8910  1.5264 -0.9547
   54CHL1   C16 6423   4.279   3.649   9.363 -0.8118  0.7976 -0.0722
   54CHL1  H16A 6424   4.300   3.753   9.331 -0.7525  0.9913  0.5800
   54CHL1  H16B 6425   4.342   3.583   9.299  1.7954  3.2134 -0.1073
   54CHL1   C17 6426   4.128   3.619   9.350  0.1153  0.1337 -0.0857
   54CHL1   H17 6427   4.124   3.509   9.337  0.1579  0.2900 -1.6275
   54CHL1   C13 6428   4.063   3.654   9.483 -0.0957 -0.4273 -0.3704
   54CHL1   C18 6429   4.053   3.807   9.512 -0.4806 -0.2466 -0.2036
   54CHL1  H18A 6430   4.155   3.842   9.484  0.3353 -2.7299 -0.4169
   54CHL1  H18B 6431   3.988   3.863   9.440 -2.2786 -0.9399  0.8439
   54CHL1  H18C 6432   4.046   3.834   9.619  0.5101  1.5336 -0.5542
   54CHL1   C12 6433   3.937   3.573   9.520  0.1558  0.0848  0.2350
   54CHL1  H12A 6434   3.846   3.607   9.464  1.3142 -0.1942 -1.8677
   54CHL1  H12B 6435   3.939   3.466   9.490 -2.4308  0.4895 -1.5786
   54CHL1   C11 6436   3.908   3.592   9.666 -0.0540  0.5170  0.5633
   54CHL1  H11A 6437   3.861   3.692   9.680 -0.0341  0.4638  1.0224
   54CHL1  H11B 6438   3.823   3.520   9.675  0.7345 -0.2560  1.9274
   54CHL1    C9 6439   4.019   3.550   9.759  0.1096  0.0457  0.0136
   54CHL1    H9 6440   4.046   3.444   9.741 -0.2959  0.0678 -0.7052
   54CHL1   C10 6441   3.983   3.561   9.914  0.0520 -0.0003 -0.1104
   54CHL1   C19 6442   3.942   3.710   9.944  0.5805 -0.0930  0.5599
   54CHL1  H19A 6443   3.862   3.741   9.873 -1.3335 -4.0965  0.8239
   54CHL1  H19B 6444   3.900   3.722  10.046  0.5233 -1.3001  0.6873
   54CHL1  H19C 6445   4.021   3.786   9.930 -1.1772  1.2864 -2.3167
   54CHL1    C1 6446   3.862   3.459   9.943  0.1173  0.0134  0.5007
   54CHL1   H1A 6447   3.769   3.498   9.896 -0.0979 -4.4271 -2.9991
   54CHL1   H1B 6448   3.904   3.365   9.903  0.8325 -0.0143  1.3075
   54CHL1    C2 6449   3.835   3.433  10.090  1.0691  0.0267  0.4002
   54CHL1   H2A 6450   3.750   3.364  10.110  0.4282  0.6637 -0.1050
   54CHL1   H2B 6451   3.808   3.526  10.144  1.8947 -0.5977  1.9273
   54CHL1   C20 6452   4.081   3.692   9.220  0.4730  0.5834  0.4678
   54CHL1   H20 6453   4.097   3.800   9.240  2.1437  1.3138 -4.1187
   54CHL1   C21 6454   3.932   3.657   9.197 -0.1301 -0.9078  0.0886
   54CHL1  H21A 6455   3.875   3.703   9.280  0.5208  2.0320 -1.0144
   54CHL1  H21B 6456   3.919   3.547   9.197 -1.0841 -0.7976 -0.2829
   54CHL1  H21C 6457   3.890   3.695   9.102 -0.9314  0.8469  1.1289
   54CHL1   C22 6458   4.161   3.658   9.090 -0.8804 -0.3156 -0.1700
   54CHL1  H22A 6459   4.271   3.648   9.106 -0.5262  1.1144 -1.6272
   54CHL1  H22B 6460   4.116   3.567   9.045 -0.7967 -1.0351  1.1903
   54CHL1   C23 6461   4.161   3.761   8.973 -0.0920  0.5656  0.3948
   54CHL1  H23A 6462   4.062   3.811   8.975 -0.4395 -0.0126 -1.8017
   54CHL1  H23B 6463   4.235   3.843   8.988  0.8494 -0.7218  3.1542
   54CHL1   C24 6464   4.201   3.690   8.842  0.2491 -0.1711 -0.0920
   54CHL1  H24A 6465   4.312   3.680   8.852  0.6844  1.0704 -3.1046
   54CHL1  H24B 6466   4.160   3.587   8.840  0.6053 -0.3062 -0.4627
   54CHL1   C25 6467   4.175   3.762   8.709  0.8369  0.3291  0.5314
   54CHL1   H25 6468   4.065   3.773   8.695  0.7987  4.1020  3.0812
   54CHL1   C26 6469   4.233   3.902   8.721  0.4666 -0.5945 -0.1045
   54CHL1  H26A 6470   4.199   3.959   8.810  1.9967 -1.1661  0.8661
   54CHL1  H26B 6471   4.344   3.891   8.729  0.2747 -1.0451  2.2137
   54CHL1  H26C 6472   4.214   3.962   8.629  1.8705 -1.3452 -0.9088
   54CHL1   C27 6473   4.212   3.681   8.581  0.0490  0.3754 -0.8032
   54CHL1  H27A 6474   4.165   3.581   8.591 -1.4185  1.3348  2.4893
   54CHL1  H27B 6475   4.171   3.736   8.494 -0.8648  0.3842 -0.3672
   54CHL1  H27C 6476   4.323   3.668   8.581  0.0813  0.6102  1.0654
   55CHL1    C3 6477   5.965   0.713  10.181  0.1239  0.3120 -0.0446
   55CHL1    H3 6478   5.892   0.793  10.158  0.3386  0.2678 -0.8871
   55CHL1    O3 6479   6.019   0.738  10.317  0.1327  0.3363 -0.0738
   55CHL1   H3' 6480   5.949   0.702  10.372  0.7490  2.5218  2.2904
   55CHL1    C4 6481   5.907   0.566  10.170  0.2384  0.3437  1.2545
   55CHL1   H4A 6482   5.975   0.481  10.193  0.3677  0.2742  0.6285
   55CHL1   H4B 6483   5.819   0.563  10.237 -0.3157 -1.7757  0.4567
   55CHL1    C5 6484   5.855   0.543  10.028  0.3370  0.5063 -0.8925
   55CHL1    C6 6485   5.724   0.522   9.999 -0.6431 -0.6741 -0.2607
   55CHL1    H6 6486   5.649   0.513  10.079 -2.0340 -0.9035 -1.5693
   55CHL1    C7 6487   5.669   0.499   9.865  0.0525  0.2907  0.3968
   55CHL1   H7A 6488   5.593   0.418   9.861  0.8282 -0.4159 -0.3714
   55CHL1   H7B 6489   5.628   0.597   9.834  1.1607  0.1701 -1.4932
   55CHL1    C8 6490   5.789   0.462   9.772 -0.4081  0.0633  0.2176
   55CHL1    H8 6491   5.820   0.355   9.782  0.8316  0.4886  1.0807
   55CHL1   C14 6492   5.735   0.473   9.633  0.1134 -0.5442 -0.0206
   55CHL1   H14 6493   5.692   0.575   9.629  0.2979 -0.5311 -2.2834
   55CHL1   C15 6494   5.620   0.371   9.588  0.0700 -0.5232 -0.1925
   55CHL1  H15A 6495   5.660   0.271   9.612  1.4827 -0.3358 -1.6697
   55CHL1  H15B 6496   5.524   0.396   9.637  0.3039  2.4567 -1.1291
   55CHL1   C16 6497   5.607   0.391   9.437  0.0351  0.6233 -0.5386
   55CHL1  H16A 6498   5.602   0.288   9.394  4.0983 -0.3818  1.1024
   55CHL1  H16B 6499   5.523   0.455   9.403 -0.7292  0.5051  1.0670
   55CHL1   C17 6500   5.733   0.478   9.400  0.1952 -0.5025 -0.2448
   55CHL1   H17 6501   5.701   0.584   9.408  1.0655 -0.3708  1.6606
   55CHL1   C13 6502   5.837   0.470   9.515  0.9355 -0.6791  0.2359
   55CHL1   C18 6503   5.898   0.330   9.515 -0.0990  0.9081  0.6300
   55CHL1  H18A 6504   5.975   0.329   9.436 -1.1000 -0.4986 -0.3590
   55CHL1  H18B 6505   5.945   0.310   9.614  1.3347  1.1552  0.0032
   55CHL1  H18C 6506   5.822   0.251   9.495 -1.9851  2.4853  1.4387
   55CHL1   C12 6507   5.939   0.582   9.542 -0.2955 -0.2413  0.0920
   55CHL1  H12A 6508   6.004   0.597   9.453 -0.6048  0.1147 -0.0746
   55CHL1  H12B 6509   5.887   0.680   9.551 -0.5935 -0.5316  1.6333
   55CHL1   C11 6510   6.008   0.564   9.675  0.4224 -0.0729 -0.4771
   55CHL1  H11A 6511   6.063   0.468   9.663 -2.3288 -1.6744 -0.7873
   55CHL1  H11B 6512   6.082   0.646   9.682 -0.0174  0.3076 -0.2647
   55CHL1    C9 6513   5.903   0.568   9.788 -0.8251 -0.2349  0.0767
   55CHL1    H9 6514   5.859   0.670   9.783  2.1898  1.1603  0.9378
   55CHL1   C10 6515   5.965   0.568   9.921  0.2396 -0.2196 -0.0391
   55CHL1   C19 6516   6.065   0.453   9.930 -0.0825  0.1256  0.0552
   55CHL1  H19A 6517   6.012   0.356   9.940  0.2934  0.1639  3.0464
   55CHL1  H19B 6518   6.144   0.458   9.852 -1.0799  0.0840 -0.9603
   55CHL1  H19C 6519   6.110   0.452  10.032 -1.3424  0.0495  0.6218
   55CHL1    C1 6520   6.040   0.702   9.946  0.0851 -0.5203 -0.3701
   55CHL1   H1A 6521   6.130   0.692   9.882  0.1756  0.1779 -0.3538
   55CHL1   H1B 6522   5.987   0.793   9.911  1.0478  0.3307  0.3285
   55CHL1    C2 6523   6.083   0.731  10.086 -0.2257 -0.0433  0.0204
   55CHL1   H2A 6524   6.122   0.834  10.095 -1.3658  0.3563  0.4090
   55CHL1   H2B 6525   6.172   0.671  10.116  0.9336  1.6186 -0.0591
   55CHL1   C20 6526   5.774   0.462   9.250 -1.2271 -0.0033  0.1431
   55CHL1   H20 6527   5.803   0.357   9.232 -0.4197  0.6405 -2.5726
   55CHL1   C21 6528   5.891   0.557   9.226  0.5449  0.5781  0.5170
   55CHL1  H21A 6529   5.986   0.522   9.273  1.3417  0.3573 -1.2128
   55CHL1  H21B 6530   5.869   0.657   9.268 -4.0235  1.1421 -2.8139
   55CHL1  H21C 6531   5.902   0.568   9.116  0.3462 -1.6192  0.2410
   55CHL1   C22 6532   5.660   0.478   9.144  0.7888  0.3551  0.0857
   55CHL1  H22A 6533   5.712   0.466   9.046 -1.2100 -0.0968 -0.9479
   55CHL1  H22B 6534   5.587   0.396   9.158 -0.0189  0.8190 -1.2999
   55CHL1   C23 6535   5.580   0.615   9.135  0.1028  0.6337  0.0636
   55CHL1  H23A 6536   5.507   0.632   9.218 -0.2845 -2.3550  0.3878
   55CHL1  H23B 6537   5.644   0.706   9.131  0.0617  0.6064 -1.6745
   55CHL1   C24 6538   5.488   0.626   9.010 -0.3636 -0.1828 -0.7419
   55CHL1  H24A 6539   5.436   0.534   8.977 -0.9832  1.1856 -3.7805
   55CHL1  H24B 6540   5.412   0.701   9.042  0.4910  0.1584  0.5316
   55CHL1   C25 6541   5.557   0.680   8.885  0.0190  0.6396 -0.6957
   55CHL1   H25 6542   5.664   0.669   8.913  0.3216  2.3756 -1.1297
   55CHL1   C26 6543   5.520   0.610   8.752 -0.9211 -0.3862  0.0214
   55CHL1  H26A 6544   5.542   0.503   8.774 -2.4999 -0.8804 -0.7253
   55CHL1  H26B 6545   5.413   0.619   8.725 -0.4359  1.9908 -1.2262
   55CHL1  H26C 6546   5.588   0.631   8.667 -0.8893 -3.8683 -0.9099
   55CHL1   C27 6547   5.524   0.824   8.865  0.1987 -0.0722  0.4219
   55CHL1  H27A 6548   5.590   0.848   8.779 -0.0751 -0.2281  0.1639
   55CHL1  H27B 6549   5.416   0.833   8.839  0.3630  2.8300  0.6466
   55CHL1  H27C 6550   5.555   0.881   8.954  0.0522 -0.2878  0.6115
   56CHL1    C3 6551   3.108   5.805  10.144 -0.4347 -0.1753 -0.1403
   56CHL1    H3 6552   3.000   5.792  10.125 -0.3649  1.1591 -1.6267
   56CHL1    O3 6553   3.123   5.758  10.274  0.6972 -0.2057 -0.5081
   56CHL1   H3' 6554   3.218   5.754  10.286  0.8126 -1.0720 -1.6084
   56CHL1    C4 6555   3.196   5.728  10.041  0.0787  0.6231  0.6409
   56CHL1   H4A 6556   3.303   5.734  10.069  0.5186  1.4976 -1.1361
   56CHL1   H4B 6557   3.161   5.622  10.049  0.4163  0.6472  2.6354
   56CHL1    C5 6558   3.188   5.784   9.905 -0.4294  0.2009 -0.2597
   56CHL1    C6 6559   3.147   5.712   9.797 -0.4736 -0.5722  0.2713
   56CHL1    H6 6560   3.118   5.607   9.804  0.6376 -1.1064 -2.3863
   56CHL1    C7 6561   3.148   5.759   9.651 -1.0395  0.4326 -0.4224
   56CHL1   H7A 6562   3.211   5.684   9.599 -0.7045 -0.6403  1.5183
   56CHL1   H7B 6563   3.043   5.766   9.614 -1.8005 -0.9857  1.4154
   56CHL1    C8 6564   3.219   5.893   9.634  0.0984 -0.1967 -1.0481
   56CHL1    H8 6565   3.329   5.883   9.642  0.3722  3.2256  0.3570
   56CHL1   C14 6566   3.178   5.954   9.503 -0.0378  0.3245 -0.0805
   56CHL1   H14 6567   3.068   5.962   9.514 -0.0101 -0.0103  0.4756
   56CHL1   C15 6568   3.193   5.869   9.373 -0.8433  0.2931 -0.3219
   56CHL1  H15A 6569   3.282   5.802   9.375  0.9228  2.4182 -3.3804
   56CHL1  H15B 6570   3.108   5.797   9.372 -0.5087 -0.1138 -2.1771
   56CHL1   C16 6571   3.195   5.973   9.260 -0.0421 -0.9473  0.3984
   56CHL1  H16A 6572   3.285   5.962   9.195 -1.0460  1.6391 -1.4937
   56CHL1  H16B 6573   3.117   5.950   9.184  0.9008  3.5155 -2.0929
   56CHL1   C17 6574   3.192   6.114   9.331 -0.3243 -0.4363 -0.0264
   56CHL1   H17 6575   3.087   6.151   9.342 -0.0350 -0.0304  1.5323
   56CHL1   C13 6576   3.243   6.087   9.482  0.6582  0.2632 -0.1021
   56CHL1   C18 6577   3.396   6.066   9.477  0.3857  0.2369 -0.7014
   56CHL1  H18A 6578   3.426   5.986   9.406 -0.6492 -1.1168  0.3659
   56CHL1  H18B 6579   3.435   6.160   9.433  0.3026  1.1597  1.1425
   56CHL1  H18C 6580   3.437   6.034   9.575 -2.1031 -1.8442 -0.2872
   56CHL1   C12 6581   3.211   6.188   9.593  0.7753  0.2815  0.0369
   56CHL1  H12A 6582   3.256   6.289   9.577  0.6136  0.2168 -0.8748
   56CHL1  H12B 6583   3.102   6.206   9.589  0.7462 -0.1220 -1.7689
   56CHL1   C11 6584   3.240   6.131   9.730 -0.0551  0.6737 -0.0354
   56CHL1  H11A 6585   3.349   6.148   9.741  0.1002 -0.5594  0.3960
   56CHL1  H11B 6586   3.195   6.201   9.804  1.6563  0.0426  1.6564
   56CHL1    C9 6587   3.184   5.987   9.754  0.2227  0.6405 -0.1528
   56CHL1    H9 6588   3.073   5.992   9.762  0.1681  1.4665 -1.3117
   56CHL1   C10 6589   3.225   5.929   9.891 -0.3576  0.2837  0.2711
   56CHL1   C19 6590   3.372   5.952   9.918  0.0320 -0.4446  0.4750
   56CHL1  H19A 6591   3.395   6.060   9.928 -0.4314 -0.2070 -0.9014
   56CHL1  H19B 6592   3.395   5.910  10.019 -0.2529 -0.1812  0.6479
   56CHL1  H19C 6593   3.441   5.897   9.850  0.7270 -2.6675  2.8710
   56CHL1    C1 6594   3.134   6.009  10.002  0.1511 -0.1846  0.6078
   56CHL1   H1A 6595   3.155   6.118  10.008 -1.2598  0.1602 -0.6740
   56CHL1   H1B 6596   3.028   5.995   9.972  0.2027  0.1584  0.2572
   56CHL1    C2 6597   3.153   5.952  10.143  0.5000  0.3689  0.2030
   56CHL1   H2A 6598   3.095   6.004  10.222  1.1209  1.4944 -0.0685
   56CHL1   H2B 6599   3.260   5.958  10.172 -0.1969 -0.4428  3.0652
   56CHL1   C20 6600   3.252   6.222   9.243  0.6510 -0.6732  0.2688
   56CHL1   H20 6601   3.359   6.198   9.224  1.0413 -1.1504  2.8978
   56CHL1   C21 6602   3.255   6.356   9.315  0.2036  0.0332  0.2811
   56CHL1  H21A 6603   3.335   6.361   9.391 -0.4540  1.3566  0.8998
   56CHL1  H21B 6604   3.159   6.389   9.360  0.3754  2.6170 -1.1369
   56CHL1  H21C 6605   3.281   6.428   9.234  3.2901 -0.2217  0.9730
   56CHL1   C22 6606   3.182   6.240   9.100  0.0528 -0.2220 -0.4666
   56CHL1  H22A 6607   3.114   6.155   9.079  2.2187 -2.7299  2.3074
   56CHL1  H22B 6608   3.123   6.332   9.123  0.1381  0.0616 -1.3441
   56CHL1   C23 6609   3.274   6.281   8.982 -0.4256  0.3991  0.1779
   56CHL1  H23A 6610   3.357   6.352   9.004  1.4225 -0.7310 -2.7122
   56CHL1  H23B 6611   3.313   6.184   8.945 -0.1154  0.3818  0.5438
   56CHL1   C24 6612   3.181   6.341   8.877  0.9024 -1.0442 -0.1623
   56CHL1  H24A 6613   3.100   6.267   8.859 -0.4921  0.5501 -0.5734
   56CHL1  H24B 6614   3.130   6.430   8.920 -0.0649 -2.3822  1.5450
   56CHL1   C25 6615   3.252   6.373   8.741  0.2870  0.5330  0.2953
   56CHL1   H25 6616   3.308   6.279   8.722 -1.3117 -0.2446 -0.6876
   56CHL1   C26 6617   3.146   6.391   8.637  0.3034  0.5627  0.6983
   56CHL1  H26A 6618   3.067   6.467   8.647 -0.4770 -0.4059  2.1140
   56CHL1  H26B 6619   3.201   6.397   8.541  0.2416  1.3751  0.7137
   56CHL1  H26C 6620   3.086   6.297   8.638  0.8568  0.2049  1.8158
   56CHL1   C27 6621   3.339   6.500   8.749  0.0360  0.3054 -0.2843
   56CHL1  H27A 6622   3.425   6.500   8.819  0.3668  0.3744 -0.6903
   56CHL1  H27B 6623   3.367   6.539   8.649 -2.8926  4.5900  0.4107
   56CHL1  H27C 6624   3.269   6.582   8.775 -1.3921 -0.3613 -1.9061
   57CHL1    C3 6625   5.325   1.865  10.267  0.6604  0.5054  0.4005
   57CHL1    H3 6626   5.239   1.798  10.245  0.9893 -0.1704  1.1547
   57CHL1    O3 6627   5.334   1.900  10.406  0.5926  0.0612  0.4054
   57CHL1   H3' 6628   5.420   1.941  10.417  0.9461 -0.6943  0.5601
   57CHL1    C4 6629   5.450   1.788  10.227  0.4158 -0.2979 -0.0299
   57CHL1   H4A 6630   5.537   1.847  10.262 -1.4018  0.2581  3.8189
   57CHL1   H4B 6631   5.463   1.694  10.286  2.7933  1.4234  2.2748
   57CHL1    C5 6632   5.462   1.762  10.080  0.0318  0.2131 -0.1150
   57CHL1    C6 6633   5.482   1.643  10.029 -0.0215  0.8065  0.6233
   57CHL1    H6 6634   5.491   1.560  10.101  2.6880  2.4349  2.2701
   57CHL1    C7 6635   5.511   1.609   9.877  0.1022 -0.7482 -0.4249
   57CHL1   H7A 6636   5.602   1.547   9.864  0.4475 -0.6603  1.4420
   57CHL1   H7B 6637   5.419   1.558   9.839 -0.6816  0.7407 -0.5732
   57CHL1    C8 6638   5.527   1.740   9.800 -0.6260  0.9574 -0.7137
   57CHL1    H8 6639   5.628   1.776   9.829 -0.3777 -0.5888  0.4367
   57CHL1   C14 6640   5.538   1.706   9.649 -0.6635  0.6001 -0.4823
   57CHL1   H14 6641   5.431   1.680   9.632 -1.3417  0.7350  3.1196
   57CHL1   C15 6642   5.621   1.590   9.602  0.5334 -0.6963  0.2128
   57CHL1  H15A 6643   5.725   1.595   9.639  0.6265 -1.9390  0.1287
   57CHL1  H15B 6644   5.581   1.487   9.614 -1.3375 -0.1213 -0.7506
   57CHL1   C16 6645   5.624   1.624   9.449  0.3091  0.0214 -0.5045
   57CHL1  H16A 6646   5.730   1.635   9.418  0.5515  0.7780  0.5869
   57CHL1  H16B 6647   5.575   1.543   9.390 -0.0583 -0.6569  0.7214
   57CHL1   C17 6648   5.559   1.757   9.425 -0.4916  0.0405  0.1843
   57CHL1   H17 6649   5.450   1.746   9.403 -0.2579  0.2408 -1.1600
   57CHL1   C13 6650   5.561   1.827   9.558 -0.4538  0.3957 -0.0605
   57CHL1   C18 6651   5.701   1.873   9.589  0.2189 -0.3211  0.3824
   57CHL1  H18A 6652   5.722   1.955   9.517 -0.0640  1.0565  1.8457
   57CHL1  H18B 6653   5.693   1.920   9.690 -0.1358  0.5490 -0.0443
   57CHL1  H18C 6654   5.785   1.802   9.606 -1.7615 -3.0460 -0.7673
   57CHL1   C12 6655   5.453   1.931   9.580  0.2582  0.2593 -0.0249
   57CHL1  H12A 6656   5.486   2.024   9.530  1.2912 -1.2974 -2.3056
   57CHL1  H12B 6657   5.354   1.910   9.535 -0.2519  2.0185  0.2485
   57CHL1   C11 6658   5.431   1.967   9.730  0.4422 -0.2252 -0.3197
   57CHL1  H11A 6659   5.515   2.037   9.749  0.2944 -0.8397  2.7698
   57CHL1  H11B 6660   5.331   2.016   9.728  0.0621 -0.9395  0.6162
   57CHL1    C9 6661   5.426   1.847   9.835 -0.3860  0.2127 -0.2110
   57CHL1    H9 6662   5.327   1.798   9.820 -0.3776 -0.1477  0.8933
   57CHL1   C10 6663   5.444   1.881   9.982 -0.0980 -0.1945  0.4775
   57CHL1   C19 6664   5.570   1.965   9.991  0.1020 -0.9712 -0.5603
   57CHL1  H19A 6665   5.596   1.993  10.095 -0.4449 -2.2193 -0.0798
   57CHL1  H19B 6666   5.664   1.938   9.938  0.7707 -2.3012  1.2795
   57CHL1  H19C 6667   5.552   2.068   9.954  0.8240 -0.6964 -0.1509
   57CHL1    C1 6668   5.323   1.963  10.034  0.1867  0.5561  0.1758
   57CHL1   H1A 6669   5.320   2.062   9.983 -0.6171  0.2236 -0.4273
   57CHL1   H1B 6670   5.230   1.906  10.013  0.5928 -0.1709  0.3657
   57CHL1    C2 6671   5.312   1.990  10.187  0.6969 -1.1344 -0.1548
   57CHL1   H2A 6672   5.214   2.041  10.204  0.2693 -1.9409 -0.2103
   57CHL1   H2B 6673   5.387   2.065  10.220  0.8773 -0.8939 -1.0900
   57CHL1   C20 6674   5.601   1.828   9.294  0.3348 -0.7179 -0.5131
   57CHL1   H20 6675   5.708   1.856   9.284 -0.4535  2.1566 -1.6253
   57CHL1   C21 6676   5.527   1.965   9.287 -0.4990  0.1688 -0.3151
   57CHL1  H21A 6677   5.585   2.030   9.356  0.7800 -0.3698 -0.8823
   57CHL1  H21B 6678   5.430   1.943   9.337 -0.5878  0.0061 -0.5596
   57CHL1  H21C 6679   5.513   2.016   9.189  0.5191  0.2718 -0.4110
   57CHL1   C22 6680   5.570   1.745   9.168  0.5676  0.2333 -0.2167
   57CHL1  H22A 6681   5.621   1.648   9.181  1.2499  0.9802  3.1952
   57CHL1  H22B 6682   5.461   1.736   9.152  0.5211  1.6656 -0.8553
   57CHL1   C23 6683   5.622   1.802   9.037  0.5161  0.0450 -0.5146
   57CHL1  H23A 6684   5.571   1.899   9.017  0.5720  0.6358  2.0105
   57CHL1  H23B 6685   5.733   1.805   9.046  0.3440 -0.6518  2.6829
   57CHL1   C24 6686   5.581   1.717   8.916 -0.3452 -0.1163  0.0487
   57CHL1  H24A 6687   5.606   1.611   8.936 -1.1846 -0.3408 -0.0574
   57CHL1  H24B 6688   5.470   1.714   8.907 -0.1955 -2.5416 -1.3453
   57CHL1   C25 6689   5.628   1.765   8.776  0.8793 -0.2617  0.8650
   57CHL1   H25 6690   5.590   1.689   8.704  2.1135 -0.5483  0.5069
   57CHL1   C26 6691   5.565   1.894   8.728 -0.4119  0.2620 -0.0804
   57CHL1  H26A 6692   5.591   1.914   8.621 -0.6458  0.2072 -0.1490
   57CHL1  H26B 6693   5.455   1.902   8.723 -0.4202 -0.1086 -0.5760
   57CHL1  H26C 6694   5.576   1.969   8.809  1.2684  0.3668 -0.3724
   57CHL1   C27 6695   5.780   1.777   8.764 -0.0505  0.0002 -0.3507
   57CHL1  H27A 6696   5.832   1.679   8.762  3.4218  1.7772 -0.0076
   57CHL1  H27B 6697   5.800   1.822   8.664 -3.8099  0.4183 -1.0067
   57CHL1  H27C 6698   5.823   1.837   8.846 -1.1640  1.2103 -0.6383
   58CHL1    C3 6699   1.378   6.791  10.085  0.5979 -0.2700 -0.6993
   58CHL1    H3 6700   1.359   6.878  10.019 -0.0309 -1.6963 -2.4383
   58CHL1    O3 6701   1.344   6.803  10.227  0.3589 -0.4493  0.2267
   58CHL1   H3' 6702   1.413   6.858  10.265  0.1771  1.1805 -1.7085
   58CHL1    C4 6703   1.298   6.667  10.033 -0.0952 -1.3253 -0.5687
   58CHL1   H4A 6704   1.323   6.572  10.084 -0.7884 -0.3876  1.5403
   58CHL1   H4B 6705   1.190   6.683  10.054  0.1569 -0.2298 -0.1173
   58CHL1    C5 6706   1.333   6.643   9.886 -0.0727  0.6461 -0.2749
   58CHL1    C6 6707   1.238   6.640   9.790  0.1034  0.4329  0.1826
   58CHL1    H6 6708   1.134   6.661   9.817 -0.7694 -0.3877 -2.4034
   58CHL1    C7 6709   1.259   6.626   9.645 -0.4894  0.2284  0.5425
   58CHL1   H7A 6710   1.192   6.544   9.610  1.3545 -1.0517 -0.0819
   58CHL1   H7B 6711   1.240   6.718   9.586 -2.1123 -1.3738 -1.5160
   58CHL1    C8 6712   1.401   6.577   9.613 -0.6176  1.1049 -0.5103
   58CHL1    H8 6713   1.413   6.468   9.632 -2.0108  1.0535  0.0956
   58CHL1   C14 6714   1.434   6.590   9.466  0.1439 -0.5587  0.2670
   58CHL1   H14 6715   1.426   6.698   9.439 -1.5435 -0.3930  1.3397
   58CHL1   C15 6716   1.334   6.534   9.363 -0.2208 -0.3172  0.5640
   58CHL1  H15A 6717   1.313   6.436   9.412 -1.1698  0.2673  1.3510
   58CHL1  H15B 6718   1.238   6.589   9.351  1.0617  1.7945 -0.2548
   58CHL1   C16 6719   1.420   6.523   9.236  0.0044 -0.3120  0.4601
   58CHL1  H16A 6720   1.422   6.418   9.200  2.0520  0.0251 -0.4211
   58CHL1  H16B 6721   1.381   6.588   9.155  1.7153 -0.3437 -0.4106
   58CHL1   C17 6722   1.567   6.572   9.272 -0.3134  0.1189 -0.5408
   58CHL1   H17 6723   1.570   6.680   9.246 -2.4530 -0.1311 -2.0550
   58CHL1   C13 6724   1.573   6.548   9.426 -0.0476 -0.1868 -0.1147
   58CHL1   C18 6725   1.584   6.394   9.456  0.1086 -0.3934 -0.2272
   58CHL1  H18A 6726   1.576   6.367   9.563 -1.1989 -1.0542 -0.4842
   58CHL1  H18B 6727   1.521   6.330   9.390 -1.8963  0.3311  0.9348
   58CHL1  H18C 6728   1.688   6.362   9.434  0.9622  3.3545 -2.0908
   58CHL1   C12 6729   1.665   6.638   9.508  0.4759  0.3084  0.0722
   58CHL1  H12A 6730   1.774   6.623   9.490  0.0477 -1.7377 -0.9682
   58CHL1  H12B 6731   1.653   6.746   9.481  1.1126  0.4110  0.1933
   58CHL1   C11 6732   1.644   6.620   9.657  0.3398 -0.6669  0.6040
   58CHL1  H11A 6733   1.672   6.517   9.689  1.0756 -0.8193 -0.4702
   58CHL1  H11B 6734   1.719   6.687   9.705  0.8238  0.2342 -1.3410
   58CHL1    C9 6735   1.503   6.653   9.705 -0.9120  0.1711  0.1830
   58CHL1    H9 6736   1.490   6.760   9.679  2.7537  0.3089 -1.4036
   58CHL1   C10 6737   1.482   6.633   9.860  0.1697  0.2365 -0.2046
   58CHL1   C19 6738   1.518   6.500   9.904 -0.4821 -0.1560 -0.3245
   58CHL1  H19A 6739   1.492   6.485  10.011  0.8931 -0.2751  0.0079
   58CHL1  H19B 6740   1.461   6.416   9.859 -2.1907  1.5462 -1.4148
   58CHL1  H19C 6741   1.625   6.473   9.893 -0.7651 -1.7704  0.7248
   58CHL1    C1 6742   1.556   6.753   9.929 -0.2655 -0.7127 -0.6071
   58CHL1   H1A 6743   1.667   6.744   9.917  0.1788  1.0085  1.8723
   58CHL1   H1B 6744   1.527   6.849   9.882  1.5329 -0.2379 -0.8064
   58CHL1    C2 6745   1.522   6.765  10.078 -0.6699  0.1969  0.2801
   58CHL1   H2A 6746   1.578   6.850  10.121  0.1937 -0.0891 -0.2729
   58CHL1   H2B 6747   1.546   6.670  10.129 -3.3455 -0.3385  0.6440
   58CHL1   C20 6748   1.677   6.499   9.188 -0.1921  0.0306 -0.2754
   58CHL1   H20 6749   1.679   6.389   9.201  1.0032 -0.5433 -4.5696
   58CHL1   C21 6750   1.819   6.543   9.230 -1.2072 -0.1313 -0.6397
   58CHL1  H21A 6751   1.842   6.496   9.328  1.0103 -0.9685 -1.5283
   58CHL1  H21B 6752   1.815   6.654   9.233 -0.7443 -0.1656  2.3234
   58CHL1  H21C 6753   1.905   6.513   9.166 -2.5523 -0.1196 -2.4979
   58CHL1   C22 6754   1.653   6.516   9.033  0.2275  0.2504 -0.0642
   58CHL1  H22A 6755   1.549   6.505   8.996 -0.2625 -0.1218  1.3855
   58CHL1  H22B 6756   1.688   6.618   9.007  1.6989  0.2659  1.8711
   58CHL1   C23 6757   1.738   6.408   8.960 -0.5099 -0.2043 -0.8631
   58CHL1  H23A 6758   1.846   6.414   8.983 -0.3754  0.7846 -1.7247
   58CHL1  H23B 6759   1.687   6.314   8.992 -1.4271 -0.0650 -1.8931
   58CHL1   C24 6760   1.736   6.411   8.807  0.6427 -0.1147 -0.4938
   58CHL1  H24A 6761   1.635   6.449   8.779 -0.0577 -2.7205 -1.6121
   58CHL1  H24B 6762   1.809   6.488   8.775  1.4191 -0.8323 -0.4484
   58CHL1   C25 6763   1.756   6.281   8.723 -0.3085  0.3164  0.5581
   58CHL1   H25 6764   1.670   6.210   8.728 -0.2969 -0.0666 -3.3677
   58CHL1   C26 6765   1.762   6.317   8.582  0.0608 -0.2935 -0.3845
   58CHL1  H26A 6766   1.778   6.228   8.518 -0.1811 -0.1900 -0.5886
   58CHL1  H26B 6767   1.667   6.363   8.549  0.1473  1.3409  1.5325
   58CHL1  H26C 6768   1.839   6.396   8.571 -0.8084  0.2514 -2.7915
   58CHL1   C27 6769   1.888   6.200   8.765  0.3526  0.0231 -0.5651
   58CHL1  H27A 6770   1.978   6.257   8.734  0.7381 -0.2978 -0.0410
   58CHL1  H27B 6771   1.905   6.200   8.875 -0.8828  1.8116 -0.3452
   58CHL1  H27C 6772   1.908   6.101   8.719 -1.3194 -0.7307  0.2849
   59CHL1    C3 6773   1.097   5.828  10.506 -0.0554 -0.2211  0.4372
   59CHL1    H3 6774   1.127   5.935  10.508  1.0309 -0.5384  2.6565
   59CHL1    O3 6775   1.084   5.797  10.643 -0.1345 -0.0466  1.0843
   59CHL1   H3' 6776   1.164   5.840  10.673 -0.2602 -0.0822  1.4806
   59CHL1    C4 6777   0.957   5.803  10.445 -0.0510  0.0834  0.2555
   59CHL1   H4A 6778   0.914   5.701  10.462 -1.3667  0.7012  0.7366
   59CHL1   H4B 6779   0.893   5.877  10.498 -1.6490 -1.6879  0.8597
   59CHL1    C5 6780   0.958   5.816  10.292  0.4523 -0.4124 -0.0903
   59CHL1    C6 6781   0.883   5.907  10.228  0.3580 -0.3411 -0.0891
   59CHL1    H6 6782   0.821   5.971  10.292  0.0974 -0.2220 -0.4555
   59CHL1    C7 6783   0.873   5.934  10.079  0.1002 -0.6266 -0.3395
   59CHL1   H7A 6784   0.766   5.934  10.049 -0.4081  0.9357  1.3914
   59CHL1   H7B 6785   0.932   6.024  10.054 -0.4358 -0.5526 -1.3931
   59CHL1    C8 6786   0.945   5.818  10.006 -0.3449 -0.2525 -0.5621
   59CHL1    H8 6787   0.884   5.726  10.017 -2.0037  0.5745 -2.3811
   59CHL1   C14 6788   0.966   5.847   9.858  0.1789 -0.3190 -0.1533
   59CHL1   H14 6789   1.024   5.942   9.853  0.4062 -0.5880 -3.0468
   59CHL1   C15 6790   0.834   5.877   9.787 -0.2753 -0.1653  0.2578
   59CHL1  H15A 6791   0.753   5.809   9.821 -0.3548 -0.3910 -0.3652
   59CHL1  H15B 6792   0.787   5.976   9.805 -2.2185 -1.2628  1.4785
   59CHL1   C16 6793   0.858   5.851   9.641  0.4738 -0.6078 -0.0182
   59CHL1  H16A 6794   0.797   5.764   9.608  2.5407 -1.8915 -0.5280
   59CHL1  H16B 6795   0.825   5.942   9.585 -0.1901  0.9471  2.8101
   59CHL1   C17 6796   1.011   5.814   9.634 -0.0300  0.3244  0.7401
   59CHL1   H17 6797   1.060   5.913   9.628  1.1146 -0.1316  2.2349
   59CHL1   C13 6798   1.029   5.749   9.771 -0.2082  0.3333  0.2382
   59CHL1   C18 6799   0.953   5.610   9.775  0.2593  0.4150  0.3525
   59CHL1  H18A 6800   1.024   5.546   9.718 -1.1494 -0.3194 -0.6153
   59CHL1  H18B 6801   0.945   5.566   9.877 -0.2949  2.8029  1.3493
   59CHL1  H18C 6802   0.856   5.617   9.721  0.0942  0.4775  0.6615
   59CHL1   C12 6803   1.173   5.716   9.829  0.0456  0.5373  0.1332
   59CHL1  H12A 6804   1.215   5.628   9.775 -2.0032 -1.3648  1.4902
   59CHL1  H12B 6805   1.249   5.797   9.827  0.3814  0.2055 -0.9206
   59CHL1   C11 6806   1.164   5.684   9.985 -0.1695  0.0420  0.2897
   59CHL1  H11A 6807   1.120   5.582   9.995 -0.4248 -0.1953 -2.7695
   59CHL1  H11B 6808   1.270   5.686  10.019  0.8058 -0.1262 -2.5987
   59CHL1    C9 6809   1.083   5.788  10.063  0.1779 -0.3709  0.5480
   59CHL1    H9 6810   1.145   5.880  10.063 -1.1279  0.5243  1.0899
   59CHL1   C10 6811   1.066   5.743  10.212  0.1853 -0.3875 -0.0927
   59CHL1   C19 6812   1.025   5.596  10.226  0.2936 -0.0829  0.0052
   59CHL1  H19A 6813   0.931   5.566  10.174  0.9425 -3.5417  0.7105
   59CHL1  H19B 6814   1.106   5.523  10.204 -0.1772 -0.0413 -1.9379
   59CHL1  H19C 6815   0.990   5.573  10.329  1.4639 -1.7676  0.0555
   59CHL1    C1 6816   1.201   5.759  10.278 -0.1764  0.1865  0.4723
   59CHL1   H1A 6817   1.265   5.676  10.240 -3.2428 -2.2252  0.3257
   59CHL1   H1B 6818   1.229   5.861  10.244 -1.7883  1.2144  2.1568
   59CHL1    C2 6819   1.200   5.742  10.435 -0.3673  0.5138 -0.3942
   59CHL1   H2A 6820   1.298   5.752  10.488 -0.4955  0.0902 -0.0731
   59CHL1   H2B 6821   1.173   5.636  10.452 -0.8842  0.5445 -0.9866
   59CHL1   C20 6822   1.049   5.741   9.513  0.0106  0.1753  0.8503
   59CHL1   H20 6823   1.022   5.633   9.522  1.2852 -0.1122  1.3379
   59CHL1   C21 6824   1.199   5.761   9.502 -0.0895  0.1586 -0.5441
   59CHL1  H21A 6825   1.241   5.710   9.413 -2.3851 -3.2991  0.2496
   59CHL1  H21B 6826   1.248   5.713   9.590 -0.8892  2.8946  1.4662
   59CHL1  H21C 6827   1.230   5.867   9.494 -2.3811  1.0517  1.5484
   59CHL1   C22 6828   0.976   5.786   9.387  0.1614  0.4228  0.3430
   59CHL1  H22A 6829   0.867   5.767   9.395  0.4961 -0.9052  2.2562
   59CHL1  H22B 6830   1.001   5.894   9.382 -0.1367  0.4381 -0.8143
   59CHL1   C23 6831   1.014   5.714   9.261 -0.2761  0.2008 -0.1936
   59CHL1  H23A 6832   1.120   5.714   9.226 -0.3913 -0.1455 -0.5355
   59CHL1  H23B 6833   0.997   5.604   9.263  0.2719  0.1104  2.6169
   59CHL1   C24 6834   0.926   5.760   9.145 -1.0461 -0.5093  0.4152
   59CHL1  H24A 6835   0.817   5.759   9.166 -0.5266 -2.0370  3.4290
   59CHL1  H24B 6836   0.957   5.866   9.131 -0.7657 -0.4442  1.4679
   59CHL1   C25 6837   0.947   5.687   9.007 -0.6156 -0.6255  0.3564
   59CHL1   H25 6838   1.056   5.700   8.988 -0.8363  1.2303  0.2439
   59CHL1   C26 6839   0.896   5.547   9.015 -0.0010 -0.1788 -0.3956
   59CHL1  H26A 6840   0.927   5.486   8.928  0.2210 -1.0204  0.2723
   59CHL1  H26B 6841   0.927   5.497   9.108  4.8196 -0.6390 -2.1170
   59CHL1  H26C 6842   0.785   5.551   9.009 -0.1604  0.4838  2.3954
   59CHL1   C27 6843   0.875   5.771   8.905  0.1139 -0.2439  0.3298
   59CHL1  H27A 6844   0.772   5.793   8.939 -0.1793  0.4001 -0.9286
   59CHL1  H27B 6845   0.914   5.874   8.891  0.6908 -0.5536 -0.4194
   59CHL1  H27C 6846   0.867   5.716   8.808 -0.3792  0.7404 -0.1951
   60CHL1    C3 6847   6.459   5.159  10.301 -0.4887  0.2160 -0.0472
   60CHL1    H3 6848   6.355   5.178  10.267 -0.3840  0.1777 -0.3967
   60CHL1    O3 6849   6.459   5.099  10.435  0.1013  0.0753  0.4383
   60CHL1   H3' 6850   6.545   5.131  10.464  1.2230 -0.5338 -2.0076
   60CHL1    C4 6851   6.537   5.070  10.203 -0.1256  0.2050  0.8250
   60CHL1   H4A 6852   6.630   5.046  10.259  0.5524 -0.1854 -0.4465
   60CHL1   H4B 6853   6.501   4.966  10.188 -1.5659  1.0086 -1.6192
   60CHL1    C5 6854   6.567   5.135  10.065 -0.7313 -0.0677  0.0806
   60CHL1    C6 6855   6.539   5.065   9.950  0.1646  0.6801 -0.4979
   60CHL1    H6 6856   6.514   4.959   9.959 -0.3363  0.8130 -0.2840
   60CHL1    C7 6857   6.562   5.117   9.812  0.8075  1.2671  0.3551
   60CHL1   H7A 6858   6.597   5.027   9.757  0.5965  0.8864  0.8476
   60CHL1   H7B 6859   6.470   5.146   9.757  1.1257 -0.3420 -1.0908
   60CHL1    C8 6860   6.669   5.232   9.817 -0.2784 -0.1263  0.9893
   60CHL1    H8 6861   6.769   5.188   9.839 -1.0004 -1.9752  0.6934
   60CHL1   C14 6862   6.680   5.307   9.684 -0.5548  0.4485  0.2408
   60CHL1   H14 6863   6.577   5.343   9.664 -0.5946  0.6152  0.7470
   60CHL1   C15 6864   6.719   5.216   9.563 -0.0103  0.6852 -0.3637
   60CHL1  H15A 6865   6.789   5.134   9.588  1.2503  2.0712  0.7228
   60CHL1  H15B 6866   6.635   5.162   9.514 -0.3195 -0.4094  1.3550
   60CHL1   C16 6867   6.762   5.314   9.456  0.5296  0.8392 -0.1238
   60CHL1  H16A 6868   6.864   5.279   9.431 -0.2909 -1.4520 -0.4221
   60CHL1  H16B 6869   6.703   5.313   9.361  0.9442  1.0990 -0.3869
   60CHL1   C17 6870   6.759   5.453   9.524  0.0163 -0.5400 -0.1470
   60CHL1   H17 6871   6.660   5.501   9.511  0.9852  3.3912  5.3288
   60CHL1   C13 6872   6.773   5.432   9.677  0.0275  0.2913  0.3553
   60CHL1   C18 6873   6.924   5.401   9.716  0.2068  0.0670 -0.3166
   60CHL1  H18A 6874   6.966   5.331   9.641  1.2000  0.4487 -0.1258
   60CHL1  H18B 6875   6.990   5.490   9.721 -0.1189  0.1910  2.8201
   60CHL1  H18C 6876   6.931   5.351   9.815 -0.3170  3.3290  1.4411
   60CHL1   C12 6877   6.720   5.540   9.774 -0.2606  0.3341 -0.0327
   60CHL1  H12A 6878   6.792   5.624   9.776  0.7699 -0.5563  1.9111
   60CHL1  H12B 6879   6.623   5.584   9.744 -0.1805  1.3784  1.2089
   60CHL1   C11 6880   6.703   5.474   9.920 -0.1901  0.0846 -1.0635
   60CHL1  H11A 6881   6.806   5.471   9.960 -0.6253  0.2709  0.1026
   60CHL1  H11B 6882   6.649   5.555   9.974 -1.2111  0.2981 -2.3531
   60CHL1    C9 6883   6.635   5.338   9.924  0.3491 -0.2423 -0.2750
   60CHL1    H9 6884   6.527   5.354   9.900  0.1592 -1.2553 -0.1009
   60CHL1   C10 6885   6.623   5.279  10.068 -0.2861 -0.5025 -0.0477
   60CHL1   C19 6886   6.766   5.265  10.126  0.4773 -0.6286 -0.2394
   60CHL1  H19A 6887   6.809   5.359  10.167  0.3576 -0.7819  0.2382
   60CHL1  H19B 6888   6.769   5.193  10.210  2.0862  1.9084  1.9541
   60CHL1  H19C 6889   6.817   5.229  10.034 -1.2309  3.6361 -3.0214
   60CHL1    C1 6890   6.529   5.362  10.157 -0.8096 -0.6994  0.1022
   60CHL1   H1A 6891   6.571   5.465  10.154 -1.1836 -0.5470  0.1139
   60CHL1   H1B 6892   6.423   5.362  10.125 -0.0330 -0.9256 -2.5522
   60CHL1    C2 6893   6.528   5.307  10.302 -0.7002 -0.4492  0.1912
   60CHL1   H2A 6894   6.458   5.373  10.358  2.3902  0.2008  3.4784
   60CHL1   H2B 6895   6.627   5.299  10.351 -0.5582  2.2182  0.4266
   60CHL1   C20 6896   6.866   5.542   9.462 -0.3691  0.1374 -0.0795
   60CHL1   H20 6897   6.971   5.518   9.491 -0.6413 -0.0109  0.7892
   60CHL1   C21 6898   6.850   5.687   9.515 -0.3649  0.1180 -0.6468
   60CHL1  H21A 6899   6.887   5.758   9.438  2.4907 -1.8983 -1.2186
   60CHL1  H21B 6900   6.896   5.716   9.612 -0.8497 -0.6060 -0.1985
   60CHL1  H21C 6901   6.742   5.706   9.532 -0.4090 -1.5381  1.0720
   60CHL1   C22 6902   6.872   5.532   9.300 -0.6142 -0.3548 -0.0352
   60CHL1  H22A 6903   6.914   5.433   9.271  1.2827  0.5296 -0.4063
   60CHL1  H22B 6904   6.768   5.526   9.262 -0.7922 -1.1928  0.5763
   60CHL1   C23 6905   6.952   5.635   9.218  0.5297 -0.6188 -0.9719
   60CHL1  H23A 6906   6.945   5.630   9.107  1.9623  2.2220 -1.2344
   60CHL1  H23B 6907   6.911   5.737   9.235  0.5661 -0.8248  0.3775
   60CHL1   C24 6908   7.101   5.647   9.266 -0.1701  0.5466  0.1079
   60CHL1  H24A 6909   7.099   5.673   9.374 -1.6985  0.1670  0.1859
   60CHL1  H24B 6910   7.138   5.542   9.263 -0.3481  0.4165  1.8472
   60CHL1   C25 6911   7.187   5.746   9.198  0.2432 -0.0949  1.0918
   60CHL1   H25 6912   7.202   5.737   9.088  0.5221  2.1033  0.9171
   60CHL1   C26 6913   7.135   5.895   9.211 -0.3417  0.4258 -0.3337
   60CHL1  H26A 6914   7.133   5.928   9.317 -0.1753  0.4458 -0.3358
   60CHL1  H26B 6915   7.200   5.972   9.164 -0.2372  1.5107  1.5563
   60CHL1  H26C 6916   7.033   5.902   9.170 -0.6383 -0.1481  0.2922
   60CHL1   C27 6917   7.333   5.739   9.250  0.0149 -0.2265  0.3042
   60CHL1  H27A 6918   7.397   5.820   9.209  0.1691 -0.6745 -0.3505
   60CHL1  H27B 6919   7.314   5.758   9.357  0.2597  0.6431  0.1923
   60CHL1  H27C 6920   7.374   5.636   9.253 -1.0599 -0.6621  0.2953
   61CHL1    C3 6921   4.307   4.997  10.323 -0.4308 -0.3349 -0.3030
   61CHL1    H3 6922   4.243   4.910  10.299 -0.0332 -0.3201 -1.4557
   61CHL1    O3 6923   4.373   4.969  10.450 -0.1887 -0.0048  0.4486
   61CHL1   H3' 6924   4.352   5.046  10.504  2.0204  1.0540 -0.0950
   61CHL1    C4 6925   4.411   5.008  10.211  0.3454 -0.0025 -0.0104
   61CHL1   H4A 6926   4.495   5.077  10.234  0.5439 -0.4624  0.6809
   61CHL1   H4B 6927   4.461   4.908  10.205 -1.4141 -0.8726 -0.5274
   61CHL1    C5 6928   4.345   5.037  10.081 -0.3732 -0.2255  0.0245
   61CHL1    C6 6929   4.346   4.958   9.971 -0.8679 -0.0652  0.8391
   61CHL1    H6 6930   4.408   4.868   9.969 -2.1242 -0.9740  1.7013
   61CHL1    C7 6931   4.305   4.998   9.832  0.0703  0.0809  0.5622
   61CHL1   H7A 6932   4.396   4.988   9.769  1.0996  0.7908  1.9009
   61CHL1   H7B 6933   4.219   4.936   9.799 -0.6018  0.4951  1.4949
   61CHL1    C8 6934   4.280   5.148   9.823 -0.7307  0.3726 -0.1100
   61CHL1    H8 6935   4.375   5.207   9.822 -0.6830  0.3062  0.2644
   61CHL1   C14 6936   4.213   5.180   9.694  0.8491 -0.2311  0.0776
   61CHL1   H14 6937   4.120   5.119   9.699  0.6111  0.0935 -0.3550
   61CHL1   C15 6938   4.283   5.143   9.566 -0.4924  0.3171 -0.1442
   61CHL1  H15A 6939   4.385   5.188   9.575  0.2295 -0.5917 -3.3044
   61CHL1  H15B 6940   4.292   5.033   9.553 -1.0065  0.0663  1.5118
   61CHL1   C16 6941   4.210   5.219   9.459  0.0344 -0.2266  0.0909
   61CHL1  H16A 6942   4.293   5.270   9.405 -0.7760  1.3836  0.3140
   61CHL1  H16B 6943   4.148   5.158   9.390 -0.2684 -3.6695  3.2558
   61CHL1   C17 6944   4.114   5.320   9.531 -0.2510  0.5092  0.1447
   61CHL1   H17 6945   4.018   5.265   9.526  0.7922 -1.2481 -1.4791
   61CHL1   C13 6946   4.170   5.330   9.679 -0.7682  0.1063 -0.3062
   61CHL1   C18 6947   4.296   5.416   9.692  0.5006 -0.4936  0.4380
   61CHL1  H18A 6948   4.356   5.393   9.601  0.4260  0.3297  0.1794
   61CHL1  H18B 6949   4.280   5.526   9.682 -0.4417 -0.7271 -0.7471
   61CHL1  H18C 6950   4.358   5.406   9.784  2.2742 -0.1950 -0.6855
   61CHL1   C12 6951   4.071   5.368   9.786  0.5254  0.1738  0.9058
   61CHL1  H12A 6952   4.045   5.476   9.776  0.8193  0.2401  0.8456
   61CHL1  H12B 6953   3.979   5.307   9.781  0.5672  0.2497 -1.2308
   61CHL1   C11 6954   4.137   5.336   9.923 -0.6754 -0.3945 -0.1690
   61CHL1  H11A 6955   4.207   5.422   9.935  1.2253 -1.8402 -0.5558
   61CHL1  H11B 6956   4.057   5.347   9.998  0.5916  0.8622  1.0383
   61CHL1    C9 6957   4.198   5.191   9.943  0.5503 -0.1952 -0.0850
   61CHL1    H9 6958   4.115   5.118   9.935  0.1749  0.5343 -3.6648
   61CHL1   C10 6959   4.264   5.169  10.084 -0.5190  0.1349 -0.2632
   61CHL1   C19 6960   4.371   5.291  10.108  0.5741  0.0929  0.6691
   61CHL1  H19A 6961   4.309   5.383  10.106 -1.2825 -1.1330 -0.2428
   61CHL1  H19B 6962   4.415   5.276  10.208  0.7106  0.6430  0.6918
   61CHL1  H19C 6963   4.445   5.291  10.025  1.9235 -0.3327  1.8707
   61CHL1    C1 6964   4.153   5.169  10.198 -0.4023 -0.5154  0.6481
   61CHL1   H1A 6965   4.106   5.269  10.214  2.1269  0.4185  2.6501
   61CHL1   H1B 6966   4.074   5.102  10.158  0.0824 -1.2012  0.8335
   61CHL1    C2 6967   4.214   5.122  10.331  0.5457 -0.3095  0.2512
   61CHL1   H2A 6968   4.143   5.110  10.415  0.6792 -1.4396  0.2140
   61CHL1   H2B 6969   4.294   5.194  10.357  2.0411 -1.3899 -1.1979
   61CHL1   C20 6970   4.095   5.445   9.450 -0.1390 -0.8848 -0.7166
   61CHL1   H20 6971   4.191   5.501   9.455  0.2247 -1.5613 -0.0305
   61CHL1   C21 6972   3.989   5.542   9.506 -0.5425 -0.4574  0.4080
   61CHL1  H21A 6973   3.906   5.476   9.538 -1.2108 -0.3494 -1.0354
   61CHL1  H21B 6974   3.959   5.618   9.430 -1.0251 -0.0763  0.9716
   61CHL1  H21C 6975   4.034   5.606   9.585 -1.9250 -0.0571  0.8908
   61CHL1   C22 6976   4.068   5.423   9.306  0.1026  0.6925 -0.6898
   61CHL1  H22A 6977   4.141   5.353   9.260 -1.2645 -1.2350  0.0395
   61CHL1  H22B 6978   3.966   5.380   9.298  0.2258  0.1536  0.5820
   61CHL1   C23 6979   4.077   5.537   9.214 -0.0835 -0.1971  0.0801
   61CHL1  H23A 6980   3.990   5.605   9.224 -0.4866 -0.8867  1.3517
   61CHL1  H23B 6981   4.168   5.595   9.239  0.1138 -0.4720 -0.0019
   61CHL1   C24 6982   4.073   5.480   9.071 -0.1473  0.0360  0.5223
   61CHL1  H24A 6983   4.159   5.414   9.044  1.4374  2.0984  0.3915
   61CHL1  H24B 6984   3.985   5.413   9.067  0.6071 -0.8744 -1.5869
   61CHL1   C25 6985   4.066   5.591   8.963  0.4609 -0.1114 -0.1553
   61CHL1   H25 6986   3.962   5.629   8.970  0.1358 -1.3790  2.7742
   61CHL1   C26 6987   4.178   5.696   8.979  0.1118 -0.6279  0.0546
   61CHL1  H26A 6988   4.267   5.651   9.028 -0.0243 -2.8842 -1.6821
   61CHL1  H26B 6989   4.206   5.738   8.880 -2.2390 -2.6068 -1.5008
   61CHL1  H26C 6990   4.136   5.775   9.044  1.2093 -0.1004  0.1317
   61CHL1   C27 6991   4.075   5.541   8.821  0.3376  0.5173  0.1704
   61CHL1  H27A 6992   3.995   5.468   8.799 -0.7869  1.5699  0.7388
   61CHL1  H27B 6993   4.073   5.623   8.747 -1.1006 -0.0285 -0.3968
   61CHL1  H27C 6994   4.167   5.479   8.807 -1.7103 -2.7690  0.7920
   62CHL1    C3 6995   5.049   1.322  10.152  0.0964  0.0217 -0.2203
   62CHL1    H3 6996   4.947   1.343  10.113 -0.1901  1.1336  1.0704
   62CHL1    O3 6997   5.034   1.304  10.292  0.6808  0.2246 -0.1655
   62CHL1   H3' 6998   5.124   1.286  10.320  0.2001 -1.3687  0.3874
   62CHL1    C4 6999   5.100   1.187  10.096 -0.5796 -0.2504  0.4032
   62CHL1   H4A 7000   5.200   1.167  10.140  0.2955  0.8138 -1.0920
   62CHL1   H4B 7001   5.037   1.104  10.136  0.5287 -2.0722 -1.5199
   62CHL1    C5 7002   5.105   1.186   9.944 -0.2936  0.6618  0.3421
   62CHL1    C6 7003   5.020   1.111   9.873  0.1732  0.4100  0.2852
   62CHL1    H6 7004   4.947   1.043   9.920  0.0770  0.1718 -0.2084
   62CHL1    C7 7005   5.022   1.106   9.719 -0.1612 -0.5401 -0.1573
   62CHL1   H7A 7006   5.034   0.999   9.692 -2.3415 -1.1971  1.3403
   62CHL1   H7B 7007   4.923   1.132   9.674 -0.7430 -1.8787  0.3372
   62CHL1    C8 7008   5.142   1.193   9.661 -0.2180 -0.3172  0.2332
   62CHL1    H8 7009   5.236   1.134   9.671 -0.7412 -0.8592  2.1665
   62CHL1   C14 7010   5.128   1.206   9.507  0.4577 -0.1704 -0.3907
   62CHL1   H14 7011   5.030   1.259   9.499  0.5932  0.2571  0.6830
   62CHL1   C15 7012   5.122   1.078   9.427  1.2277 -0.5091 -0.5197
   62CHL1  H15A 7013   5.199   1.002   9.452  0.9773 -1.1629 -1.7098
   62CHL1  H15B 7014   5.023   1.035   9.452  0.7741  0.0229 -1.3709
   62CHL1   C16 7015   5.143   1.135   9.282  0.6041 -0.6873  0.1284
   62CHL1  H16A 7016   5.213   1.062   9.234 -0.5661 -1.7470  0.0213
   62CHL1  H16B 7017   5.045   1.142   9.232  1.0768 -0.8597 -0.8319
   62CHL1   C17 7018   5.181   1.286   9.298 -0.3365  0.5999 -0.2367
   62CHL1   H17 7019   5.085   1.340   9.287 -0.1120  1.1386  0.4056
   62CHL1   C13 7020   5.230   1.297   9.446 -0.2467 -0.0505 -0.0252
   62CHL1   C18 7021   5.376   1.239   9.463  0.4141  0.2622 -0.6779
   62CHL1  H18A 7022   5.388   1.157   9.390  2.9681  1.9100 -2.1919
   62CHL1  H18B 7023   5.450   1.313   9.426  1.2357  0.3857  1.1663
   62CHL1  H18C 7024   5.400   1.195   9.562 -1.2708 -0.5108 -0.5956
   62CHL1   C12 7025   5.236   1.439   9.514 -0.1316 -0.1072 -0.7320
   62CHL1  H12A 7026   5.316   1.501   9.468 -0.6091  0.1588 -1.2089
   62CHL1  H12B 7027   5.137   1.486   9.494  0.6450  1.7719 -0.2250
   62CHL1   C11 7028   5.251   1.428   9.664  0.7216 -0.4217 -0.1400
   62CHL1  H11A 7029   5.356   1.397   9.677  0.3867 -2.2416 -1.5289
   62CHL1  H11B 7030   5.237   1.530   9.704  0.4915 -0.6226  0.2971
   62CHL1    C9 7031   5.156   1.323   9.732  0.6316 -0.1982  0.6128
   62CHL1    H9 7032   5.061   1.380   9.723  1.2101  0.2294 -4.6979
   62CHL1   C10 7033   5.186   1.305   9.890  0.2475  0.2073 -0.1354
   62CHL1   C19 7034   5.335   1.259   9.899 -0.5640 -0.3615 -1.2686
   62CHL1  H19A 7035   5.364   1.234  10.003 -0.0174 -2.3077 -1.8696
   62CHL1  H19B 7036   5.357   1.165   9.844 -1.5818 -1.8284  0.7395
   62CHL1  H19C 7037   5.403   1.342   9.868 -0.9613  0.2191 -0.6119
   62CHL1    C1 7038   5.159   1.440   9.970  0.3790  0.0609  0.2794
   62CHL1   H1A 7039   5.229   1.517   9.930  0.8522  0.4322  1.7800
   62CHL1   H1B 7040   5.060   1.481   9.943  0.4057  0.2105  0.4075
   62CHL1    C2 7041   5.156   1.433  10.122 -0.3205  0.0461 -0.6390
   62CHL1   H2A 7042   5.137   1.529  10.175  2.1956 -1.1170  2.5245
   62CHL1   H2B 7043   5.252   1.402  10.170 -1.1338  0.1612  1.1193
   62CHL1   C20 7044   5.289   1.336   9.186 -0.7758  0.8062  0.0574
   62CHL1   H20 7045   5.382   1.285   9.220 -0.7881 -1.7920 -3.5317
   62CHL1   C21 7046   5.305   1.492   9.187 -0.6881 -0.6210 -0.3979
   62CHL1  H21A 7047   5.209   1.546   9.172 -0.8632 -0.8375 -0.0655
   62CHL1  H21B 7048   5.373   1.523   9.105  0.5444 -1.1786  0.4006
   62CHL1  H21C 7049   5.360   1.534   9.274 -0.1939 -2.3899  0.1665
   62CHL1   C22 7050   5.265   1.284   9.042 -0.2178  0.0294  0.5324
   62CHL1  H22A 7051   5.361   1.276   8.988 -0.1323  1.9249  0.3726
   62CHL1  H22B 7052   5.237   1.177   9.050 -1.2062  0.4132  2.8368
   62CHL1   C23 7053   5.160   1.364   8.965  0.3440  1.2477  0.9468
   62CHL1  H23A 7054   5.079   1.389   9.036 -0.6011 -0.6978  0.5959
   62CHL1  H23B 7055   5.214   1.453   8.927  0.1194  1.6368  1.5516
   62CHL1   C24 7056   5.088   1.291   8.851 -0.3958  0.0735  0.6118
   62CHL1  H24A 7057   5.031   1.210   8.901  0.8547  0.0218  2.0063
   62CHL1  H24B 7058   5.015   1.361   8.807 -0.3154  0.6096  1.3232
   62CHL1   C25 7059   5.184   1.250   8.736  0.3458  0.1415 -0.2202
   62CHL1   H25 7060   5.272   1.195   8.776 -0.3833 -0.2042  0.9402
   62CHL1   C26 7061   5.114   1.141   8.651  0.5084 -0.0087 -1.3556
   62CHL1  H26A 7062   5.023   1.117   8.711  2.0123 -0.0120  0.9974
   62CHL1  H26B 7063   5.076   1.176   8.553  1.3695 -1.1631 -2.1165
   62CHL1  H26C 7064   5.170   1.046   8.638 -0.5983 -0.9826  0.7291
   62CHL1   C27 7065   5.218   1.369   8.648  0.2041 -0.4568 -0.1917
   62CHL1  H27A 7066   5.125   1.428   8.635  0.5446 -0.3740 -2.6129
   62CHL1  H27B 7067   5.299   1.419   8.705  2.7706 -2.2550 -2.0995
   62CHL1  H27C 7068   5.268   1.329   8.557  0.6934 -1.8610  0.6809
   63CHL1    C3 7069   6.340   2.682  10.351 -0.1713 -0.9419 -0.1404
   63CHL1    H3 7070   6.378   2.784  10.328  0.7934 -1.1901  0.3265
   63CHL1    O3 7071   6.368   2.657  10.492  0.1118  0.6725  0.4122
   63CHL1   H3' 7072   6.330   2.571  10.512 -1.1537  0.8391 -1.1749
   63CHL1    C4 7073   6.189   2.671  10.317 -0.0524  1.2653 -0.2285
   63CHL1   H4A 7074   6.166   2.568  10.351 -2.7305  1.7208 -0.5183
   63CHL1   H4B 7075   6.131   2.746  10.375 -3.1006 -0.8029 -0.4528
   63CHL1    C5 7076   6.166   2.687  10.162  0.1720  0.4621 -0.3711
   63CHL1    C6 7077   6.073   2.775  10.117 -0.1451 -0.2618 -0.3135
   63CHL1    H6 7078   6.017   2.836  10.189  1.3212  0.6715  0.0436
   63CHL1    C7 7079   6.058   2.813   9.971  0.0355  0.4042 -0.3991
   63CHL1   H7A 7080   5.954   2.844   9.949 -0.2839  0.0056  0.5350
   63CHL1   H7B 7081   6.115   2.909   9.967  1.0187 -0.1836 -0.7895
   63CHL1    C8 7082   6.117   2.709   9.873  0.2645  0.2845 -0.4225
   63CHL1    H8 7083   6.047   2.624   9.888 -0.0471  0.9582  2.2740
   63CHL1   C14 7084   6.120   2.763   9.732 -0.0196 -0.0456 -0.1804
   63CHL1   H14 7085   6.192   2.847   9.729  0.1077 -0.1237  0.4776
   63CHL1   C15 7086   6.000   2.831   9.667 -0.1025 -0.3374 -0.3917
   63CHL1  H15A 7087   5.919   2.755   9.670  0.4428 -0.9012  0.3045
   63CHL1  H15B 7088   5.952   2.911   9.728  1.2877 -0.0451  0.3371
   63CHL1   C16 7089   6.037   2.839   9.519  0.0899  0.1302  0.1883
   63CHL1  H16A 7090   5.952   2.803   9.457 -0.8273  1.7176  0.5030
   63CHL1  H16B 7091   6.056   2.941   9.481  1.2173  0.1402  0.7688
   63CHL1   C17 7092   6.155   2.750   9.495 -0.0699 -0.3047 -0.4493
   63CHL1   H17 7093   6.242   2.819   9.492 -0.0432 -0.3681 -1.1243
   63CHL1   C13 7094   6.175   2.666   9.631 -0.0411 -0.4420  0.2523
   63CHL1   C18 7095   6.090   2.539   9.620  0.3822 -0.1058 -0.4473
   63CHL1  H18A 7096   6.134   2.461   9.555 -0.4095 -0.4510 -0.5703
   63CHL1  H18B 7097   6.083   2.498   9.723  0.9588  0.1879 -0.2887
   63CHL1  H18C 7098   5.996   2.574   9.572  2.0301  2.5492 -1.8498
   63CHL1   C12 7099   6.318   2.630   9.666  0.3604 -0.2412 -0.2565
   63CHL1  H12A 7100   6.358   2.553   9.597 -0.5410 -0.2393 -0.7877
   63CHL1  H12B 7101   6.397   2.708   9.654  1.0988 -1.1701 -1.5495
   63CHL1   C11 7102   6.333   2.589   9.811  0.1457  0.9022 -0.3954
   63CHL1  H11A 7103   6.288   2.487   9.811  0.5038  0.7213  1.8458
   63CHL1  H11B 7104   6.439   2.571   9.840 -0.8294 -0.5841  2.4323
   63CHL1    C9 7105   6.259   2.673   9.918  0.2639  0.5298  0.0045
   63CHL1    H9 7106   6.315   2.769   9.918  1.7893 -0.3445 -0.0325
   63CHL1   C10 7107   6.264   2.614  10.066 -0.5800  0.3979  0.0606
   63CHL1   C19 7108   6.228   2.463  10.045 -0.0529 -1.1860 -0.4112
   63CHL1  H19A 7109   6.139   2.463   9.979 -0.0246  2.0130 -0.4922
   63CHL1  H19B 7110   6.310   2.406   9.997  1.1388 -0.5895  0.8700
   63CHL1  H19C 7111   6.212   2.417  10.145  2.4661 -1.1788  0.0256
   63CHL1    C1 7112   6.413   2.624  10.123  0.5018 -0.2403 -0.7475
   63CHL1   H1A 7113   6.484   2.562  10.064  0.2035 -0.7755 -0.5479
   63CHL1   H1B 7114   6.443   2.731  10.127  2.9254 -0.9188 -0.1527
   63CHL1    C2 7115   6.422   2.583  10.268 -0.5995 -0.7893 -0.4075
   63CHL1   H2A 7116   6.527   2.603  10.296 -1.2124  0.5761  1.0227
   63CHL1   H2B 7117   6.388   2.479  10.286 -1.1095 -0.3405  1.3727
   63CHL1   C20 7118   6.153   2.678   9.354  0.1518  0.1926 -0.0133
   63CHL1   H20 7119   6.061   2.616   9.353 -1.2020  2.1238  1.2205
   63CHL1   C21 7120   6.275   2.584   9.335 -0.1618 -0.3883 -0.4605
   63CHL1  H21A 7121   6.262   2.532   9.238  2.0420 -1.1356 -0.3928
   63CHL1  H21B 7122   6.282   2.519   9.424 -3.0326  0.2124  0.2543
   63CHL1  H21C 7123   6.374   2.635   9.328  1.2194 -2.8100  0.7364
   63CHL1   C22 7124   6.146   2.779   9.236 -0.0268  0.3742  1.0699
   63CHL1  H22A 7125   6.066   2.854   9.253 -0.8213 -0.1718 -0.1865
   63CHL1  H22B 7126   6.247   2.825   9.239 -0.0434  0.6959 -2.0383
   63CHL1   C23 7127   6.126   2.724   9.093 -0.5709 -0.3835 -0.0518
   63CHL1  H23A 7128   6.099   2.813   9.033  1.2588  0.4764  0.3617
   63CHL1  H23B 7129   6.225   2.706   9.045  0.4900  1.7855  1.2666
   63CHL1   C24 7130   6.000   2.638   9.062 -0.7787 -0.0074 -0.2218
   63CHL1  H24A 7131   6.017   2.540   9.111  0.4834 -0.0322 -0.6913
   63CHL1  H24B 7132   5.910   2.686   9.106 -2.1687  0.1691 -3.1073
   63CHL1   C25 7133   5.976   2.624   8.912 -0.5919  0.5693 -0.1660
   63CHL1   H25 7134   5.954   2.729   8.881  0.7635  0.4422 -1.5836
   63CHL1   C26 7135   6.096   2.582   8.831 -0.2688  0.1005 -0.4353
   63CHL1  H26A 7136   6.148   2.494   8.874 -0.9252 -0.6113 -1.0784
   63CHL1  H26B 7137   6.071   2.555   8.727 -3.0632  0.2756  0.1397
   63CHL1  H26C 7138   6.174   2.661   8.828 -2.2835  2.2277  1.0931
   63CHL1   C27 7139   5.850   2.539   8.875  0.2959 -0.3701 -0.0073
   63CHL1  H27A 7140   5.847   2.509   8.768 -0.5504 -0.2146 -0.0318
   63CHL1  H27B 7141   5.859   2.445   8.934 -0.7762 -0.0984  0.6137
   63CHL1  H27C 7142   5.757   2.583   8.918  0.2944  0.1791 -0.5702
   64CHL1    C3 7143   5.535   2.439  10.109 -0.4131 -0.2974 -0.5895
   64CHL1    H3 7144   5.607   2.355  10.113 -2.1287 -1.7714 -0.0879
   64CHL1    O3 7145   5.518   2.482  10.240  0.0753  0.5560 -0.2221
   64CHL1   H3' 7146   5.425   2.472  10.264  0.7980  1.5364  3.1388
   64CHL1    C4 7147   5.585   2.555  10.024 -0.2848  1.0817 -0.0543
   64CHL1   H4A 7148   5.518   2.642  10.040  0.7273  1.7839  0.3940
   64CHL1   H4B 7149   5.687   2.578  10.062  0.2655  1.1422 -1.5263
   64CHL1    C5 7150   5.581   2.519   9.875  0.1329  0.5264  0.6777
   64CHL1    C6 7151   5.696   2.531   9.796  0.5577 -0.8890  0.3152
   64CHL1    H6 7152   5.786   2.565   9.848  1.7024  0.1282 -2.2606
   64CHL1    C7 7153   5.691   2.506   9.650 -0.3057 -0.0363  0.2524
   64CHL1   H7A 7154   5.745   2.588   9.596  0.3159 -0.1381  0.7137
   64CHL1   H7B 7155   5.742   2.410   9.626  0.7619  0.5495  0.1547
   64CHL1    C8 7156   5.550   2.492   9.587  0.3032  0.9612  0.3867
   64CHL1    H8 7157   5.507   2.594   9.583 -1.1034  0.3853  0.7430
   64CHL1   C14 7158   5.555   2.430   9.448 -0.0944  0.4188  0.5393
   64CHL1   H14 7159   5.584   2.323   9.455  4.3610  1.5926  1.2522
   64CHL1   C15 7160   5.655   2.487   9.344 -0.1630  0.9632  0.2687
   64CHL1  H15A 7161   5.656   2.598   9.350  0.9140  0.9168  1.1242
   64CHL1  H15B 7162   5.752   2.453   9.384 -0.5321  1.3047  1.4994
   64CHL1   C16 7163   5.601   2.431   9.210 -0.3917  0.0992 -0.0067
   64CHL1  H16A 7164   5.599   2.511   9.133 -0.5353  2.2740  2.1829
   64CHL1  H16B 7165   5.682   2.362   9.177 -0.2247  0.8457 -1.1670
   64CHL1   C17 7166   5.464   2.364   9.241  0.3860 -0.3811  0.3448
   64CHL1   H17 7167   5.499   2.261   9.266  2.2582  0.4106  1.0951
   64CHL1   C13 7168   5.414   2.418   9.375 -0.6686  0.0463  0.5150
   64CHL1   C18 7169   5.351   2.556   9.353  0.7395 -0.6061  0.4990
   64CHL1  H18A 7170   5.245   2.541   9.322  0.4923  0.1660  0.9626
   64CHL1  H18B 7171   5.361   2.615   9.446  2.1203 -0.8179  0.4998
   64CHL1  H18C 7172   5.397   2.612   9.269  2.7650 -1.1568  1.2002
   64CHL1   C12 7173   5.325   2.327   9.466  0.0162  0.1291 -0.2390
   64CHL1  H12A 7174   5.219   2.325   9.433  0.7358  1.5759 -2.7997
   64CHL1  H12B 7175   5.365   2.223   9.465  1.2301  0.5782  0.3269
   64CHL1   C11 7176   5.319   2.383   9.609 -1.0350  0.1746  0.3946
   64CHL1  H11A 7177   5.270   2.481   9.593  2.9904  1.9151 -1.9233
   64CHL1  H11B 7178   5.257   2.316   9.673 -1.8113  0.9917  0.5056
   64CHL1    C9 7179   5.455   2.408   9.676  0.4948 -0.3496 -0.1919
   64CHL1    H9 7180   5.515   2.315   9.673  1.1825  0.0994 -0.3643
   64CHL1   C10 7181   5.443   2.469   9.824  0.1615 -0.3258  0.8260
   64CHL1   C19 7182   5.345   2.592   9.826 -0.2751  0.0184 -0.3893
   64CHL1  H19A 7183   5.239   2.568   9.800  0.0008 -2.6506  0.7979
   64CHL1  H19B 7184   5.345   2.634   9.929  0.9077 -1.3332  0.1844
   64CHL1  H19C 7185   5.375   2.672   9.756 -2.3430  0.0671 -1.2401
   64CHL1    C1 7186   5.406   2.349   9.918  0.8637 -0.4108 -0.0338
   64CHL1   H1A 7187   5.304   2.315   9.893  1.9781 -3.1176 -1.1196
   64CHL1   H1B 7188   5.482   2.270   9.904  1.7784  0.1097  1.8228
   64CHL1    C2 7189   5.400   2.390  10.062  0.0662  0.0732 -0.8438
   64CHL1   H2A 7190   5.366   2.296  10.111  0.1592 -0.7610 -2.3757
   64CHL1   H2B 7191   5.317   2.460  10.086  0.2784 -0.9774  3.3661
   64CHL1   C20 7192   5.366   2.352   9.123 -0.4258  0.2508 -0.6649
   64CHL1   H20 7193   5.357   2.452   9.075 -1.3655 -0.1072 -1.2592
   64CHL1   C21 7194   5.230   2.301   9.155  0.7914  0.1246  0.5090
   64CHL1  H21A 7195   5.169   2.361   9.225  1.5151  2.2050 -0.6175
   64CHL1  H21B 7196   5.238   2.197   9.193 -1.4760 -0.2715 -0.0426
   64CHL1  H21C 7197   5.166   2.287   9.065  0.5191 -0.0270  0.7255
   64CHL1   C22 7198   5.420   2.270   9.006  0.2643 -0.2400 -0.5185
   64CHL1  H22A 7199   5.524   2.309   8.994 -0.0072 -0.3167 -3.3038
   64CHL1  H22B 7200   5.428   2.165   9.044  0.1133 -0.1868 -0.3387
   64CHL1   C23 7201   5.336   2.281   8.880  0.2907 -0.5441  0.4898
   64CHL1  H23A 7202   5.248   2.213   8.891  0.7816 -1.3382 -0.4524
   64CHL1  H23B 7203   5.297   2.383   8.862 -1.0677 -0.9413  1.0583
   64CHL1   C24 7204   5.421   2.233   8.762 -0.2037 -0.9121 -0.1869
   64CHL1  H24A 7205   5.500   2.311   8.761  0.0187 -1.1362  0.0054
   64CHL1  H24B 7206   5.469   2.139   8.797 -2.8253 -1.9249  0.7896
   64CHL1   C25 7207   5.358   2.235   8.621 -0.3750  0.4874  0.0563
   64CHL1   H25 7208   5.437   2.205   8.549  0.7205 -1.3552  1.9723
   64CHL1   C26 7209   5.239   2.135   8.616  0.4116  0.1493 -0.1610
   64CHL1  H26A 7210   5.156   2.170   8.681  0.1380 -1.7476  0.5511
   64CHL1  H26B 7211   5.210   2.118   8.510 -0.4520 -0.5484  0.1794
   64CHL1  H26C 7212   5.269   2.040   8.665 -1.8300 -0.6963 -0.3486
   64CHL1   C27 7213   5.321   2.376   8.589  0.2931  0.1908  0.1286
   64CHL1  H27A 7214   5.221   2.371   8.638  1.6842  0.4136  3.0962
   64CHL1  H27B 7215   5.382   2.448   8.647  2.0362 -1.3661  0.2644
   64CHL1  H27C 7216   5.307   2.398   8.481  2.8817  1.2295 -0.0138
   65CHL1    C3 7217   1.659   5.892  10.129  0.5400  0.3452 -0.4384
   65CHL1    H3 7218   1.632   5.785  10.117 -3.0581  1.0435  0.7752
   65CHL1    O3 7219   1.645   5.916  10.263  0.3985 -0.8199 -0.5892
   65CHL1   H3' 7220   1.658   6.009  10.281  1.3585 -1.1400  0.4735
   65CHL1    C4 7221   1.798   5.925  10.089 -0.1762 -0.3865  0.8438
   65CHL1   H4A 7222   1.822   6.026  10.130 -1.0899 -0.2798  1.1332
   65CHL1   H4B 7223   1.865   5.850  10.135 -0.3165 -1.3470 -0.4702
   65CHL1    C5 7224   1.815   5.913   9.937 -0.1841 -0.0875 -0.5473
   65CHL1    C6 7225   1.914   5.834   9.887 -0.3068  0.0700  0.5151
   65CHL1    H6 7226   1.988   5.780   9.948 -1.5625 -3.5184 -0.9987
   65CHL1    C7 7227   1.928   5.808   9.737  0.1972  0.7074 -0.2346
   65CHL1   H7A 7228   2.033   5.791   9.707 -0.7352 -1.2155 -2.6083
   65CHL1   H7B 7229   1.878   5.711   9.720  2.4851 -0.5207 -0.1042
   65CHL1    C8 7230   1.867   5.920   9.650 -0.1566 -0.1605  0.6954
   65CHL1    H8 7231   1.937   6.003   9.669  0.4973 -0.6527  0.4706
   65CHL1   C14 7232   1.875   5.870   9.505  0.2474 -0.6000 -0.1821
   65CHL1   H14 7233   1.800   5.789   9.489 -2.6527  2.0231 -0.2155
   65CHL1   C15 7234   2.005   5.821   9.453  0.3892  0.6485 -1.0528
   65CHL1  H15A 7235   2.096   5.878   9.482  1.1613 -0.4125 -1.3852
   65CHL1  H15B 7236   2.018   5.717   9.489 -2.1740  1.3142  2.0732
   65CHL1   C16 7237   1.975   5.831   9.300 -0.3200 -0.4763 -0.2574
   65CHL1  H16A 7238   2.056   5.891   9.253 -0.2286 -2.5688 -2.8933
   65CHL1  H16B 7239   1.964   5.730   9.255 -0.3831 -0.5701 -0.0320
   65CHL1   C17 7240   1.838   5.904   9.281  0.7262  0.6149 -0.3407
   65CHL1   H17 7241   1.758   5.827   9.273  2.8286 -1.7309  0.5962
   65CHL1   C13 7242   1.814   5.977   9.417 -0.4316 -0.6544 -0.4934
   65CHL1   C18 7243   1.897   6.106   9.408 -0.0025 -0.2294 -0.1506
   65CHL1  H18A 7244   2.006   6.099   9.389 -0.0879 -1.7230 -0.1937
   65CHL1  H18B 7245   1.859   6.177   9.331  1.2296 -1.7948 -2.2628
   65CHL1  H18C 7246   1.901   6.167   9.500 -1.9799  0.7721 -0.7015
   65CHL1   C12 7247   1.662   6.011   9.464 -0.8233 -0.1956 -0.1850
   65CHL1  H12A 7248   1.614   6.083   9.393  0.8811 -0.6442 -1.8396
   65CHL1  H12B 7249   1.606   5.916   9.451 -0.4737 -0.1939 -1.9399
   65CHL1   C11 7250   1.662   6.062   9.605  0.7625  0.2326 -0.1869
   65CHL1  H11A 7251   1.717   6.158   9.596  0.8047 -0.0052 -2.5474
   65CHL1  H11B 7252   1.562   6.086   9.649  1.6753  2.3811  0.7902
   65CHL1    C9 7253   1.726   5.953   9.697 -0.2266  0.0329 -0.6607
   65CHL1    H9 7254   1.668   5.860   9.683 -1.6556  0.6136  1.1722
   65CHL1   C10 7255   1.708   5.992   9.854 -0.5824  0.0083  0.3734
   65CHL1   C19 7256   1.750   6.146   9.877 -0.0402  0.0747  0.0772
   65CHL1  H19A 7257   1.760   6.168   9.985  2.9130  0.9938 -0.3359
   65CHL1  H19B 7258   1.844   6.174   9.825 -0.6697  0.4774 -0.8504
   65CHL1  H19C 7259   1.667   6.207   9.836 -0.3215  0.6213  1.4297
   65CHL1    C1 7260   1.565   5.969   9.910  0.5057 -0.0757  0.0514
   65CHL1   H1A 7261   1.507   6.050   9.860 -0.6591 -0.7712  0.2502
   65CHL1   H1B 7262   1.523   5.869   9.886  1.6790  0.1436 -3.1276
   65CHL1    C2 7263   1.547   5.979  10.061  0.4011 -0.7420 -0.1131
   65CHL1   H2A 7264   1.443   5.966  10.099 -0.5422  2.5527 -1.3474
   65CHL1   H2B 7265   1.566   6.085  10.092  1.4988 -1.8479  3.2547
   65CHL1   C20 7266   1.814   5.976   9.144  0.0160 -0.4458 -0.0674
   65CHL1   H20 7267   1.882   6.063   9.132 -1.0930  0.2730 -1.1774
   65CHL1   C21 7268   1.672   6.034   9.131  0.3275 -0.4182 -0.0921
   65CHL1  H21A 7269   1.592   5.957   9.140 -0.9340  0.8023 -0.6874
   65CHL1  H21B 7270   1.656   6.085   9.034  1.1131 -0.1667 -0.0918
   65CHL1  H21C 7271   1.673   6.117   9.204 -0.1803  0.0516 -0.6112
   65CHL1   C22 7272   1.845   5.889   9.025 -0.6735  0.0874 -0.0561
   65CHL1  H22A 7273   1.820   5.943   8.931 -1.1354  2.2846  1.2827
   65CHL1  H22B 7274   1.953   5.865   9.027 -0.8759 -0.8416 -0.0455
   65CHL1   C23 7275   1.768   5.762   9.005 -0.4960  1.0808 -0.8212
   65CHL1  H23A 7276   1.757   5.719   9.107  0.5270 -0.4440 -1.3319
   65CHL1  H23B 7277   1.670   5.780   8.956 -0.2650  1.4756 -1.1420
   65CHL1   C24 7278   1.859   5.671   8.922  1.0993  0.6626 -0.1231
   65CHL1  H24A 7279   1.875   5.712   8.819 -0.6072 -1.3022 -1.1910
   65CHL1  H24B 7280   1.955   5.668   8.977 -0.4143  0.3579  2.5853
   65CHL1   C25 7281   1.820   5.518   8.926 -0.1627 -0.9844 -0.8230
   65CHL1   H25 7282   1.903   5.459   8.882  0.6259 -1.7713  1.6631
   65CHL1   C26 7283   1.787   5.463   9.065 -0.3843  0.3417 -0.0576
   65CHL1  H26A 7284   1.686   5.501   9.090 -0.8220 -0.4036 -0.6540
   65CHL1  H26B 7285   1.768   5.354   9.068  2.7434 -0.3318 -2.3536
   65CHL1  H26C 7286   1.871   5.483   9.134 -1.8642  1.6004  1.4209
   65CHL1   C27 7287   1.693   5.497   8.838 -0.0961  0.4670  0.0317
   65CHL1  H27A 7288   1.620   5.575   8.866  2.3045  2.6179  0.5120
   65CHL1  H27B 7289   1.721   5.515   8.733 -0.3504 -3.4085 -0.7895
   65CHL1  H27C 7290   1.662   5.391   8.852 -0.7404  0.5909 -0.4402
   66CHL1    C3 7291   5.992   3.965  10.377  0.4818 -0.5482 -0.0188
   66CHL1    H3 7292   6.072   4.017  10.320  1.9629  0.4516  2.9031
   66CHL1    O3 7293   6.030   3.939  10.509  0.5271  0.1641  0.1028
   66CHL1   H3' 7294   5.956   3.951  10.569  0.0557 -0.7974 -0.2892
   66CHL1    C4 7295   5.875   4.061  10.369 -1.1142 -0.2863  0.0262
   66CHL1   H4A 7296   5.791   4.023  10.431 -1.9886 -1.1829 -1.6911
   66CHL1   H4B 7297   5.903   4.156  10.419 -1.3513  0.4027 -1.1563
   66CHL1    C5 7298   5.838   4.078  10.223 -0.1032  0.3464  0.6942
   66CHL1    C6 7299   5.843   4.198  10.160  0.2459  0.6199 -0.2604
   66CHL1    H6 7300   5.880   4.281  10.223 -0.3810 -0.9386  2.2450
   66CHL1    C7 7301   5.785   4.222  10.025  0.2008  0.1059 -0.0792
   66CHL1   H7A 7302   5.727   4.315  10.042  2.0776  1.6070 -1.5138
   66CHL1   H7B 7303   5.858   4.252   9.946  0.1093 -4.0825 -1.8861
   66CHL1    C8 7304   5.694   4.115   9.975  0.0027 -0.6454  0.2529
   66CHL1    H8 7305   5.598   4.131  10.029  1.0035  0.6044  1.6813
   66CHL1   C14 7306   5.664   4.125   9.825 -1.0679  0.8376 -0.0601
   66CHL1   H14 7307   5.759   4.101   9.773 -0.1774 -1.5016  2.4974
   66CHL1   C15 7308   5.621   4.260   9.763  0.0701  0.0502 -0.6004
   66CHL1  H15A 7309   5.534   4.309   9.811 -0.8859  0.3794 -2.5782
   66CHL1  H15B 7310   5.706   4.332   9.762  0.7988 -0.7622  1.0220
   66CHL1   C16 7311   5.571   4.228   9.623 -0.9243 -0.0884 -0.4049
   66CHL1  H16A 7312   5.470   4.271   9.609 -0.4694  0.9734 -0.4803
   66CHL1  H16B 7313   5.635   4.282   9.549 -0.7087 -0.2104 -0.3101
   66CHL1   C17 7314   5.564   4.076   9.612  0.6437 -0.1701  0.0379
   66CHL1   H17 7315   5.659   4.038   9.568  0.1479 -0.3595 -0.8846
   66CHL1   C13 7316   5.567   4.020   9.766  0.6518 -0.2349  0.8784
   66CHL1   C18 7317   5.426   4.043   9.815  0.1346  0.2982  0.2191
   66CHL1  H18A 7318   5.374   4.137   9.788 -0.3605 -0.2070 -0.5911
   66CHL1  H18B 7319   5.356   3.963   9.781  0.9518  0.1071 -1.0275
   66CHL1  H18C 7320   5.433   4.044   9.926  1.8773 -0.8019  0.1502
   66CHL1   C12 7321   5.634   3.885   9.799 -0.5357 -0.7541 -0.1919
   66CHL1  H12A 7322   5.568   3.802   9.764 -1.9316 -0.1089  0.8419
   66CHL1  H12B 7323   5.722   3.881   9.731  1.1601  1.9744  1.7487
   66CHL1   C11 7324   5.659   3.865   9.948  0.8128 -0.4071  0.4689
   66CHL1  H11A 7325   5.558   3.878   9.993  0.7546 -2.0022  0.8428
   66CHL1  H11B 7326   5.690   3.760   9.967 -0.0699 -0.4631  1.6938
   66CHL1    C9 7327   5.749   3.975  10.010  0.3717 -0.1562 -0.1825
   66CHL1    H9 7328   5.843   3.979   9.952 -0.6976  0.2624 -1.9320
   66CHL1   C10 7329   5.786   3.957  10.155  0.5670  0.1559  0.6384
   66CHL1   C19 7330   5.659   3.901  10.225  0.8622 -0.2838  0.3065
   66CHL1  H19A 7331   5.636   3.795  10.199 -0.8229 -0.4785  2.3921
   66CHL1  H19B 7332   5.674   3.888  10.334 -0.0181 -1.1375  0.3395
   66CHL1  H19C 7333   5.568   3.965  10.221  0.9341 -0.2771 -1.3321
   66CHL1    C1 7334   5.904   3.852  10.171  0.1204  0.7178  0.1063
   66CHL1   H1A 7335   5.868   3.757  10.127 -1.1882  0.4503  1.7037
   66CHL1   H1B 7336   5.981   3.892  10.102  0.3957 -0.7641 -0.4646
   66CHL1    C2 7337   5.949   3.833  10.317 -0.1859  0.4343 -0.3926
   66CHL1   H2A 7338   6.030   3.758  10.327 -1.5920 -0.9992  0.4874
   66CHL1   H2B 7339   5.862   3.791  10.372 -0.6149 -0.2290 -1.5483
   66CHL1   C20 7340   5.450   4.022   9.523 -0.2452 -0.1853  0.5722
   66CHL1   H20 7341   5.353   4.057   9.565 -1.0733  0.6776 -1.9598
   66CHL1   C21 7342   5.456   3.871   9.523 -0.0057  0.3023 -0.1250
   66CHL1  H21A 7343   5.563   3.839   9.519 -0.2253 -0.5033  0.4038
   66CHL1  H21B 7344   5.411   3.826   9.432  0.7506  2.0606 -1.4170
   66CHL1  H21C 7345   5.401   3.822   9.605 -0.9954  0.1388 -0.8793
   66CHL1   C22 7346   5.444   4.064   9.379  0.6896  0.1464 -0.2571
   66CHL1  H22A 7347   5.371   4.004   9.320 -0.8725  1.4218  0.3271
   66CHL1  H22B 7348   5.415   4.170   9.370  0.6027  0.3142  1.7168
   66CHL1   C23 7349   5.586   4.052   9.318 -0.9509 -0.5469  0.0295
   66CHL1  H23A 7350   5.668   4.100   9.376 -0.7126 -1.1263  0.1724
   66CHL1  H23B 7351   5.599   3.943   9.305 -0.7632 -0.7332  1.6075
   66CHL1   C24 7352   5.592   4.125   9.176 -0.3236 -0.2558 -0.1377
   66CHL1  H24A 7353   5.491   4.124   9.132 -0.4486 -0.1898  0.1438
   66CHL1  H24B 7354   5.590   4.234   9.195  0.3413 -0.2891  0.1570
   66CHL1   C25 7355   5.705   4.075   9.085  1.0268 -0.4426  0.1866
   66CHL1   H25 7356   5.789   4.054   9.155 -1.8435 -1.4897  3.4822
   66CHL1   C26 7357   5.654   3.949   9.010 -0.1745  0.4833 -0.0638
   66CHL1  H26A 7358   5.728   3.918   8.933  0.7365  1.9863  0.1738
   66CHL1  H26B 7359   5.652   3.867   9.084 -0.2528  0.3310 -0.2361
   66CHL1  H26C 7360   5.555   3.959   8.961 -0.3106  0.7492  0.2628
   66CHL1   C27 7361   5.751   4.182   8.987 -0.4410 -0.1994  1.1928
   66CHL1  H27A 7362   5.768   4.281   9.036 -0.2310 -0.7374  2.2168
   66CHL1  H27B 7363   5.847   4.145   8.946  0.6157  1.7518  1.8423
   66CHL1  H27C 7364   5.677   4.201   8.906  3.0627 -1.0235 -2.3721
   67CHL1    C3 7365   2.892   4.731  10.092 -0.5432  0.7792 -0.3136
   67CHL1    H3 7366   2.831   4.644  10.060 -0.8254  0.9531 -0.2430
   67CHL1    O3 7367   2.910   4.732  10.233 -0.2653 -0.0992  0.1827
   67CHL1   H3' 7368   2.963   4.809  10.256  0.7305 -1.1052  1.3467
   67CHL1    C4 7369   3.033   4.704  10.036 -0.5236 -0.8070  0.2244
   67CHL1   H4A 7370   3.104   4.774  10.084 -1.8672  0.3924  0.5052
   67CHL1   H4B 7371   3.060   4.604  10.076 -0.2466 -0.5256  0.7393
   67CHL1    C5 7372   3.029   4.723   9.881 -0.4832 -1.2145  0.2109
   67CHL1    C6 7373   3.076   4.633   9.788 -0.5795  0.5691 -0.5519
   67CHL1    H6 7374   3.117   4.540   9.830 -2.7642 -0.3652 -0.4634
   67CHL1    C7 7375   3.090   4.658   9.640  0.1653 -0.3071  0.0268
   67CHL1   H7A 7376   3.192   4.631   9.606  0.5707  2.6666 -1.2609
   67CHL1   H7B 7377   3.023   4.594   9.578  0.6229 -0.4483 -0.3281
   67CHL1    C8 7378   3.059   4.802   9.599  0.3994  0.7713 -0.6180
   67CHL1    H8 7379   3.151   4.860   9.621  0.5298  1.0942 -1.9426
   67CHL1   C14 7380   3.016   4.805   9.450  0.5171 -0.0950 -0.1293
   67CHL1   H14 7381   2.909   4.777   9.450 -0.2862  2.8797 -0.3590
   67CHL1   C15 7382   3.086   4.706   9.355 -0.0061  0.3555  0.9578
   67CHL1  H15A 7383   3.195   4.693   9.372  0.1794  1.0558  0.3266
   67CHL1  H15B 7384   3.030   4.610   9.348 -0.8136  1.0136 -2.8248
   67CHL1   C16 7385   3.055   4.775   9.223 -0.4081 -0.2283  0.2018
   67CHL1  H16A 7386   3.147   4.814   9.176  0.1893  0.0925  1.6165
   67CHL1  H16B 7387   3.006   4.705   9.152  0.1386 -0.2066 -0.2004
   67CHL1   C17 7388   2.970   4.901   9.248  0.7793 -0.3742  0.0718
   67CHL1   H17 7389   2.867   4.860   9.250  1.0820 -1.1575 -0.1662
   67CHL1   C13 7390   3.004   4.949   9.395 -0.0198  0.0693  0.7506
   67CHL1   C18 7391   3.141   5.019   9.399  0.4803 -0.2571  0.4367
   67CHL1  H18A 7392   3.167   5.027   9.507  1.7963 -0.4586  0.1463
   67CHL1  H18B 7393   3.221   4.957   9.355 -1.3845 -0.9294 -2.1605
   67CHL1  H18C 7394   3.125   5.123   9.361  0.6153 -0.2630  0.3645
   67CHL1   C12 7395   2.892   5.013   9.478  0.4005  0.7368  0.7000
   67CHL1  H12A 7396   2.881   5.120   9.449  0.8140  0.1769 -1.5399
   67CHL1  H12B 7397   2.798   4.963   9.449  0.3520  1.7231 -0.8957
   67CHL1   C11 7398   2.912   5.010   9.629  0.2296  0.3364  0.0146
   67CHL1  H11A 7399   2.994   5.080   9.654  0.0267  0.9325 -0.9716
   67CHL1  H11B 7400   2.824   5.049   9.685 -0.2103  0.8588 -1.0353
   67CHL1    C9 7401   2.941   4.870   9.684  0.5274  0.1612  0.2247
   67CHL1    H9 7402   2.847   4.813   9.670  2.5938 -2.6763 -2.9361
   67CHL1   C10 7403   2.961   4.862   9.838  0.0490  0.1433  0.1284
   67CHL1   C19 7404   3.063   4.970   9.881  0.1572 -0.7317  0.0075
   67CHL1  H19A 7405   3.096   4.971   9.987 -1.2711  1.8128  0.4700
   67CHL1  H19B 7406   3.156   4.956   9.822 -0.1315  0.8810 -0.8732
   67CHL1  H19C 7407   3.015   5.069   9.865 -0.1012 -0.9951 -0.8865
   67CHL1    C1 7408   2.824   4.893   9.911 -0.5662  0.4628 -0.4252
   67CHL1   H1A 7409   2.792   4.999   9.901 -1.4161 -0.0119 -3.2525
   67CHL1   H1B 7410   2.748   4.820   9.875  2.0726 -3.2448  1.1671
   67CHL1    C2 7411   2.825   4.868  10.056  0.1968 -0.4748 -0.8295
   67CHL1   H2A 7412   2.730   4.887  10.111  0.4719  1.7760 -1.0822
   67CHL1   H2B 7413   2.901   4.937  10.098  2.0865 -1.1298 -3.1248
   67CHL1   C20 7414   2.973   5.013   9.142  0.4873 -0.6233  0.3741
   67CHL1   H20 7415   3.073   5.057   9.124 -0.1564  0.2030 -1.4043
   67CHL1   C21 7416   2.877   5.137   9.168  0.0396  0.5958  0.1818
   67CHL1  H21A 7417   2.847   5.176   9.068  0.8663  1.6975  0.3635
   67CHL1  H21B 7418   2.915   5.222   9.228 -1.4796  1.2341  0.2637
   67CHL1  H21C 7419   2.783   5.094   9.208  0.3169 -1.1206 -0.9297
   67CHL1   C22 7420   2.941   4.954   8.999  0.1633  0.3917  0.1301
   67CHL1  H22A 7421   2.940   4.843   9.001 -3.9235  0.3486  0.7245
   67CHL1  H22B 7422   2.835   4.971   8.971 -0.2367 -0.3434  1.1495
   67CHL1   C23 7423   3.034   4.998   8.883 -0.4939  0.0941  0.3074
   67CHL1  H23A 7424   3.031   5.107   8.861 -0.4044 -0.0593 -0.4544
   67CHL1  H23B 7425   3.130   4.977   8.936 -0.4014 -1.3069 -0.3946
   67CHL1   C24 7426   3.002   4.931   8.754 -0.1394 -0.1176 -0.4942
   67CHL1  H24A 7427   3.079   4.949   8.676 -0.8284  1.0021 -0.9352
   67CHL1  H24B 7428   2.985   4.822   8.768 -3.7863  0.4739  0.2323
   67CHL1   C25 7429   2.864   4.968   8.694 -0.1027  0.0228  0.1438
   67CHL1   H25 7430   2.786   4.957   8.772 -0.5539  0.1167 -0.2909
   67CHL1   C26 7431   2.853   5.114   8.647  0.1945 -0.2194  0.6310
   67CHL1  H26A 7432   2.746   5.135   8.625  0.0365  0.4000  1.9296
   67CHL1  H26B 7433   2.894   5.196   8.710  1.4636  1.0155 -1.7450
   67CHL1  H26C 7434   2.889   5.113   8.542  0.3824 -0.9849  0.7008
   67CHL1   C27 7435   2.832   4.872   8.577 -0.3444 -0.7693  0.3075
   67CHL1  H27A 7436   2.910   4.893   8.501 -1.5295 -0.2302 -0.7747
   67CHL1  H27B 7437   2.834   4.765   8.604  1.1881 -0.8912 -0.2365
   67CHL1  H27C 7438   2.735   4.894   8.528  0.9286 -0.8031 -2.2825
   68CHL1    C3 7439   1.113   5.105  10.202 -0.2518  0.3705  0.0307
   68CHL1    H3 7440   1.202   5.048  10.166  0.8822  1.9617  0.2329
   68CHL1    O3 7441   1.116   5.116  10.343 -0.5370 -0.1187 -0.8868
   68CHL1   H3' 7442   1.138   5.029  10.376 -0.1778  0.2766 -0.0868
   68CHL1    C4 7443   1.124   5.243  10.128 -0.3604 -0.2809  0.4862
   68CHL1   H4A 7444   1.037   5.301  10.165  0.0323  1.4500 -1.2509
   68CHL1   H4B 7445   1.215   5.292  10.167 -0.5075  1.7737 -1.6576
   68CHL1    C5 7446   1.118   5.235   9.971  0.3751 -0.5437 -1.0253
   68CHL1    C6 7447   1.208   5.297   9.901  0.7768 -0.2631 -0.1405
   68CHL1    H6 7448   1.278   5.359   9.961  0.6586 -0.1737 -0.0951
   68CHL1    C7 7449   1.218   5.314   9.761 -0.4230  0.1199  0.4937
   68CHL1   H7A 7450   1.238   5.420   9.732  3.5209 -0.4828  0.7819
   68CHL1   H7B 7451   1.309   5.262   9.724 -2.6390 -2.1105 -2.0411
   68CHL1    C8 7452   1.091   5.256   9.697  0.1055 -0.4764 -0.5930
   68CHL1    H8 7453   1.021   5.340   9.715 -1.2411 -1.5435 -0.8258
   68CHL1   C14 7454   1.123   5.221   9.551 -0.0390 -0.7577  0.6927
   68CHL1   H14 7455   1.193   5.135   9.540  0.2319 -0.4323 -0.1917
   68CHL1   C15 7456   1.183   5.331   9.465 -0.3135  0.3837  0.0977
   68CHL1  H15A 7457   1.144   5.433   9.485 -1.4120 -0.1476  0.7740
   68CHL1  H15B 7458   1.294   5.329   9.468 -0.2501 -0.6275 -2.1978
   68CHL1   C16 7459   1.136   5.294   9.328  0.2677 -0.3791  0.2867
   68CHL1  H16A 7460   1.078   5.380   9.288  0.6771  0.2123  0.9790
   68CHL1  H16B 7461   1.218   5.288   9.252  0.6716  3.8361  0.3146
   68CHL1   C17 7462   1.051   5.163   9.330 -0.4622 -0.2943 -0.1494
   68CHL1   H17 7463   1.122   5.078   9.330  0.5259  0.5293  0.0548
   68CHL1   C13 7464   0.995   5.161   9.471  0.3876 -0.0463 -0.1663
   68CHL1   C18 7465   0.887   5.267   9.475  0.5165 -0.0557 -0.8888
   68CHL1  H18A 7466   0.866   5.291   9.582 -2.0604  2.1721 -1.8202
   68CHL1  H18B 7467   0.932   5.361   9.436  0.3869 -0.3135 -1.6702
   68CHL1  H18C 7468   0.794   5.241   9.419  0.1652  1.7601 -1.1780
   68CHL1   C12 7469   0.966   5.024   9.538  0.2421 -0.6352  0.9259
   68CHL1  H12A 7470   0.879   4.974   9.490  2.5592 -1.2993 -2.8595
   68CHL1  H12B 7471   1.057   4.961   9.524  0.5549 -0.2289  1.1357
   68CHL1   C11 7472   0.940   5.039   9.688  0.4430  0.0482 -0.0919
   68CHL1  H11A 7473   0.841   5.088   9.698  0.0326 -1.1284  1.7585
   68CHL1  H11B 7474   0.932   4.944   9.745  3.3085 -0.7760 -0.9645
   68CHL1    C9 7475   1.049   5.123   9.771 -0.5457 -0.5694 -0.6257
   68CHL1    H9 7476   1.135   5.053   9.764  0.5111  0.6718 -0.2107
   68CHL1   C10 7477   1.011   5.148   9.922 -0.3696 -0.8683 -0.3852
   68CHL1   C19 7478   0.874   5.224   9.924 -0.6265 -0.2136  0.3982
   68CHL1  H19A 7479   0.845   5.283  10.013 -0.6876  0.2519  0.0724
   68CHL1  H19B 7480   0.870   5.302   9.845 -0.2094 -0.5859  0.0045
   68CHL1  H19C 7481   0.797   5.151   9.892 -0.6258 -0.1198  0.1828
   68CHL1    C1 7482   0.996   5.018  10.001 -0.2052  0.6105 -0.8362
   68CHL1   H1A 7483   0.894   4.983   9.971 -0.2661  2.2963 -2.7119
   68CHL1   H1B 7484   1.070   4.951   9.953 -0.2601  0.3227 -0.5191
   68CHL1    C2 7485   0.988   5.025  10.157 -0.0719 -0.1869 -0.4136
   68CHL1   H2A 7486   0.990   4.920  10.191 -0.5943  0.1903  0.7993
   68CHL1   H2B 7487   0.901   5.068  10.211  0.6406  1.4015 -0.4958
   68CHL1   C20 7488   0.964   5.146   9.208  0.9710 -0.7094  0.1570
   68CHL1   H20 7489   0.907   5.241   9.197  0.1972 -1.2607 -0.6861
   68CHL1   C21 7490   0.862   5.026   9.222 -0.3296 -0.1076  0.8390
   68CHL1  H21A 7491   0.842   4.987   9.120 -0.0811  0.5133  0.5514
   68CHL1  H21B 7492   0.773   5.048   9.286  0.9140  0.7065  2.3155
   68CHL1  H21C 7493   0.921   4.943   9.267 -1.1568 -1.6468 -0.8580
   68CHL1   C22 7494   1.049   5.140   9.081  0.1157 -0.7684 -0.6565
   68CHL1  H22A 7495   1.115   5.230   9.072 -0.7779 -0.2063 -1.7552
   68CHL1  H22B 7496   1.125   5.059   9.083  0.9944  0.0555  0.1314
   68CHL1   C23 7497   0.967   5.155   8.949  0.7698 -0.0899 -0.6654
   68CHL1  H23A 7498   0.887   5.078   8.954 -0.1095  0.9544  2.6498
   68CHL1  H23B 7499   0.902   5.245   8.959 -0.7733 -1.3235  0.6227
   68CHL1   C24 7500   1.042   5.163   8.812  0.1284  0.1974 -0.3246
   68CHL1  H24A 7501   1.103   5.255   8.811 -1.5516  1.3126 -2.7362
   68CHL1  H24B 7502   1.109   5.075   8.799 -0.5825 -0.8023  2.3530
   68CHL1   C25 7503   0.948   5.183   8.696  0.0509 -0.3399  0.6353
   68CHL1   H25 7504   0.866   5.250   8.730  1.8562  2.4979 -0.4574
   68CHL1   C26 7505   1.015   5.242   8.572 -0.1701  0.2164  0.1236
   68CHL1  H26A 7506   0.944   5.245   8.486 -0.3133  1.4862  0.2696
   68CHL1  H26B 7507   1.044   5.348   8.590 -0.5205  0.5998 -1.5056
   68CHL1  H26C 7508   1.109   5.191   8.544 -0.3475 -0.1514  0.1974
   68CHL1   C27 7509   0.869   5.057   8.660 -0.4048 -0.4495 -1.0006
   68CHL1  H27A 7510   0.800   5.028   8.742 -0.2400  1.9560  0.0335
   68CHL1  H27B 7511   0.807   5.070   8.569  0.3250  1.0108 -1.2988
   68CHL1  H27C 7512   0.934   4.970   8.634 -1.4498 -1.4615 -0.2499
   69CHL1    C3 7513   0.908   3.819   6.788 -0.2687  0.0830 -0.2712
   69CHL1    H3 7514   0.801   3.796   6.806 -0.1475 -0.6950 -0.5015
   69CHL1    O3 7515   0.920   3.853   6.652  0.2003  0.4842  0.8694
   69CHL1   H3' 7516   1.012   3.872   6.633 -0.2653  1.8026 -0.1539
   69CHL1    C4 7517   0.943   3.938   6.873  0.2818  0.0723 -0.4140
   69CHL1   H4A 7518   1.049   3.958   6.846 -0.2128  2.1213 -0.8677
   69CHL1   H4B 7519   0.885   4.028   6.846 -2.3490 -1.2214  0.7495
   69CHL1    C5 7520   0.923   3.902   7.016 -0.4437 -0.6680  0.0475
   69CHL1    C6 7521   0.827   3.964   7.090 -0.7946 -0.0389  0.1284
   69CHL1    H6 7522   0.772   4.047   7.045  1.3730  1.4274  0.1057
   69CHL1    C7 7523   0.810   3.942   7.235  0.1343  0.3169 -0.5997
   69CHL1   H7A 7524   0.799   4.030   7.302 -0.8104 -0.3055  0.0673
   69CHL1   H7B 7525   0.718   3.881   7.242 -0.1256  0.7511 -0.2657
   69CHL1    C8 7526   0.926   3.858   7.306  0.1030 -0.1163  0.0090
   69CHL1    H8 7527   1.007   3.934   7.317 -1.0205  1.4074 -1.7578
   69CHL1   C14 7528   0.891   3.799   7.447 -0.2855  0.2648  0.0922
   69CHL1   H14 7529   0.814   3.721   7.427 -1.6100  1.9590 -1.6670
   69CHL1   C15 7530   0.824   3.900   7.542  0.2800  0.2263  0.8342
   69CHL1  H15A 7531   0.870   3.999   7.526  1.5859 -0.6142 -0.7964
   69CHL1  H15B 7532   0.715   3.907   7.521  0.2628 -1.0637  0.4139
   69CHL1   C16 7533   0.840   3.843   7.683 -0.4571 -0.0555 -0.4141
   69CHL1  H16A 7534   0.902   3.911   7.745  0.5660 -2.3481  1.1700
   69CHL1  H16B 7535   0.738   3.815   7.719  0.7585 -2.2726  1.4398
   69CHL1   C17 7536   0.923   3.709   7.662 -0.6146 -0.5799 -0.0366
   69CHL1   H17 7537   0.842   3.637   7.638 -2.8126  1.8267 -0.0502
   69CHL1   C13 7538   1.005   3.731   7.529  0.2411 -0.3389 -0.0771
   69CHL1   C18 7539   1.129   3.824   7.543 -0.0566  0.4575 -0.2008
   69CHL1  H18A 7540   1.115   3.905   7.617 -0.2136  2.0568 -1.9449
   69CHL1  H18B 7541   1.209   3.764   7.591  0.6490 -0.5042 -2.4845
   69CHL1  H18C 7542   1.163   3.864   7.445  1.3659  0.5338  0.3061
   69CHL1   C12 7543   1.039   3.611   7.442  0.8191 -0.2550  0.2666
   69CHL1  H12A 7544   1.133   3.564   7.478  0.7000 -0.7232 -0.0317
   69CHL1  H12B 7545   0.964   3.529   7.439 -0.9003  1.2879  0.2541
   69CHL1   C11 7546   1.075   3.655   7.300  0.3137 -0.4202  0.0973
   69CHL1  H11A 7547   1.165   3.721   7.297  0.0196  0.0148  0.8124
   69CHL1  H11B 7548   1.093   3.558   7.248  2.6945 -0.7407  1.4589
   69CHL1    C9 7549   0.968   3.739   7.224  0.0778  0.3608  0.0134
   69CHL1    H9 7550   0.882   3.671   7.207 -1.5767  2.2984  0.4618
   69CHL1   C10 7551   1.009   3.789   7.074  0.7313 -0.1024  0.7404
   69CHL1   C19 7552   1.151   3.836   7.070  0.3522  0.0184 -0.2583
   69CHL1  H19A 7553   1.182   3.856   6.966  0.8983  0.0146 -0.0975
   69CHL1  H19B 7554   1.158   3.927   7.133  1.7585 -0.0990 -0.2225
   69CHL1  H19C 7555   1.229   3.763   7.101  0.4291  0.0683 -0.3382
   69CHL1    C1 7556   1.002   3.669   6.975 -0.9286  0.7525  0.2219
   69CHL1   H1A 7557   1.087   3.608   7.011 -0.4030  1.7145  0.6006
   69CHL1   H1B 7558   0.906   3.618   7.003  0.0854 -0.7383  1.0649
   69CHL1    C2 7559   0.998   3.700   6.822  0.6356 -0.0889 -0.4430
   69CHL1   H2A 7560   0.966   3.613   6.761 -0.4472 -0.6815  0.9464
   69CHL1   H2B 7561   1.098   3.731   6.785  1.5836 -2.4363  0.0703
   69CHL1   C20 7562   0.999   3.650   7.777  0.0743  0.2583 -0.6098
   69CHL1   H20 7563   1.089   3.605   7.729 -0.6782 -1.0874 -0.7634
   69CHL1   C21 7564   0.924   3.537   7.845  0.2813 -0.5662 -0.4983
   69CHL1  H21A 7565   0.991   3.495   7.923 -0.2450 -1.3045 -0.4345
   69CHL1  H21B 7566   0.890   3.463   7.769 -0.8622  1.1079 -1.6430
   69CHL1  H21C 7567   0.835   3.579   7.897  0.0434 -0.5066 -0.9553
   69CHL1   C22 7568   1.049   3.747   7.893  0.2271  0.2951 -0.5063
   69CHL1  H22A 7569   1.094   3.842   7.855 -0.0864  1.6492  2.4071
   69CHL1  H22B 7570   0.970   3.780   7.963  1.1213 -0.0196  0.6599
   69CHL1   C23 7571   1.171   3.688   7.970  0.2091  0.4351 -0.7624
   69CHL1  H23A 7572   1.143   3.590   8.015 -1.3691  1.5157  0.6614
   69CHL1  H23B 7573   1.260   3.664   7.907  1.1376 -0.5603  0.8930
   69CHL1   C24 7574   1.208   3.788   8.080 -0.3473 -0.0066  0.0885
   69CHL1  H24A 7575   1.257   3.876   8.032  0.6265 -0.8888 -0.5464
   69CHL1  H24B 7576   1.111   3.812   8.128 -1.1417 -0.3026 -1.3202
   69CHL1   C25 7577   1.307   3.737   8.187  0.1029  0.3038  0.6553
   69CHL1   H25 7578   1.337   3.831   8.238 -0.6252  1.9609 -1.9282
   69CHL1   C26 7579   1.249   3.641   8.281 -0.6189 -0.0695 -0.3597
   69CHL1  H26A 7580   1.189   3.697   8.357 -0.4249  2.2467 -1.8620
   69CHL1  H26B 7581   1.181   3.563   8.239  2.2441 -2.7421 -0.1538
   69CHL1  H26C 7582   1.330   3.591   8.339 -0.2388 -0.3218 -1.1099
   69CHL1   C27 7583   1.442   3.688   8.120 -0.0162  0.4248 -0.1508
   69CHL1  H27A 7584   1.503   3.772   8.081  0.7349 -1.3115 -2.8373
   69CHL1  H27B 7585   1.496   3.635   8.202 -0.9880 -0.5123 -0.1086
   69CHL1  H27C 7586   1.421   3.614   8.039  0.4667 -0.9861  0.9860
   70CHL1    C3 7587   0.109   0.855   7.268 -0.4606  0.4150  0.4105
   70CHL1    H3 7588   0.180   0.937   7.295  0.0750 -0.0696  0.4683
   70CHL1    O3 7589   0.085   0.857   7.130  0.0043 -1.0958 -0.3169
   70CHL1   H3' 7590   0.052   0.770   7.107  0.6409 -1.6848  0.9305
   70CHL1    C4 7591   0.176   0.724   7.300 -0.0090 -0.0504 -0.0469
   70CHL1   H4A 7592   0.115   0.633   7.281  0.4736 -0.1334 -1.2197
   70CHL1   H4B 7593   0.279   0.721   7.258 -0.6056 -0.4783 -1.4830
   70CHL1    C5 7594   0.187   0.718   7.452 -0.4059 -0.8492  0.3308
   70CHL1    C6 7595   0.304   0.695   7.519 -0.1288  0.2200 -0.2007
   70CHL1    H6 7596   0.395   0.692   7.457  0.4399  1.1711  0.5798
   70CHL1    C7 7597   0.318   0.679   7.668 -0.2929  0.5426  0.2465
   70CHL1   H7A 7598   0.377   0.587   7.692  0.1204 -0.0373 -2.7188
   70CHL1   H7B 7599   0.374   0.766   7.709  1.1464 -0.4866  0.5253
   70CHL1    C8 7600   0.182   0.656   7.745  0.8482 -0.1594  0.6385
   70CHL1    H8 7601   0.152   0.552   7.721 -1.7776  0.7978 -0.4407
   70CHL1   C14 7602   0.201   0.675   7.899 -0.2605  0.3640 -0.5302
   70CHL1   H14 7603   0.235   0.780   7.914 -0.2724  0.3053 -0.0789
   70CHL1   C15 7604   0.295   0.588   7.979  0.2748 -0.4739 -0.4873
   70CHL1  H15A 7605   0.294   0.486   7.935  0.6529 -0.1843 -1.1636
   70CHL1  H15B 7606   0.402   0.619   7.971  0.0006  1.0273  1.1841
   70CHL1   C16 7607   0.248   0.601   8.128  0.8024 -0.1005 -0.2273
   70CHL1  H16A 7608   0.215   0.500   8.163 -1.6346  1.3008  1.6476
   70CHL1  H16B 7609   0.322   0.640   8.201  0.9831 -0.0034 -0.4592
   70CHL1   C17 7610   0.123   0.686   8.127 -0.0452  0.3586  0.6178
   70CHL1   H17 7611   0.156   0.791   8.139  0.6576  0.3876 -1.3560
   70CHL1   C13 7612   0.070   0.668   7.980 -1.0253 -0.1962 -0.0495
   70CHL1   C18 7613   0.003   0.527   7.975 -0.1390  0.6919  0.0252
   70CHL1  H18A 7614  -0.094   0.545   8.027 -0.0573  1.4516 -0.0733
   70CHL1  H18B 7615  -0.004   0.490   7.871 -1.2529 -0.4196  0.4846
   70CHL1  H18C 7616   0.048   0.445   8.035 -2.0596  1.3844  2.5015
   70CHL1   C12 7617  -0.025   0.769   7.928 -0.2357  0.1370  0.2345
   70CHL1  H12A 7618  -0.126   0.752   7.970 -0.3423 -1.1595 -0.5190
   70CHL1  H12B 7619   0.005   0.874   7.948  1.6494  0.2311 -2.8393
   70CHL1   C11 7620  -0.046   0.757   7.774  0.8134 -0.2305 -0.5374
   70CHL1  H11A 7621  -0.112   0.668   7.768 -0.5290  0.4147  3.1433
   70CHL1  H11B 7622  -0.105   0.848   7.748 -0.2583 -0.6428  0.3852
   70CHL1    C9 7623   0.080   0.752   7.691 -0.1335 -0.3155  0.2057
   70CHL1    H9 7624   0.129   0.852   7.690  2.8868 -1.7003  1.4527
   70CHL1   C10 7625   0.055   0.735   7.536  0.1109  0.3658 -0.4998
   70CHL1   C19 7626  -0.029   0.611   7.515  0.0993  0.2502 -0.2611
   70CHL1  H19A 7627   0.021   0.521   7.556 -1.1980 -0.2544  0.2222
   70CHL1  H19B 7628  -0.128   0.618   7.564  0.0461 -0.2050 -0.3062
   70CHL1  H19C 7629  -0.053   0.591   7.408  0.2069  0.4610 -0.3250
   70CHL1    C1 7630  -0.023   0.850   7.482  0.1301 -0.1514 -0.5408
   70CHL1   H1A 7631  -0.126   0.847   7.525  1.5878 -2.0846  3.0869
   70CHL1   H1B 7632   0.011   0.947   7.523 -1.2751 -1.0294  2.9192
   70CHL1    C2 7633  -0.031   0.866   7.329  0.0798  0.1882 -0.0849
   70CHL1   H2A 7634  -0.082   0.959   7.296  0.6561 -0.2882 -2.4020
   70CHL1   H2B 7635  -0.101   0.787   7.296  0.4701 -0.4872  0.6887
   70CHL1   C20 7636   0.025   0.653   8.244 -0.6099 -0.2457 -0.9667
   70CHL1   H20 7637  -0.016   0.549   8.238  0.9957 -1.1468  2.1426
   70CHL1   C21 7638  -0.084   0.761   8.249 -0.0284  0.1131 -0.7062
   70CHL1  H21A 7639  -0.153   0.756   8.336 -0.7852 -1.0581 -1.3615
   70CHL1  H21B 7640  -0.158   0.750   8.167 -1.8096 -2.6667  1.2049
   70CHL1  H21C 7641  -0.038   0.862   8.246  0.5187 -0.1487 -1.2278
   70CHL1   C22 7642   0.096   0.654   8.383 -0.2724 -0.3133  0.6290
   70CHL1  H22A 7643   0.173   0.575   8.371  0.2371  0.3234 -0.4118
   70CHL1  H22B 7644   0.135   0.758   8.392  0.9981 -0.5900 -1.3680
   70CHL1   C23 7645   0.006   0.608   8.498  0.0613 -0.6032  0.0122
   70CHL1  H23A 7646  -0.097   0.649   8.501 -0.6816 -2.4343  0.3618
   70CHL1  H23B 7647   0.004   0.497   8.502 -1.5986 -0.5952 -0.2175
   70CHL1   C24 7648   0.072   0.662   8.630 -0.0624 -0.3743 -0.5596
   70CHL1  H24A 7649   0.182   0.645   8.623  0.1576 -0.7379  2.9260
   70CHL1  H24B 7650   0.055   0.771   8.644 -1.4733 -0.9151  2.4622
   70CHL1   C25 7651   0.033   0.589   8.761  0.5286  0.0466  0.7368
   70CHL1   H25 7652  -0.073   0.611   8.783  1.2854  1.4077  3.1506
   70CHL1   C26 7653   0.052   0.440   8.754 -0.1899  0.0381  0.5571
   70CHL1  H26A 7654   0.159   0.421   8.730 -0.5242 -0.1780 -0.7773
   70CHL1  H26B 7655   0.016   0.396   8.849 -1.5198 -1.1886 -0.5123
   70CHL1  H26C 7656  -0.009   0.382   8.682  0.4493 -0.6109  0.5372
   70CHL1   C27 7657   0.122   0.650   8.871  0.2333 -0.1025  0.0817
   70CHL1  H27A 7658   0.093   0.606   8.968 -1.7342  2.1030  0.5348
   70CHL1  H27B 7659   0.231   0.650   8.851  0.4694 -1.4921  1.3043
   70CHL1  H27C 7660   0.090   0.756   8.881  1.2363  0.0504  1.6875
   71CHL1    C3 7661   6.653   3.433   6.711  0.3454  0.0222 -0.2413
   71CHL1    H3 7662   6.696   3.535   6.713 -2.6355  1.4034 -3.0987
   71CHL1    O3 7663   6.615   3.403   6.584 -0.2414  0.2320  0.2310
   71CHL1   H3' 7664   6.520   3.411   6.591 -0.3799 -1.1494  0.1487
   71CHL1    C4 7665   6.750   3.321   6.765  0.6710  0.6856 -0.3723
   71CHL1   H4A 7666   6.694   3.225   6.759  2.8529 -0.6053 -0.6242
   71CHL1   H4B 7667   6.843   3.316   6.704  0.7336  1.1908 -0.3173
   71CHL1    C5 7668   6.779   3.339   6.914 -0.1849 -0.0429 -0.0087
   71CHL1    C6 7669   6.908   3.358   6.949 -0.0466 -0.5320 -0.2958
   71CHL1    H6 7670   6.985   3.355   6.871 -0.5575 -0.2713 -0.8131
   71CHL1    C7 7671   6.955   3.368   7.093 -0.1910  0.7185 -1.0118
   71CHL1   H7A 7672   7.040   3.298   7.109  1.1461  2.0976 -1.8049
   71CHL1   H7B 7673   6.999   3.470   7.102  3.2117 -0.8908  2.0762
   71CHL1    C8 7674   6.837   3.347   7.190  0.6736 -0.0908 -0.1132
   71CHL1    H8 7675   6.834   3.236   7.195  0.8731 -0.0694  0.5895
   71CHL1   C14 7676   6.869   3.383   7.332 -0.6824  0.0528 -0.6766
   71CHL1   H14 7677   6.882   3.494   7.337 -2.0615  0.2119 -0.2674
   71CHL1   C15 7678   7.002   3.326   7.378  0.0833 -0.2533 -0.3827
   71CHL1  H15A 7679   7.019   3.225   7.335 -0.3139  0.4007 -2.1288
   71CHL1  H15B 7680   7.078   3.403   7.349 -1.7000  0.6176 -2.9010
   71CHL1   C16 7681   6.991   3.318   7.528  0.5159 -0.2676 -0.8222
   71CHL1  H16A 7682   6.997   3.212   7.561  2.0528  0.1415  0.2650
   71CHL1  H16B 7683   7.069   3.376   7.582 -0.9454  0.9132  0.0663
   71CHL1   C17 7684   6.848   3.377   7.561 -0.4226  0.2996  0.0562
   71CHL1   H17 7685   6.865   3.487   7.557 -0.4593  0.2842 -0.5010
   71CHL1   C13 7686   6.765   3.342   7.437  0.3944  0.3436  0.2774
   71CHL1   C18 7687   6.724   3.194   7.447 -0.1440  0.2826  0.1996
   71CHL1  H18A 7688   6.661   3.182   7.537 -0.2791  0.9536  0.2018
   71CHL1  H18B 7689   6.655   3.162   7.366 -0.7134 -1.7269  1.4501
   71CHL1  H18C 7690   6.813   3.130   7.464 -0.1223  0.1691 -0.3152
   71CHL1   C12 7691   6.641   3.428   7.400 -0.0341  0.3557  0.2236
   71CHL1  H12A 7692   6.551   3.400   7.458 -0.1569 -1.5661 -0.8523
   71CHL1  H12B 7693   6.669   3.534   7.416  2.7241 -0.3855  0.6464
   71CHL1   C11 7694   6.591   3.412   7.252 -0.4800  0.3757 -0.6227
   71CHL1  H11A 7695   6.536   3.316   7.254 -2.9225  1.7375  1.8769
   71CHL1  H11B 7696   6.499   3.472   7.235 -1.1932 -0.7422 -0.7675
   71CHL1    C9 7697   6.700   3.412   7.146 -0.7409  0.3652  0.6149
   71CHL1    H9 7698   6.733   3.518   7.137  1.3138 -0.3088 -0.3266
   71CHL1   C10 7699   6.652   3.356   7.005 -0.0542  0.0214  0.2729
   71CHL1   C19 7700   6.599   3.206   7.020 -1.2211  0.3518 -0.0027
   71CHL1  H19A 7701   6.502   3.203   7.073 -0.9787 -1.1660  0.3692
   71CHL1  H19B 7702   6.579   3.164   6.919  1.0376  1.0523 -0.7882
   71CHL1  H19C 7703   6.677   3.153   7.079 -2.5320  1.0258  2.3996
   71CHL1    C1 7704   6.550   3.454   6.945  0.3887  0.3883  0.1845
   71CHL1   H1A 7705   6.456   3.451   7.004  0.4385  0.2806  0.2594
   71CHL1   H1B 7706   6.604   3.549   6.964  1.0622  0.4795 -2.0285
   71CHL1    C2 7707   6.526   3.438   6.795  0.8363 -0.0375 -0.0335
   71CHL1   H2A 7708   6.463   3.526   6.767  2.4073  0.9273 -0.5986
   71CHL1   H2B 7709   6.465   3.347   6.776  2.4762 -1.0373 -0.6437
   71CHL1   C20 7710   6.800   3.344   7.705 -0.5192  0.3225  0.4597
   71CHL1   H20 7711   6.811   3.234   7.716  2.9064  0.4561 -0.8729
   71CHL1   C21 7712   6.657   3.401   7.718  0.1962 -0.2562  0.0687
   71CHL1  H21A 7713   6.663   3.507   7.686 -1.8782 -1.0137 -3.0772
   71CHL1  H21B 7714   6.624   3.393   7.824  0.0106 -0.2496  0.0129
   71CHL1  H21C 7715   6.579   3.350   7.658 -0.5763 -0.6997  1.4135
   71CHL1   C22 7716   6.900   3.412   7.807  0.0250 -0.2541 -0.4150
   71CHL1  H22A 7717   6.995   3.356   7.796  0.4518  0.2146  0.7671
   71CHL1  H22B 7718   6.925   3.515   7.774  0.6411 -0.5592 -0.9044
   71CHL1   C23 7719   6.859   3.432   7.959  0.4186  0.0658 -0.0457
   71CHL1  H23A 7720   6.770   3.498   7.956 -0.0870 -0.6674 -3.2938
   71CHL1  H23B 7721   6.837   3.334   8.007  1.9837  0.3048  1.1949
   71CHL1   C24 7722   6.954   3.502   8.061 -0.2502 -0.2412 -0.0110
   71CHL1  H24A 7723   7.041   3.439   8.088  1.2114  1.8108  0.1060
   71CHL1  H24B 7724   6.986   3.590   8.002  1.2779 -0.7978 -0.0170
   71CHL1   C25 7725   6.868   3.536   8.185  0.1068 -0.2567 -0.2819
   71CHL1   H25 7726   6.783   3.602   8.157 -0.4136 -0.7529  0.1082
   71CHL1   C26 7727   6.812   3.416   8.268  0.1291  0.4832  0.1143
   71CHL1  H26A 7728   6.750   3.345   8.209  0.0498  1.1827 -0.6527
   71CHL1  H26B 7729   6.894   3.364   8.322  0.4275 -0.7019 -1.4403
   71CHL1  H26C 7730   6.748   3.457   8.349  1.1203 -0.7122  1.5143
   71CHL1   C27 7731   6.956   3.618   8.291 -0.5938  0.6716 -0.1844
   71CHL1  H27A 7732   6.888   3.691   8.340  0.0411  0.2755  1.3286
   71CHL1  H27B 7733   7.008   3.547   8.358 -0.1748  1.0146 -0.1422
   71CHL1  H27C 7734   7.037   3.667   8.233  2.0478 -0.4103  2.4159
   72CHL1    C3 7735   6.793   1.579   7.068 -0.1392 -0.0901  0.8575
   72CHL1    H3 7736   6.713   1.648   7.034 -1.1593 -2.2876 -1.3489
   72CHL1    O3 7737   6.838   1.515   6.950  0.5541  0.2480  0.0973
   72CHL1   H3' 7738   6.918   1.469   6.976  1.0026 -0.0489 -1.7403
   72CHL1    C4 7739   6.911   1.655   7.127  0.1766 -0.4915  0.3919
   72CHL1   H4A 7740   6.995   1.584   7.139  0.1167 -0.6388 -0.0523
   72CHL1   H4B 7741   6.945   1.731   7.053 -1.7092 -1.0692 -1.1164
   72CHL1    C5 7742   6.873   1.700   7.268  0.0286 -0.2491 -0.0838
   72CHL1    C6 7743   6.886   1.826   7.302 -0.3704 -0.0497 -0.3263
   72CHL1    H6 7744   6.922   1.896   7.226  0.1752 -1.2010 -1.1554
   72CHL1    C7 7745   6.871   1.888   7.442  0.1461  0.0688 -0.4749
   72CHL1   H7A 7746   6.958   1.948   7.475 -2.3859  2.5464  2.0235
   72CHL1   H7B 7747   6.776   1.947   7.445 -1.7141 -2.7704 -1.6092
   72CHL1    C8 7748   6.850   1.779   7.552 -0.4821 -0.3083  0.8093
   72CHL1    H8 7749   6.946   1.729   7.574 -0.1784  0.4215  1.1759
   72CHL1   C14 7750   6.800   1.825   7.684 -0.0534 -0.3029  0.5364
   72CHL1   H14 7751   6.695   1.849   7.657 -0.8784 -1.4183  2.6627
   72CHL1   C15 7752   6.873   1.952   7.734 -0.0637  0.4645  0.0418
   72CHL1  H15A 7753   6.982   1.945   7.712  0.1953 -2.5120  1.8895
   72CHL1  H15B 7754   6.840   2.040   7.676 -0.4874 -0.4871 -1.1808
   72CHL1   C16 7755   6.845   1.938   7.887 -0.2705 -0.5110 -0.1595
   72CHL1  H16A 7756   6.943   1.919   7.935  0.2250 -2.5309 -1.8797
   72CHL1  H16B 7757   6.799   2.025   7.939  2.1448  0.1377  0.9453
   72CHL1   C17 7758   6.762   1.808   7.913  0.0162  0.0532  0.5251
   72CHL1   H17 7759   6.654   1.824   7.893  0.0136 -0.0162  0.4853
   72CHL1   C13 7760   6.801   1.719   7.795  0.2957 -0.0196  0.8118
   72CHL1   C18 7761   6.934   1.648   7.827 -0.0985 -0.9844 -0.0532
   72CHL1  H18A 7762   7.002   1.724   7.870 -0.1078 -1.1009  0.1656
   72CHL1  H18B 7763   6.927   1.570   7.906 -0.8494  0.3217  1.1883
   72CHL1  H18C 7764   6.996   1.607   7.744 -0.3310 -2.6223  0.5577
   72CHL1   C12 7765   6.691   1.611   7.742 -0.5624 -0.0001 -0.1702
   72CHL1  H12A 7766   6.683   1.525   7.811  2.1051  0.1324  0.3335
   72CHL1  H12B 7767   6.595   1.667   7.738  0.2850  1.4395 -0.7850
   72CHL1   C11 7768   6.726   1.548   7.605  0.0145 -0.4087  0.4776
   72CHL1  H11A 7769   6.807   1.475   7.627 -0.5921 -1.2693 -0.1032
   72CHL1  H11B 7770   6.640   1.484   7.573 -0.7024 -0.1118  1.7646
   72CHL1    C9 7771   6.760   1.661   7.494  0.4661  0.1663 -0.6251
   72CHL1    H9 7772   6.666   1.715   7.467  2.2218  2.2958 -2.7443
   72CHL1   C10 7773   6.825   1.599   7.365  0.1467 -0.2258 -0.0332
   72CHL1   C19 7774   6.942   1.496   7.400  0.4721  0.0350 -0.3768
   72CHL1  H19A 7775   7.011   1.547   7.471 -0.3958  2.4550 -1.2092
   72CHL1  H19B 7776   6.884   1.414   7.449  1.0893 -0.0052  0.2922
   72CHL1  H19C 7777   6.982   1.439   7.314  1.5926  0.1429  0.0728
   72CHL1    C1 7778   6.708   1.520   7.297 -0.0731  0.0419  1.0304
   72CHL1   H1A 7779   6.673   1.434   7.358  1.1364 -2.0622 -1.1625
   72CHL1   H1B 7780   6.626   1.592   7.277  2.0920  2.0747 -0.8258
   72CHL1    C2 7781   6.742   1.472   7.154 -0.1641  0.5334 -1.2842
   72CHL1   H2A 7782   6.651   1.433   7.103 -0.8667 -0.3229  0.5727
   72CHL1   H2B 7783   6.814   1.390   7.175  1.5617  1.8615 -1.9451
   72CHL1   C20 7784   6.778   1.751   8.055  0.2842  1.0447 -0.7451
   72CHL1   H20 7785   6.882   1.712   8.064 -0.0713  0.0193 -1.0746
   72CHL1   C21 7786   6.704   1.623   8.094 -0.1374 -0.5054 -0.5082
   72CHL1  H21A 7787   6.711   1.606   8.203  0.9009 -0.7545 -0.6160
   72CHL1  H21B 7788   6.740   1.531   8.044 -0.5553 -0.6322 -0.5847
   72CHL1  H21C 7789   6.599   1.630   8.056  0.2267  0.8448 -1.2922
   72CHL1   C22 7790   6.763   1.861   8.163 -0.7143 -0.4087  0.0174
   72CHL1  H22A 7791   6.796   1.837   8.267 -1.2605 -0.3425  0.2080
   72CHL1  H22B 7792   6.832   1.944   8.137 -0.9891 -0.4818 -0.9623
   72CHL1   C23 7793   6.618   1.925   8.186 -0.2884  0.0859  0.9715
   72CHL1  H23A 7794   6.576   1.966   8.091 -1.5635 -1.6718  0.7429
   72CHL1  H23B 7795   6.555   1.838   8.215 -0.1576  0.0924  1.2757
   72CHL1   C24 7796   6.618   2.033   8.304 -0.0700  0.9198 -0.0823
   72CHL1  H24A 7797   6.647   1.979   8.397  0.2020 -2.4087 -2.0540
   72CHL1  H24B 7798   6.694   2.111   8.282 -1.5386  2.1821 -0.8220
   72CHL1   C25 7799   6.490   2.105   8.335  0.1505  0.1288  0.2300
   72CHL1   H25 7800   6.466   2.175   8.252  1.0524  2.9580  2.2727
   72CHL1   C26 7801   6.380   2.003   8.364 -0.8518  1.0283 -0.0400
   72CHL1  H26A 7802   6.409   1.939   8.450 -0.0691  2.2428  0.6118
   72CHL1  H26B 7803   6.290   2.061   8.395  1.3241  3.9816  1.0072
   72CHL1  H26C 7804   6.353   1.953   8.269 -0.5287  0.0302  0.3893
   72CHL1   C27 7805   6.517   2.190   8.462 -0.0068  0.2176 -0.1731
   72CHL1  H27A 7806   6.592   2.272   8.455  0.1389  0.1337  0.4392
   72CHL1  H27B 7807   6.425   2.244   8.493  0.3095 -0.2061  1.5228
   72CHL1  H27C 7808   6.557   2.124   8.541 -0.3996 -1.1514 -1.1104
   73CHL1    C3 7809   6.727   4.551   6.920  0.2480 -0.0592 -0.2394
   73CHL1    H3 7810   6.737   4.660   6.940 -0.9216  0.0956 -0.4414
   73CHL1    O3 7811   6.721   4.537   6.781  0.0853  0.0694  0.2858
   73CHL1   H3' 7812   6.695   4.447   6.759 -2.2505  1.4151 -2.6965
   73CHL1    C4 7813   6.843   4.467   6.975 -0.2496  0.3410 -0.8175
   73CHL1   H4A 7814   6.833   4.361   6.943  1.5883  0.4529 -1.8711
   73CHL1   H4B 7815   6.933   4.502   6.920 -0.8632  0.0771 -2.0041
   73CHL1    C5 7816   6.852   4.478   7.124 -0.0160  0.1387  0.9929
   73CHL1    C6 7817   6.962   4.523   7.180 -0.2645 -0.1539 -0.3323
   73CHL1    H6 7818   7.049   4.533   7.113  0.0832 -0.2312  0.1044
   73CHL1    C7 7819   6.989   4.546   7.325  0.3733 -0.4129  0.7458
   73CHL1   H7A 7820   7.086   4.506   7.361 -0.5800  0.0943  3.9879
   73CHL1   H7B 7821   6.990   4.654   7.351  2.3104  0.1837 -1.5515
   73CHL1    C8 7822   6.877   4.468   7.411 -0.4195 -0.4242 -0.0388
   73CHL1    H8 7823   6.908   4.362   7.407 -0.5685 -0.5052  0.9067
   73CHL1   C14 7824   6.878   4.525   7.552  0.8453 -0.5395 -0.1894
   73CHL1   H14 7825   6.847   4.631   7.545  0.1245 -0.7230  0.2024
   73CHL1   C15 7826   7.012   4.533   7.627 -0.0694  0.1417 -0.3212
   73CHL1  H15A 7827   7.060   4.433   7.622 -3.3798 -1.4426 -1.3743
   73CHL1  H15B 7828   7.078   4.607   7.578  0.6158 -0.3109 -0.0902
   73CHL1   C16 7829   6.980   4.561   7.775 -0.2881 -0.0291  0.1979
   73CHL1  H16A 7830   7.030   4.496   7.850  2.1857 -0.6986 -1.9730
   73CHL1  H16B 7831   7.007   4.661   7.815 -1.3953 -0.7439  2.8544
   73CHL1   C17 7832   6.827   4.540   7.780  0.3758  0.0434 -0.2799
   73CHL1   H17 7833   6.790   4.643   7.761 -0.5482  0.1338  1.8134
   73CHL1   C13 7834   6.783   4.459   7.655 -0.3982 -0.7151  0.5479
   73CHL1   C18 7835   6.816   4.310   7.667  0.1670 -1.0507  0.4570
   73CHL1  H18A 7836   6.916   4.285   7.706  0.3322  0.8754  1.3290
   73CHL1  H18B 7837   6.767   4.264   7.755 -0.1921 -0.4383  0.5770
   73CHL1  H18C 7838   6.797   4.247   7.577  1.7655 -1.7783  0.6110
   73CHL1   C12 7839   6.641   4.484   7.594  0.6185 -0.2302  0.5807
   73CHL1  H12A 7840   6.565   4.434   7.658 -0.1001 -0.1158 -0.1855
   73CHL1  H12B 7841   6.629   4.593   7.607  0.5935  0.4159 -4.0851
   73CHL1   C11 7842   6.621   4.445   7.443  0.3066  0.1256  1.1028
   73CHL1  H11A 7843   6.612   4.334   7.445  0.6944  0.0891  0.8686
   73CHL1  H11B 7844   6.528   4.491   7.403  0.7666  0.8695  0.8755
   73CHL1    C9 7845   6.735   4.494   7.347  0.4750 -0.0560 -0.0889
   73CHL1    H9 7846   6.725   4.604   7.350  2.3521  0.1665 -1.1157
   73CHL1   C10 7847   6.720   4.453   7.199 -0.0155 -0.7268  0.0964
   73CHL1   C19 7848   6.697   4.305   7.189  0.6546 -0.0753 -0.5351
   73CHL1  H19A 7849   6.602   4.267   7.234  0.1544 -0.0288 -1.5300
   73CHL1  H19B 7850   6.711   4.262   7.088  0.8193 -0.9418 -0.1511
   73CHL1  H19C 7851   6.784   4.267   7.246  0.5460 -2.7933 -2.1094
   73CHL1    C1 7852   6.602   4.541   7.134  0.2134  0.7046 -0.3181
   73CHL1   H1A 7853   6.505   4.522   7.185  1.0134 -0.5607  0.7603
   73CHL1   H1B 7854   6.618   4.650   7.148 -1.1615  0.7654  0.9330
   73CHL1    C2 7855   6.594   4.513   6.982 -1.1123  0.0598 -0.4381
   73CHL1   H2A 7856   6.512   4.575   6.940 -0.3547  2.6526  1.8195
   73CHL1   H2B 7857   6.577   4.403   6.975 -1.7521  0.1258 -0.0282
   73CHL1   C20 7858   6.759   4.498   7.908  0.3975  0.0688  0.2144
   73CHL1   H20 7859   6.721   4.395   7.893 -0.3014  0.4274 -0.5309
   73CHL1   C21 7860   6.634   4.589   7.930 -0.1062 -0.0154 -0.8384
   73CHL1  H21A 7861   6.572   4.589   7.838 -2.5862  1.0257  0.8023
   73CHL1  H21B 7862   6.675   4.680   7.979  0.2985 -0.0077 -1.1785
   73CHL1  H21C 7863   6.573   4.541   8.009 -0.1437  0.8672 -0.3275
   73CHL1   C22 7864   6.848   4.493   8.030 -0.4386 -0.7052  0.4631
   73CHL1  H22A 7865   6.928   4.416   8.019 -1.2533 -1.4477 -0.3779
   73CHL1  H22B 7866   6.895   4.592   8.051  1.4814 -1.3327 -0.6658
   73CHL1   C23 7867   6.771   4.473   8.165  0.6722 -0.5898  0.0499
   73CHL1  H23A 7868   6.689   4.547   8.178 -0.6032 -1.8971 -0.4248
   73CHL1  H23B 7869   6.730   4.370   8.162 -0.3174 -0.2234  0.7778
   73CHL1   C24 7870   6.869   4.494   8.280  0.5276 -0.8294  0.3932
   73CHL1  H24A 7871   6.938   4.409   8.300  0.9364 -0.4981  0.3987
   73CHL1  H24B 7872   6.926   4.584   8.248 -0.8647  0.1409  0.6005
   73CHL1   C25 7873   6.795   4.532   8.408 -0.0135 -0.5725 -0.9321
   73CHL1   H25 7874   6.744   4.630   8.393 -0.8647 -0.2589  3.2714
   73CHL1   C26 7875   6.693   4.431   8.456  0.1580  0.7303 -0.4472
   73CHL1  H26A 7876   6.640   4.395   8.366 -0.0607 -1.6033  0.5721
   73CHL1  H26B 7877   6.748   4.342   8.495 -0.3424  0.7349  0.2760
   73CHL1  H26C 7878   6.615   4.459   8.529  0.8007  1.5256 -0.0520
   73CHL1   C27 7879   6.906   4.567   8.513  0.4618 -0.0212  0.0054
   73CHL1  H27A 7880   6.979   4.634   8.464 -1.2174  0.1501 -2.3493
   73CHL1  H27B 7881   6.874   4.605   8.613 -2.3911  0.9904 -1.2409
   73CHL1  H27C 7882   6.948   4.469   8.545  0.1504  0.4424  1.8719
   74CHL1    C3 7883   5.460   3.551   6.957 -0.0257  0.5134 -0.1502
   74CHL1    H3 7884   5.412   3.635   7.011  2.5059  1.2608  1.0199
   74CHL1    O3 7885   5.424   3.567   6.818 -0.8285 -0.1337 -0.4513
   74CHL1   H3' 7886   5.444   3.489   6.765 -2.6558  0.8824 -2.7372
   74CHL1    C4 7887   5.619   3.553   6.970 -0.9998 -0.2822 -0.4758
   74CHL1   H4A 7888   5.668   3.481   6.901 -0.5503  0.0458 -0.5039
   74CHL1   H4B 7889   5.656   3.648   6.925 -1.7306  0.0996 -0.2672
   74CHL1    C5 7890   5.654   3.531   7.114 -0.0072 -0.3252  0.3515
   74CHL1    C6 7891   5.724   3.622   7.179 -0.5866  0.2236 -1.2659
   74CHL1    H6 7892   5.757   3.710   7.123 -1.3449  0.4742 -1.3268
   74CHL1    C7 7893   5.772   3.603   7.323 -0.2076 -0.6110 -0.4762
   74CHL1   H7A 7894   5.883   3.615   7.330 -0.1067 -0.3177 -2.3486
   74CHL1   H7B 7895   5.723   3.674   7.393 -0.1845 -1.0499 -0.0080
   74CHL1    C8 7896   5.767   3.453   7.371 -0.4522  0.2412  0.2708
   74CHL1    H8 7897   5.858   3.402   7.332 -1.3189 -0.9203 -0.2734
   74CHL1   C14 7898   5.782   3.444   7.524 -0.1026 -0.4013  0.0558
   74CHL1   H14 7899   5.695   3.501   7.564 -3.2154 -2.9172 -2.8971
   74CHL1   C15 7900   5.918   3.491   7.595  0.1931 -0.1277  0.1500
   74CHL1  H15A 7901   5.996   3.457   7.523 -0.6532 -3.6226  0.7921
   74CHL1  H15B 7902   5.919   3.600   7.615 -0.0266  0.1716 -1.3680
   74CHL1   C16 7903   5.921   3.416   7.732  0.4628  0.2704 -0.5848
   74CHL1  H16A 7904   6.017   3.360   7.723 -0.3806 -1.6073  1.5249
   74CHL1  H16B 7905   5.927   3.485   7.818  3.8193  2.3969 -2.3950
   74CHL1   C17 7906   5.789   3.330   7.731 -0.5506  0.3634 -0.3792
   74CHL1   H17 7907   5.719   3.400   7.781 -1.1125  0.7561 -1.6680
   74CHL1   C13 7908   5.760   3.303   7.582 -0.6182  0.7150  0.0977
   74CHL1   C18 7909   5.857   3.200   7.525  0.4738  0.1598  0.2325
   74CHL1  H18A 7910   5.965   3.223   7.542  0.4589 -0.5927  1.4267
   74CHL1  H18B 7911   5.833   3.102   7.572 -0.3239  1.0125  1.6236
   74CHL1  H18C 7912   5.829   3.190   7.418 -0.0545 -2.2388  0.5562
   74CHL1   C12 7913   5.615   3.258   7.543  0.1581  0.4249  0.3818
   74CHL1  H12A 7914   5.618   3.150   7.569  1.8889  0.3151 -0.2299
   74CHL1  H12B 7915   5.552   3.311   7.618  0.3198  0.7985  0.2514
   74CHL1   C11 7916   5.584   3.266   7.396  0.0950 -0.9850  0.0230
   74CHL1  H11A 7917   5.620   3.178   7.340 -0.9844 -1.8801  0.7105
   74CHL1  H11B 7918   5.475   3.271   7.376 -0.2547 -0.0209  2.0115
   74CHL1    C9 7919   5.630   3.397   7.322  1.0637  0.6709 -0.1719
   74CHL1    H9 7920   5.570   3.476   7.372 -2.5820 -2.6261  0.9318
   74CHL1   C10 7921   5.603   3.401   7.167 -0.2514  0.3264  0.0314
   74CHL1   C19 7922   5.680   3.286   7.093 -0.4443  0.2292 -0.1757
   74CHL1  H19A 7923   5.628   3.190   7.116 -0.3139  0.4353  1.0175
   74CHL1  H19B 7924   5.685   3.294   6.983  1.7667 -2.5586 -0.3507
   74CHL1  H19C 7925   5.784   3.289   7.131 -0.1533  1.5815 -1.0781
   74CHL1    C1 7926   5.450   3.382   7.152  0.2280 -0.1234 -0.3329
   74CHL1   H1A 7927   5.414   3.281   7.181 -1.6681  0.6679  0.1423
   74CHL1   H1B 7928   5.411   3.459   7.222  1.3299  1.6503 -1.6194
   74CHL1    C2 7929   5.402   3.420   7.010 -0.2306  1.0747 -0.0020
   74CHL1   H2A 7930   5.292   3.420   7.003 -0.4140  0.2027  2.3076
   74CHL1   H2B 7931   5.428   3.347   6.930 -0.8839  0.8383  0.0059
   74CHL1   C20 7932   5.815   3.209   7.829 -0.0646 -0.0492 -0.1199
   74CHL1   H20 7933   5.880   3.131   7.783  1.6204  0.4129  1.3941
   74CHL1   C21 7934   5.679   3.136   7.841  0.1035 -0.5434  0.4577
   74CHL1  H21A 7935   5.661   3.086   7.744  1.9919  0.1577 -0.2736
   74CHL1  H21B 7936   5.588   3.193   7.869 -0.2637 -2.1971  2.7829
   74CHL1  H21C 7937   5.687   3.048   7.909 -0.5582 -1.0964 -0.1812
   74CHL1   C22 7938   5.863   3.252   7.972 -0.4150  0.0601  0.4918
   74CHL1  H22A 7939   5.895   3.161   8.028  2.2494  1.3050  1.0409
   74CHL1  H22B 7940   5.956   3.312   7.963 -1.3439  1.3519 -0.6127
   74CHL1   C23 7941   5.762   3.325   8.062 -0.2547 -0.2369  0.3009
   74CHL1  H23A 7942   5.737   3.424   8.019 -0.5144 -0.1493  0.6524
   74CHL1  H23B 7943   5.661   3.279   8.054 -0.2010 -0.3133  0.0714
   74CHL1   C24 7944   5.807   3.341   8.208 -0.7029 -0.1342 -0.3992
   74CHL1  H24A 7945   5.910   3.380   8.217 -1.5717  1.8820  1.2990
   74CHL1  H24B 7946   5.720   3.391   8.257 -1.0870  1.1731 -2.3566
   74CHL1   C25 7947   5.816   3.206   8.287  1.0635  0.0092 -0.6058
   74CHL1   H25 7948   5.900   3.144   8.251  0.3218 -2.0963  1.2052
   74CHL1   C26 7949   5.834   3.238   8.438 -0.5641 -0.1553  0.8927
   74CHL1  H26A 7950   5.936   3.277   8.458 -0.0702 -1.3378  0.6840
   74CHL1  H26B 7951   5.771   3.325   8.467  0.2948  0.9131 -0.4126
   74CHL1  H26C 7952   5.826   3.148   8.502 -1.6032 -1.5889 -1.2203
   74CHL1   C27 7953   5.686   3.126   8.269 -0.5176 -0.2240 -0.3957
   74CHL1  H27A 7954   5.597   3.192   8.281 -0.5753 -0.5557  1.1378
   74CHL1  H27B 7955   5.699   3.082   8.168  1.2167 -1.3493  0.2927
   74CHL1  H27C 7956   5.672   3.034   8.330 -1.0240 -0.0516 -0.2499
   75CHL1    C3 7957   2.197   5.208   6.829  0.5055  0.1762 -0.5245
   75CHL1    H3 7958   2.282   5.280   6.837  1.2601 -0.8683  1.0085
   75CHL1    O3 7959   2.148   5.197   6.696 -0.3461 -0.1065  0.1168
   75CHL1   H3' 7960   2.160   5.288   6.668  2.6941  0.1249  1.9943
   75CHL1    C4 7961   2.239   5.068   6.870  0.3719  0.2083 -0.1601
   75CHL1   H4A 7962   2.151   5.001   6.858  0.6674  0.1415 -2.2214
   75CHL1   H4B 7963   2.323   5.044   6.800  0.6171  0.6102 -0.0059
   75CHL1    C5 7964   2.279   5.067   7.014 -0.5030  0.5430  0.1055
   75CHL1    C6 7965   2.406   5.042   7.048 -0.0664  0.1106  0.6408
   75CHL1    H6 7966   2.476   5.015   6.967 -0.5367  0.0986  0.2332
   75CHL1    C7 7967   2.456   5.033   7.188 -0.2852  0.0012 -0.0401
   75CHL1   H7A 7968   2.533   4.955   7.203  1.6983  1.9878  0.4552
   75CHL1   H7B 7969   2.506   5.129   7.213  0.7325 -0.5356  0.0111
   75CHL1    C8 7970   2.343   5.018   7.299 -0.2269 -0.2412  0.1718
   75CHL1    H8 7971   2.307   4.913   7.289  1.7284 -0.7939 -1.3167
   75CHL1   C14 7972   2.393   5.039   7.439 -0.1315  0.0464 -0.0931
   75CHL1   H14 7973   2.436   5.142   7.439 -1.2000  0.4957  0.4469
   75CHL1   C15 7974   2.500   4.942   7.492  0.2938 -0.5665 -0.6395
   75CHL1  H15A 7975   2.485   4.836   7.463  0.0483 -0.2906 -1.5439
   75CHL1  H15B 7976   2.602   4.970   7.459 -0.5206  2.2156 -0.9586
   75CHL1   C16 7977   2.503   4.974   7.646 -0.4991  0.2589 -0.5468
   75CHL1  H16A 7978   2.484   4.878   7.699  1.7848  0.4379  0.6410
   75CHL1  H16B 7979   2.591   5.035   7.676 -1.6552  1.6191  0.1587
   75CHL1   C17 7980   2.384   5.074   7.670 -0.0747  0.4781 -0.0394
   75CHL1   H17 7981   2.417   5.179   7.658 -0.7528  0.5559 -1.2812
   75CHL1   C13 7982   2.288   5.047   7.547  0.2704 -0.6798 -0.8861
   75CHL1   C18 7983   2.215   4.910   7.567 -0.2420 -0.5226 -0.3154
   75CHL1  H18A 7984   2.294   4.842   7.604  0.6624 -0.5788 -2.2841
   75CHL1  H18B 7985   2.147   4.917   7.654  2.1122  1.0736  1.4753
   75CHL1  H18C 7986   2.155   4.874   7.481  0.0492  1.3052 -1.3237
   75CHL1   C12 7987   2.191   5.168   7.512  0.3203 -1.0050  0.2166
   75CHL1  H12A 7988   2.111   5.177   7.588  0.6463 -2.5358  0.7538
   75CHL1  H12B 7989   2.260   5.255   7.504 -1.1582  0.0575 -1.2328
   75CHL1   C11 7990   2.126   5.141   7.375 -0.3807 -0.2522 -0.2292
   75CHL1  H11A 7991   2.063   5.052   7.392  2.1082 -2.4059 -1.9270
   75CHL1  H11B 7992   2.059   5.225   7.347 -1.7016 -0.7354  1.3867
   75CHL1    C9 7993   2.230   5.115   7.268 -0.2932 -0.1433  0.7105
   75CHL1    H9 7994   2.292   5.207   7.273 -0.0670 -0.3082  1.0003
   75CHL1   C10 7995   2.176   5.117   7.123 -0.0978  0.0983  0.0986
   75CHL1   C19 7996   2.069   5.002   7.118  0.3529  0.1534 -0.2336
   75CHL1  H19A 7997   2.119   4.905   7.141 -1.2860  0.1426  3.6521
   75CHL1  H19B 7998   1.999   5.001   7.204  0.3072  0.8393 -0.2618
   75CHL1  H19C 7999   2.010   4.999   7.024  1.0783  2.4188 -0.7823
   75CHL1    C1 8000   2.127   5.253   7.073 -0.0295  0.8081 -0.3488
   75CHL1   H1A 8001   2.049   5.300   7.137 -1.5405  1.0331 -2.3371
   75CHL1   H1B 8002   2.216   5.320   7.080 -0.0068  0.7201  0.2076
   75CHL1    C2 8003   2.087   5.259   6.925  0.2119 -0.0834 -0.3304
   75CHL1   H2A 8004   2.073   5.368   6.908 -0.6889 -0.3199 -1.1046
   75CHL1   H2B 8005   1.990   5.207   6.918 -1.0049  2.1452 -0.3023
   75CHL1   C20 8006   2.329   5.063   7.817 -0.3160 -0.1561  0.4473
   75CHL1   H20 8007   2.281   4.964   7.827  0.4327 -0.5516  0.1355
   75CHL1   C21 8008   2.223   5.173   7.828  0.2703  0.4186  0.9534
   75CHL1  H21A 8009   2.194   5.188   7.935  1.3077 -0.6726  1.4035
   75CHL1  H21B 8010   2.134   5.132   7.775  0.4783  0.7280  0.3745
   75CHL1  H21C 8011   2.248   5.268   7.777  1.8312 -1.5444 -2.0730
   75CHL1   C22 8012   2.438   5.087   7.927  0.1038 -0.5172 -0.1245
   75CHL1  H22A 8013   2.525   5.020   7.907  0.6300 -0.4366  1.8575
   75CHL1  H22B 8014   2.468   5.193   7.924 -0.3995 -0.3083  1.7153
   75CHL1   C23 8015   2.387   5.058   8.074 -0.0247  0.3022  0.6498
   75CHL1  H23A 8016   2.299   5.124   8.085  1.6437  3.0905 -1.9473
   75CHL1  H23B 8017   2.348   4.954   8.071  1.1666 -0.1085 -3.1130
   75CHL1   C24 8018   2.488   5.080   8.186 -0.3798 -0.0749 -0.5736
   75CHL1  H24A 8019   2.580   5.020   8.167  0.0279  0.6162 -0.7780
   75CHL1  H24B 8020   2.515   5.188   8.190 -1.6288  0.2722 -1.4463
   75CHL1   C25 8021   2.433   5.027   8.319 -0.1422  0.8990 -0.6678
   75CHL1   H25 8022   2.326   5.058   8.320 -0.8723 -1.3574 -2.7637
   75CHL1   C26 8023   2.453   4.878   8.327  0.4246 -0.1073 -0.1876
   75CHL1  H26A 8024   2.558   4.854   8.303  0.4637  0.4053 -0.5233
   75CHL1  H26B 8025   2.419   4.846   8.428 -2.7061  0.8680 -0.8741
   75CHL1  H26C 8026   2.392   4.835   8.245 -0.0144 -0.0292  0.0933
   75CHL1   C27 8027   2.501   5.087   8.442 -0.0348 -0.1618 -0.1563
   75CHL1  H27A 8028   2.467   5.034   8.534 -1.2882  1.4128  0.3225
   75CHL1  H27B 8029   2.612   5.096   8.436 -0.0060 -0.3460  0.0938
   75CHL1  H27C 8030   2.470   5.193   8.457 -0.3070 -0.4306  1.2541
   76CHL1    C3 8031   6.341   0.300   7.293  0.1051 -0.4474 -0.0041
   76CHL1    H3 8032   6.338   0.409   7.310  1.1115 -0.3368 -0.4607
   76CHL1    O3 8033   6.351   0.276   7.150  0.6689  0.0706  0.3481
   76CHL1   H3' 8034   6.368   0.181   7.144 -0.0234  0.0422 -1.3118
   76CHL1    C4 8035   6.459   0.234   7.361 -0.0852 -0.4079  0.6937
   76CHL1   H4A 8036   6.468   0.128   7.328 -3.4340 -0.3007 -0.7716
   76CHL1   H4B 8037   6.554   0.277   7.323  1.1686 -2.2753  1.6411
   76CHL1    C5 8038   6.457   0.240   7.510 -0.7227 -0.1976 -0.3490
   76CHL1    C6 8039   6.551   0.290   7.584 -0.4369  0.2094  0.2455
   76CHL1    H6 8040   6.640   0.336   7.537 -1.2703  0.7761 -0.7914
   76CHL1    C7 8041   6.555   0.296   7.736  0.2126  0.6493 -0.4316
   76CHL1   H7A 8042   6.652   0.260   7.776 -0.3963 -3.3716 -2.2685
   76CHL1   H7B 8043   6.529   0.396   7.776 -0.0286 -0.5034  2.3972
   76CHL1    C8 8044   6.447   0.208   7.806 -0.1240 -0.1337  0.0238
   76CHL1    H8 8045   6.488   0.105   7.801  1.3047  0.2653  3.0407
   76CHL1   C14 8046   6.429   0.234   7.951 -0.2913 -0.7694 -0.5265
   76CHL1   H14 8047   6.381   0.334   7.947 -0.4966 -0.8055  0.7631
   76CHL1   C15 8048   6.547   0.241   8.050 -0.2614 -0.2076  0.3539
   76CHL1  H15A 8049   6.616   0.158   8.023 -0.4753  0.0503 -1.0586
   76CHL1  H15B 8050   6.598   0.340   8.049  0.7973 -0.7366 -1.1666
   76CHL1   C16 8051   6.482   0.215   8.184  0.2628  0.0469  0.4117
   76CHL1  H16A 8052   6.530   0.122   8.221  0.6533  0.6357  1.4041
   76CHL1  H16B 8053   6.495   0.303   8.251 -0.4790  0.6701 -0.2523
   76CHL1   C17 8054   6.326   0.206   8.164  0.0083 -0.1396  0.2438
   76CHL1   H17 8055   6.294   0.312   8.150  0.5294 -0.1698 -1.3274
   76CHL1   C13 8056   6.318   0.147   8.016 -0.4732 -0.4346  0.7854
   76CHL1   C18 8057   6.358  -0.004   8.019 -0.4384  0.0880  0.1952
   76CHL1  H18A 8058   6.267  -0.060   8.053 -1.4923  2.2582  1.0156
   76CHL1  H18B 8059   6.390  -0.040   7.919  2.2456 -1.1779  1.4724
   76CHL1  H18C 8060   6.445  -0.021   8.086 -0.8471 -0.0828  0.6833
   76CHL1   C12 8061   6.184   0.164   7.948  0.4252  0.8525 -0.6252
   76CHL1  H12A 8062   6.110   0.092   7.991  1.1656  1.3006  1.4774
   76CHL1  H12B 8063   6.149   0.269   7.954  1.8133  1.2265  1.9839
   76CHL1   C11 8064   6.196   0.130   7.794 -0.5481 -0.8340 -0.2669
   76CHL1  H11A 8065   6.206   0.020   7.783 -2.7142 -1.2386  1.5154
   76CHL1  H11B 8066   6.097   0.145   7.747 -1.0825 -2.5640  0.2676
   76CHL1    C9 8067   6.318   0.212   7.723  0.1122  0.2600 -0.2655
   76CHL1    H9 8068   6.278   0.315   7.729  0.9868  0.5750  0.1856
   76CHL1   C10 8069   6.327   0.185   7.568  0.1602  0.9040  0.0084
   76CHL1   C19 8070   6.324   0.025   7.540  0.2651  0.1847  0.6889
   76CHL1  H19A 8071   6.342   0.008   7.432  0.0845  0.6982  0.5770
   76CHL1  H19B 8072   6.392  -0.034   7.606 -0.0042 -0.8320  0.0687
   76CHL1  H19C 8073   6.224  -0.019   7.559  0.1406  0.1194 -0.1151
   76CHL1    C1 8074   6.205   0.248   7.493 -0.3689  0.1515 -0.2612
   76CHL1   H1A 8075   6.115   0.188   7.517  0.3807  0.1278  2.7407
   76CHL1   H1B 8076   6.186   0.350   7.531 -0.6012  0.0606 -0.1343
   76CHL1    C2 8077   6.209   0.245   7.344 -0.1236  0.8563  0.3233
   76CHL1   H2A 8078   6.123   0.306   7.310 -1.0612 -0.2420  0.6859
   76CHL1   H2B 8079   6.197   0.138   7.315  1.3394  1.3276 -2.1028
   76CHL1   C20 8080   6.239   0.139   8.276  0.3422 -0.2564  0.8188
   76CHL1   H20 8081   6.168   0.069   8.226  1.6811 -1.3919  0.4729
   76CHL1   C21 8082   6.168   0.252   8.347  0.1944  0.4071 -0.5689
   76CHL1  H21A 8083   6.102   0.307   8.277  1.6707  0.5416 -1.8814
   76CHL1  H21B 8084   6.238   0.327   8.389 -2.1868  2.1096  0.4847
   76CHL1  H21C 8085   6.101   0.213   8.427 -1.0485 -1.2523 -2.3860
   76CHL1   C22 8086   6.324   0.049   8.372 -0.6574 -0.5579 -0.9716
   76CHL1  H22A 8087   6.368  -0.043   8.328  1.8420  0.4996 -0.7597
   76CHL1  H22B 8088   6.417   0.104   8.398 -1.5509 -0.6787  2.7480
   76CHL1   C23 8089   6.259   0.006   8.500 -0.2144  0.3919 -0.0661
   76CHL1  H23A 8090   6.231   0.097   8.557  0.8753  1.4841 -1.2507
   76CHL1  H23B 8091   6.173  -0.060   8.474  0.3708  0.6665 -2.8613
   76CHL1   C24 8092   6.350  -0.080   8.590 -0.1948  0.5370  0.2383
   76CHL1  H24A 8093   6.339  -0.187   8.562  0.2512 -0.4515  3.6476
   76CHL1  H24B 8094   6.456  -0.051   8.569 -0.0760 -1.2532 -1.7898
   76CHL1   C25 8095   6.316  -0.065   8.736  0.2203 -1.0276  0.3006
   76CHL1   H25 8096   6.330   0.042   8.760 -0.5737 -1.0986  1.0843
   76CHL1   C26 8097   6.173  -0.113   8.760  0.0927  0.2799  0.4875
   76CHL1  H26A 8098   6.150  -0.208   8.706 -0.1174 -0.6599  2.1785
   76CHL1  H26B 8099   6.154  -0.129   8.868 -0.8832  0.8487  0.4051
   76CHL1  H26C 8100   6.096  -0.044   8.718  1.0111  0.6171 -0.6780
   76CHL1   C27 8101   6.416  -0.151   8.815 -0.2070 -0.4100  0.7484
   76CHL1  H27A 8102   6.396  -0.257   8.790  0.4877 -0.0196 -1.5446
   76CHL1  H27B 8103   6.519  -0.121   8.785 -0.4811  0.4575  0.6412
   76CHL1  H27C 8104   6.411  -0.133   8.925 -0.5461  0.3538  0.6151
   77CHL1    C3 8105   6.255   5.045   6.789 -0.0042 -0.8143 -0.4678
   77CHL1    H3 8106   6.146   5.065   6.800 -0.1690 -1.2792 -1.1716
   77CHL1    O3 8107   6.285   5.079   6.656  0.0133 -0.0062 -0.0942
   77CHL1   H3' 8108   6.300   4.992   6.619 -0.5864  0.1634 -0.7277
   77CHL1    C4 8109   6.345   5.128   6.879 -0.2036 -0.1017 -0.6561
   77CHL1   H4A 8110   6.455   5.115   6.863  0.1400  1.7456  0.0749
   77CHL1   H4B 8111   6.322   5.236   6.871  0.9677  0.1559 -0.7413
   77CHL1    C5 8112   6.323   5.095   7.027 -0.5889 -0.3750 -0.0308
   77CHL1    C6 8113   6.281   5.188   7.120 -0.0556 -0.2598  0.3250
   77CHL1    H6 8114   6.256   5.292   7.093  2.8403  0.1189 -1.0788
   77CHL1    C7 8115   6.251   5.161   7.268  0.2414 -0.5746 -0.0997
   77CHL1   H7A 8116   6.302   5.240   7.327  0.4244  0.0151 -1.0393
   77CHL1   H7B 8117   6.144   5.172   7.293  0.8569  1.7173  1.6307
   77CHL1    C8 8118   6.320   5.026   7.310  0.1781 -0.2081 -0.0413
   77CHL1    H8 8119   6.429   5.045   7.307  0.2127 -0.5539 -1.3179
   77CHL1   C14 8120   6.271   4.974   7.446 -0.2038  0.0413  0.3512
   77CHL1   H14 8121   6.166   4.949   7.420 -0.3329  2.4926 -1.7115
   77CHL1   C15 8122   6.257   5.067   7.561  0.7298 -0.9390  0.0688
   77CHL1  H15A 8123   6.351   5.117   7.591 -0.0195  0.0003  0.8973
   77CHL1  H15B 8124   6.180   5.146   7.548 -0.7135 -2.4478 -0.7633
   77CHL1   C16 8125   6.202   4.968   7.670  0.6203  0.4758 -0.2309
   77CHL1  H16A 8126   6.233   5.003   7.770 -0.6074 -1.6305  0.9061
   77CHL1  H16B 8127   6.091   4.973   7.662  0.4033 -0.3223  2.0769
   77CHL1   C17 8128   6.239   4.827   7.629  0.2896  0.3228  0.8591
   77CHL1   H17 8129   6.139   4.780   7.615  0.5600 -1.1559  3.5338
   77CHL1   C13 8130   6.318   4.839   7.498  0.2821 -0.0131  0.0613
   77CHL1   C18 8131   6.466   4.856   7.538 -0.3154  0.3189 -1.1845
   77CHL1  H18A 8132   6.507   4.768   7.591 -0.3404  0.4429 -0.9608
   77CHL1  H18B 8133   6.534   4.864   7.450 -1.7631 -0.5577 -2.4229
   77CHL1  H18C 8134   6.492   4.947   7.595 -1.8024  0.1294 -0.1752
   77CHL1   C12 8135   6.283   4.731   7.387 -0.0112  0.1434  0.0103
   77CHL1  H12A 8136   6.334   4.634   7.399 -1.1596 -0.7284 -1.9119
   77CHL1  H12B 8137   6.174   4.715   7.404 -0.6803  2.8611 -1.3918
   77CHL1   C11 8138   6.326   4.775   7.248  0.1914 -0.4997 -0.2978
   77CHL1  H11A 8139   6.435   4.769   7.268  0.1098 -2.4926 -0.2955
   77CHL1  H11B 8140   6.294   4.702   7.170  0.4537 -3.1815  2.0122
   77CHL1    C9 8141   6.290   4.919   7.210  0.1593 -0.3103  0.1601
   77CHL1    H9 8142   6.179   4.922   7.218  0.1512 -1.0185  0.3178
   77CHL1   C10 8143   6.341   4.951   7.062  0.3248 -0.0048 -0.4641
   77CHL1   C19 8144   6.490   4.905   7.056 -0.1348  0.8986  0.4959
   77CHL1  H19A 8145   6.505   4.797   7.033  0.5375  0.9735  0.6013
   77CHL1  H19B 8146   6.547   4.950   6.972  0.0644 -1.3490 -0.6209
   77CHL1  H19C 8147   6.537   4.938   7.150  1.5543  2.5954 -0.9181
   77CHL1    C1 8148   6.249   4.859   6.962 -0.6367 -0.0375 -0.3243
   77CHL1   H1A 8149   6.280   4.752   6.960  0.0641  0.0872  2.5859
   77CHL1   H1B 8150   6.142   4.869   6.988 -0.8737  1.2020 -1.7033
   77CHL1    C2 8151   6.271   4.899   6.815 -0.4808 -0.5589  0.3665
   77CHL1   H2A 8152   6.196   4.845   6.752 -2.0614  2.4662 -0.4546
   77CHL1   H2B 8153   6.372   4.861   6.790 -0.3561  0.1347 -0.2168
   77CHL1   C20 8154   6.298   4.742   7.740  1.0134 -0.1850  0.2585
   77CHL1   H20 8155   6.389   4.794   7.775  0.6342  0.5147  0.2090
   77CHL1   C21 8156   6.327   4.596   7.696 -0.2460  0.1318  0.2557
   77CHL1  H21A 8157   6.379   4.541   7.778 -1.0965  0.5125  1.0622
   77CHL1  H21B 8158   6.395   4.589   7.608 -0.9988 -1.1009 -0.2406
   77CHL1  H21C 8159   6.237   4.537   7.667 -0.5070 -0.1061  1.5232
   77CHL1   C22 8160   6.221   4.734   7.873  0.4777 -0.2842  0.0014
   77CHL1  H22A 8161   6.179   4.831   7.907 -2.0946 -1.1062 -0.7555
   77CHL1  H22B 8162   6.143   4.657   7.858  0.9118 -1.0918  1.8025
   77CHL1   C23 8163   6.296   4.689   8.002 -0.0938 -0.2423  0.1674
   77CHL1  H23A 8164   6.328   4.584   7.981 -0.0398  0.5411 -4.1658
   77CHL1  H23B 8165   6.392   4.745   8.009  0.0767 -0.1587 -2.2380
   77CHL1   C24 8166   6.215   4.707   8.135  0.6102  0.3045  0.1124
   77CHL1  H24A 8167   6.161   4.804   8.128  0.8911  0.5314  1.1270
   77CHL1  H24B 8168   6.130   4.635   8.131 -1.1491  2.3220 -0.0689
   77CHL1   C25 8169   6.300   4.699   8.264  0.2337 -0.0140 -0.5817
   77CHL1   H25 8170   6.384   4.768   8.246 -1.0799  1.4947 -1.0488
   77CHL1   C26 8171   6.233   4.746   8.399 -1.3951 -0.1561 -0.2004
   77CHL1  H26A 8172   6.125   4.750   8.374 -1.0940 -0.6331 -1.6582
   77CHL1  H26B 8173   6.249   4.676   8.484 -1.6046  0.5387  0.4137
   77CHL1  H26C 8174   6.262   4.848   8.432 -0.6358  0.6426 -3.1665
   77CHL1   C27 8175   6.365   4.563   8.296 -0.1260  0.1580  0.3682
   77CHL1  H27A 8176   6.427   4.534   8.208  1.3887  2.0799  0.7615
   77CHL1  H27B 8177   6.427   4.573   8.388  1.3821  0.4025 -0.6462
   77CHL1  H27C 8178   6.289   4.483   8.309 -0.2824 -0.0971 -1.9844
   78CHL1    C3 8179   2.314   0.258   6.568 -0.9468 -0.0726  0.4230
   78CHL1    H3 8180   2.322   0.342   6.640  0.1419 -0.3776  0.6642
   78CHL1    O3 8181   2.348   0.290   6.432 -0.0254  0.1837  0.1319
   78CHL1   H3' 8182   2.432   0.336   6.439 -1.1965  2.3530  0.3149
   78CHL1    C4 8183   2.428   0.166   6.619 -0.6471 -0.6631 -0.5973
   78CHL1   H4A 8184   2.443   0.067   6.570 -1.1817 -1.1284  0.1716
   78CHL1   H4B 8185   2.522   0.222   6.602 -2.1434  1.4947 -1.9551
   78CHL1    C5 8186   2.411   0.140   6.765 -0.4076  0.7408  0.1286
   78CHL1    C6 8187   2.503   0.173   6.859 -0.3579 -0.7466 -0.4237
   78CHL1    H6 8188   2.598   0.218   6.829  0.7197 -2.3968  0.4404
   78CHL1    C7 8189   2.492   0.144   7.005 -0.6222  0.3444 -0.2066
   78CHL1   H7A 8190   2.591   0.106   7.038 -0.6069 -0.6148 -1.3453
   78CHL1   H7B 8191   2.464   0.241   7.052 -0.6868  0.2968 -0.1463
   78CHL1    C8 8192   2.375   0.053   7.036  0.4333  0.1079 -0.8787
   78CHL1    H8 8193   2.411  -0.052   7.023 -1.9905 -0.6679 -1.5232
   78CHL1   C14 8194   2.325   0.070   7.176  0.3954 -0.1088 -0.0241
   78CHL1   H14 8195   2.288   0.174   7.193  4.7781  1.7636 -1.2676
   78CHL1   C15 8196   2.430   0.056   7.286  0.5024  0.0588 -0.3808
   78CHL1  H15A 8197   2.500  -0.026   7.259 -0.4008 -1.1279  0.8146
   78CHL1  H15B 8198   2.492   0.148   7.290 -1.4354  1.3509  0.7531
   78CHL1   C16 8199   2.348   0.034   7.411  0.1318 -0.2413 -0.7654
   78CHL1  H16A 8200   2.396  -0.053   7.460 -0.7428  1.4772  3.3955
   78CHL1  H16B 8201   2.357   0.117   7.485  2.7697 -1.3626  0.2213
   78CHL1   C17 8202   2.199   0.014   7.367  0.1429  0.7976  0.4260
   78CHL1   H17 8203   2.148   0.113   7.362 -0.0622  0.5864 -2.2883
   78CHL1   C13 8204   2.212  -0.028   7.218 -0.1401  0.5508  0.2213
   78CHL1   C18 8205   2.259  -0.175   7.221  0.0812  0.2095  0.1784
   78CHL1  H18A 8206   2.180  -0.235   7.272 -0.2684  1.2066  0.8399
   78CHL1  H18B 8207   2.272  -0.219   7.120 -2.3968 -1.2878  0.4716
   78CHL1  H18C 8208   2.339  -0.195   7.295 -0.3389  2.9668  1.4213
   78CHL1   C12 8209   2.086  -0.019   7.126  0.2005  0.1027 -0.0960
   78CHL1  H12A 8210   2.009  -0.095   7.151 -0.5266  0.2316 -1.9498
   78CHL1  H12B 8211   2.054   0.085   7.147 -1.1440 -0.6259  1.5882
   78CHL1   C11 8212   2.127  -0.022   6.978 -0.9039 -0.6090 -0.0403
   78CHL1  H11A 8213   2.156  -0.126   6.955  2.1084 -0.3922  2.4897
   78CHL1  H11B 8214   2.032  -0.001   6.923 -0.3585  3.0209  0.2718
   78CHL1    C9 8215   2.251   0.079   6.947 -0.5756 -0.3114 -0.4769
   78CHL1    H9 8216   2.207   0.177   6.973 -0.9892 -1.1560  2.1406
   78CHL1   C10 8217   2.275   0.075   6.797  0.3135 -0.1392 -0.3012
   78CHL1   C19 8218   2.275  -0.073   6.749 -0.2486 -0.0454 -0.0230
   78CHL1  H19A 8219   2.293  -0.084   6.640  0.9646 -0.3080  0.1954
   78CHL1  H19B 8220   2.353  -0.128   6.806 -0.1514  2.2535  2.1338
   78CHL1  H19C 8221   2.174  -0.120   6.748 -0.4956  0.4831 -0.6538
   78CHL1    C1 8222   2.160   0.152   6.727  0.1753  0.3480  0.0531
   78CHL1   H1A 8223   2.070   0.087   6.737 -0.5118  1.5931  2.3337
   78CHL1   H1B 8224   2.140   0.243   6.787 -0.6566 -1.1921  2.1943
   78CHL1    C2 8225   2.185   0.189   6.588  0.2648  0.7275  0.5684
   78CHL1   H2A 8226   2.117   0.270   6.553  0.1040  1.2828  2.1548
   78CHL1   H2B 8227   2.192   0.095   6.530  0.1027  2.2084 -1.9411
   78CHL1   C20 8228   2.109  -0.064   7.463 -0.5178  0.3857  0.0196
   78CHL1   H20 8229   2.140  -0.170   7.452 -1.1068  0.2690 -0.5584
   78CHL1   C21 8230   1.961  -0.053   7.422  0.1075  0.0138  0.3613
   78CHL1  H21A 8231   1.896  -0.070   7.510  0.4723  0.0805  0.6454
   78CHL1  H21B 8232   1.939  -0.132   7.347  0.3842  1.0130 -0.7971
   78CHL1  H21C 8233   1.949   0.050   7.384  2.0050 -0.2598 -1.0627
   78CHL1   C22 8234   2.136  -0.014   7.610 -0.3868  0.3675 -0.8246
   78CHL1  H22A 8235   2.245   0.000   7.626 -0.4379  1.5780 -1.5267
   78CHL1  H22B 8236   2.090   0.086   7.627 -0.8973 -0.5189  3.5974
   78CHL1   C23 8237   2.078  -0.098   7.720  1.0007  0.2952 -0.9317
   78CHL1  H23A 8238   1.968  -0.105   7.706  0.5950  0.6002  1.7300
   78CHL1  H23B 8239   2.111  -0.204   7.715 -1.7811 -0.5486 -2.3729
   78CHL1   C24 8240   2.116  -0.034   7.860 -0.4269  0.2400 -0.5066
   78CHL1  H24A 8241   2.227  -0.024   7.870 -0.2043 -1.3604 -1.2432
   78CHL1  H24B 8242   2.089   0.073   7.855  0.5710  0.5087 -0.3688
   78CHL1   C25 8243   2.041  -0.097   7.979 -0.0064  0.2772  0.8364
   78CHL1   H25 8244   2.060  -0.206   7.977 -1.3358  0.0465  0.1416
   78CHL1   C26 8245   2.109  -0.044   8.111 -0.2045 -0.4918  0.5401
   78CHL1  H26A 8246   2.218  -0.037   8.090 -0.6346  1.0436 -1.3637
   78CHL1  H26B 8247   2.074   0.061   8.122  1.4799  0.7978 -5.0346
   78CHL1  H26C 8248   2.088  -0.111   8.197  2.4191 -0.1526  1.4852
   78CHL1   C27 8249   1.891  -0.078   7.978  0.2866  0.4679 -0.2419
   78CHL1  H27A 8250   1.878   0.031   7.958 -0.6239  0.2697 -0.7368
   78CHL1  H27B 8251   1.838  -0.143   7.906  2.3783 -1.1170 -0.4137
   78CHL1  H27C 8252   1.849  -0.106   8.077  1.9051 -4.3462 -0.7820
   79CHL1    C3 8253   0.108   6.195   7.252  0.0259 -0.3040 -0.1067
   79CHL1    H3 8254   0.143   6.091   7.239  0.6006  0.0550 -1.5563
   79CHL1    O3 8255   0.081   6.258   7.132 -0.3350  0.4490 -0.4661
   79CHL1   H3' 8256   0.007   6.209   7.094 -0.9819  0.4925  0.7164
   79CHL1    C4 8257  -0.011   6.214   7.340  0.1151 -0.2098 -0.2113
   79CHL1   H4A 8258  -0.042   6.320   7.352 -0.1838 -0.2166 -0.9220
   79CHL1   H4B 8259  -0.099   6.167   7.291 -1.3856 -0.5114  2.6884
   79CHL1    C5 8260   0.007   6.168   7.482  0.5326  0.5737 -0.0769
   79CHL1    C6 8261  -0.082   6.085   7.544 -0.6287 -0.3142  1.3202
   79CHL1    H6 8262  -0.176   6.057   7.493  0.6498 -0.8366 -0.8113
   79CHL1    C7 8263  -0.078   6.053   7.688 -0.1459  0.0197 -0.2805
   79CHL1   H7A 8264  -0.174   6.077   7.739 -0.0447  2.2834 -1.0707
   79CHL1   H7B 8265  -0.064   5.944   7.705  2.7618  0.8398  3.0865
   79CHL1    C8 8266   0.035   6.122   7.765  0.1592  0.0068 -0.0060
   79CHL1    H8 8267  -0.002   6.224   7.784 -1.4098 -0.7862  1.3450
   79CHL1   C14 8268   0.083   6.053   7.892 -0.2426  0.0435  0.1593
   79CHL1   H14 8269   0.114   5.953   7.855 -0.4108  0.3550 -0.8639
   79CHL1   C15 8270  -0.034   6.015   7.983  0.1522 -0.4176  0.1347
   79CHL1  H15A 8271  -0.103   6.097   8.013  2.1291  0.8199  1.3577
   79CHL1  H15B 8272  -0.086   5.924   7.945  1.5159 -2.0023  1.9989
   79CHL1   C16 8273   0.038   5.974   8.114 -0.2889 -0.0974 -0.0175
   79CHL1  H16A 8274  -0.010   6.035   8.193  1.6554 -0.4341  1.4593
   79CHL1  H16B 8275   0.036   5.864   8.126  1.9270 -0.0463  1.0777
   79CHL1   C17 8276   0.184   6.018   8.092 -0.6587 -0.4570 -0.1072
   79CHL1   H17 8277   0.231   5.925   8.053 -0.7890 -0.5759  0.0235
   79CHL1   C13 8278   0.185   6.117   7.975 -0.2052 -0.6416 -0.5140
   79CHL1   C18 8279   0.142   6.268   8.009 -0.1624 -0.1293  0.0928
   79CHL1  H18A 8280   0.221   6.302   8.079 -0.2085 -1.9161  1.0665
   79CHL1  H18B 8281   0.133   6.336   7.922 -1.9141 -1.5245 -0.8565
   79CHL1  H18C 8282   0.039   6.269   8.050  0.0423 -2.2669  0.7529
   79CHL1   C12 8283   0.308   6.111   7.889  0.3739  0.4239  0.4055
   79CHL1  H12A 8284   0.389   6.161   7.945  1.4270  0.7274 -1.3619
   79CHL1  H12B 8285   0.332   6.004   7.867 -0.8468  0.0195  0.9928
   79CHL1   C11 8286   0.277   6.196   7.758 -0.5029  0.7151 -0.1186
   79CHL1  H11A 8287   0.285   6.302   7.789  0.2667  0.7331 -0.3507
   79CHL1  H11B 8288   0.371   6.175   7.702 -0.7493  2.3180 -1.1395
   79CHL1    C9 8289   0.158   6.150   7.677  0.5131  0.6042  0.1087
   79CHL1    H9 8290   0.180   6.047   7.642 -0.0347  0.2603  0.7433
   79CHL1   C10 8291   0.134   6.229   7.553  0.4178  0.6690  0.2997
   79CHL1   C19 8292   0.097   6.370   7.590  0.0289 -0.0086 -0.0693
   79CHL1  H19A 8293   0.170   6.412   7.663 -0.1170  1.9351 -0.9896
   79CHL1  H19B 8294   0.101   6.426   7.494  0.4648 -2.0290 -1.2538
   79CHL1  H19C 8295  -0.005   6.378   7.632 -0.2270 -0.8986 -0.5056
   79CHL1    C1 8296   0.259   6.229   7.454  0.6456  0.4494  0.1960
   79CHL1   H1A 8297   0.350   6.278   7.496  2.2288 -2.6104  0.4696
   79CHL1   H1B 8298   0.302   6.127   7.454 -0.4850 -0.0641  2.1564
   79CHL1    C2 8299   0.226   6.280   7.314  0.9120 -0.1251  0.3053
   79CHL1   H2A 8300   0.312   6.272   7.243  0.1189  1.1021 -0.8225
   79CHL1   H2B 8301   0.187   6.384   7.316  2.3115  0.5438 -2.8978
   79CHL1   C20 8302   0.251   6.069   8.222  0.1412 -0.0391 -0.0637
   79CHL1   H20 8303   0.224   6.176   8.233 -0.2677 -0.0590 -0.8333
   79CHL1   C21 8304   0.401   6.050   8.212 -0.0367  0.1432  0.3897
   79CHL1  H21A 8305   0.418   5.948   8.171 -1.8254 -0.4344  1.0437
   79CHL1  H21B 8306   0.458   6.058   8.307  1.7708 -2.2917 -0.4178
   79CHL1  H21C 8307   0.442   6.132   8.149 -0.9020  0.2219 -0.0827
   79CHL1   C22 8308   0.189   5.988   8.343  0.0722 -0.3856 -1.1370
   79CHL1  H22A 8309   0.079   5.998   8.351  0.1630 -0.5002  0.3230
   79CHL1  H22B 8310   0.209   5.880   8.327 -0.5253 -0.3694 -2.0436
   79CHL1   C23 8311   0.248   6.018   8.483  0.2363 -0.6007 -0.6327
   79CHL1  H23A 8312   0.359   6.022   8.483  0.1988  0.8983 -1.3019
   79CHL1  H23B 8313   0.211   6.118   8.513  0.4987 -0.8603  0.5578
   79CHL1   C24 8314   0.222   5.910   8.590 -0.1127 -0.1820 -0.7138
   79CHL1  H24A 8315   0.116   5.880   8.605 -0.1628  0.3623  0.0830
   79CHL1  H24B 8316   0.283   5.819   8.570  0.1745 -0.2660  0.4921
   79CHL1   C25 8317   0.269   5.965   8.729  0.8293 -0.5340  0.0851
   79CHL1   H25 8318   0.372   6.008   8.721  0.2319  1.2796  1.5376
   79CHL1   C26 8319   0.162   6.064   8.784  0.0834  0.4165  0.2315
   79CHL1  H26A 8320   0.065   6.017   8.811  0.8748 -1.3196  0.1087
   79CHL1  H26B 8321   0.208   6.102   8.878 -0.0581  1.9415 -0.2902
   79CHL1  H26C 8322   0.153   6.151   8.715 -1.1284  0.8600  0.9268
   79CHL1   C27 8323   0.272   5.850   8.829  0.0967 -0.0009  0.1746
   79CHL1  H27A 8324   0.169   5.808   8.836  0.2037 -0.0168  1.6729
   79CHL1  H27B 8325   0.352   5.776   8.809 -0.8137 -0.5489 -1.5272
   79CHL1  H27C 8326   0.297   5.880   8.933 -0.4659 -1.9572  0.8940
   80CHL1    C3 8327   5.174   3.963   7.026 -0.0403 -0.3088  0.9518
   80CHL1    H3 8328   5.067   3.976   7.054  0.0415 -0.6878  1.4425
   80CHL1    O3 8329   5.197   4.018   6.898  0.3899  0.8159  0.0004
   80CHL1   H3' 8330   5.291   4.009   6.883  0.6078  0.0469  1.6995
   80CHL1    C4 8331   5.265   4.046   7.121 -0.2291 -0.2818 -0.0248
   80CHL1   H4A 8332   5.368   4.042   7.081 -0.0479 -3.0838  0.6419
   80CHL1   H4B 8333   5.234   4.153   7.117 -1.6439 -0.6484  0.6494
   80CHL1    C5 8334   5.252   3.996   7.263 -0.5170  0.1371  0.3020
   80CHL1    C6 8335   5.208   4.073   7.363 -0.6308 -0.1266  0.3802
   80CHL1    H6 8336   5.187   4.180   7.346 -0.9770 -0.3796 -0.8685
   80CHL1    C7 8337   5.209   4.029   7.506 -0.1594 -0.1063  0.0061
   80CHL1   H7A 8338   5.258   4.106   7.570 -1.6787  0.4341  0.5426
   80CHL1   H7B 8339   5.106   4.008   7.543  0.0674 -1.2708 -0.0155
   80CHL1    C8 8340   5.293   3.895   7.525  1.0260 -0.1972  0.3263
   80CHL1    H8 8341   5.399   3.924   7.514  0.6840  0.5146 -1.2980
   80CHL1   C14 8342   5.268   3.835   7.665 -0.1783  0.0031  0.7221
   80CHL1   H14 8343   5.160   3.825   7.686 -0.1403  1.2140  1.5756
   80CHL1   C15 8344   5.323   3.907   7.789 -0.7649 -0.9462  1.0513
   80CHL1  H15A 8345   5.427   3.934   7.760 -1.5138  2.0580  1.0391
   80CHL1  H15B 8346   5.262   3.998   7.806 -0.0428 -0.7176  2.5509
   80CHL1   C16 8347   5.326   3.821   7.906  0.0397  0.4646  0.2458
   80CHL1  H16A 8348   5.419   3.828   7.966  1.0879  1.9488 -1.4984
   80CHL1  H16B 8349   5.242   3.850   7.972  0.7122 -1.7050  2.1085
   80CHL1   C17 8350   5.301   3.676   7.843 -0.6485  0.3210  0.7905
   80CHL1   H17 8351   5.194   3.651   7.852 -0.7379  0.9772  1.6926
   80CHL1   C13 8352   5.332   3.700   7.691  0.0651 -0.0486 -0.9782
   80CHL1   C18 8353   5.482   3.716   7.665  0.6419 -0.0338  0.2127
   80CHL1  H18A 8354   5.522   3.613   7.680  0.0541 -0.3728 -0.4994
   80CHL1  H18B 8355   5.508   3.750   7.563 -0.4714  0.2877  0.0268
   80CHL1  H18C 8356   5.537   3.762   7.750 -0.6554 -1.4612  1.8860
   80CHL1   C12 8357   5.266   3.602   7.593  0.3177  0.2484  0.2969
   80CHL1  H12A 8358   5.297   3.497   7.611 -0.9257 -0.0979  0.5258
   80CHL1  H12B 8359   5.156   3.616   7.608 -0.0407  0.0079 -1.9472
   80CHL1   C11 8360   5.296   3.647   7.449  0.2108  0.6120  0.0126
   80CHL1  H11A 8361   5.404   3.634   7.426 -0.1451 -0.6131 -1.0663
   80CHL1  H11B 8362   5.240   3.584   7.376 -0.0086 -0.2024  0.8703
   80CHL1    C9 8363   5.252   3.796   7.418 -0.1550 -0.4055  0.2984
   80CHL1    H9 8364   5.142   3.782   7.425 -0.3468  1.1489  0.5976
   80CHL1   C10 8365   5.287   3.846   7.276 -0.3457 -0.4861  0.5034
   80CHL1   C19 8366   5.438   3.816   7.260 -0.7603  0.7546 -0.1742
   80CHL1  H19A 8367   5.490   3.858   7.170  0.3423  2.7935  1.3660
   80CHL1  H19B 8368   5.500   3.839   7.350 -0.8225  0.4812 -0.0625
   80CHL1  H19C 8369   5.442   3.707   7.237 -3.3069  1.1299 -2.6463
   80CHL1    C1 8370   5.214   3.760   7.170  0.0950 -0.1313  0.4504
   80CHL1   H1A 8371   5.246   3.654   7.180 -0.3241 -0.3048 -0.0089
   80CHL1   H1B 8372   5.106   3.760   7.196  0.5800  1.1663  2.5713
   80CHL1    C2 8373   5.212   3.818   7.026 -0.4835  0.2257  0.7854
   80CHL1   H2A 8374   5.137   3.758   6.970  0.3057 -1.0556  1.0784
   80CHL1   H2B 8375   5.314   3.807   6.981 -0.7480 -1.6894  0.6076
   80CHL1   C20 8376   5.383   3.573   7.921  0.0556 -0.2065 -0.2219
   80CHL1   H20 8377   5.490   3.602   7.917 -0.3551  1.4616  0.3452
   80CHL1   C21 8378   5.362   3.430   7.857 -0.7799  0.2845  0.4422
   80CHL1  H21A 8379   5.254   3.405   7.842 -0.0282 -2.5128 -0.5195
   80CHL1  H21B 8380   5.409   3.350   7.918 -0.3064  0.8906  0.8789
   80CHL1  H21C 8381   5.417   3.428   7.761 -1.0004  2.2252  0.2574
   80CHL1   C22 8382   5.339   3.563   8.070  0.0040 -0.3587 -0.2656
   80CHL1  H22A 8383   5.361   3.658   8.122 -0.7169 -0.7301  0.7210
   80CHL1  H22B 8384   5.231   3.545   8.086 -0.0246 -1.0146 -1.1143
   80CHL1   C23 8385   5.415   3.456   8.158 -0.0519  0.5797 -0.4351
   80CHL1  H23A 8386   5.412   3.351   8.121  3.1380  0.3563 -0.1694
   80CHL1  H23B 8387   5.525   3.473   8.158 -0.4568  3.5207 -1.2407
   80CHL1   C24 8388   5.363   3.472   8.301  0.6502 -0.5608  0.0320
   80CHL1  H24A 8389   5.416   3.565   8.332  0.0401 -0.8120  1.8998
   80CHL1  H24B 8390   5.254   3.487   8.312  1.2980  4.2227  1.2337
   80CHL1   C25 8391   5.396   3.381   8.418  0.1155 -0.1680  0.6009
   80CHL1   H25 8392   5.494   3.335   8.393  0.0250  0.2113 -0.4822
   80CHL1   C26 8393   5.427   3.459   8.551  0.8811  0.0635 -0.0470
   80CHL1  H26A 8394   5.513   3.528   8.539  0.3597  0.4978 -1.4884
   80CHL1  H26B 8395   5.339   3.516   8.586 -0.3413  0.3285 -3.3347
   80CHL1  H26C 8396   5.462   3.383   8.623 -0.5500  0.7281  1.3684
   80CHL1   C27 8397   5.286   3.273   8.432 -0.5420 -0.7696  0.5307
   80CHL1  H27A 8398   5.311   3.213   8.522 -3.2049 -1.1584  1.0544
   80CHL1  H27B 8399   5.181   3.309   8.436 -0.9604 -2.0629  1.7746
   80CHL1  H27C 8400   5.290   3.196   8.352 -2.0128  0.3831 -0.6715
   81CHL1    C3 8401   3.113   3.418   6.786  0.2017 -0.2898  0.5226
   81CHL1    H3 8402   3.028   3.352   6.812  0.1690 -1.5467 -2.6702
   81CHL1    O3 8403   3.123   3.418   6.644 -0.0085  0.1777  0.8317
   81CHL1   H3' 8404   3.217   3.440   6.637  0.7099 -1.9637  2.9615
   81CHL1    C4 8405   3.078   3.567   6.828 -0.7324  0.1133 -0.7922
   81CHL1   H4A 8406   3.142   3.638   6.771 -1.6912  1.5404 -0.1114
   81CHL1   H4B 8407   2.978   3.592   6.788 -1.2684 -0.0695  0.4018
   81CHL1    C5 8408   3.086   3.599   6.975 -0.6407 -0.8217 -0.7069
   81CHL1    C6 8409   2.996   3.668   7.041  0.0439  0.1875 -0.1425
   81CHL1    H6 8410   2.901   3.689   6.989  1.0220  0.5175 -1.8018
   81CHL1    C7 8411   3.003   3.700   7.189 -0.0426 -0.2898 -0.5988
   81CHL1   H7A 8412   2.964   3.803   7.206 -1.5649 -1.1667  1.3258
   81CHL1   H7B 8413   2.938   3.639   7.255  0.4701  1.0392  1.1822
   81CHL1    C8 8414   3.137   3.661   7.265  0.1022  0.2842  0.2414
   81CHL1    H8 8415   3.202   3.747   7.238 -0.8407  0.2918 -2.2076
   81CHL1   C14 8416   3.118   3.641   7.414 -0.2352 -0.3793  0.2392
   81CHL1   H14 8417   3.051   3.552   7.419 -0.5015 -0.1784  0.2436
   81CHL1   C15 8418   3.031   3.748   7.492 -0.8348 -0.1328 -0.3690
   81CHL1  H15A 8419   3.075   3.848   7.472 -0.6564 -0.1411 -0.0138
   81CHL1  H15B 8420   2.932   3.735   7.444 -1.0584  1.8178 -0.4869
   81CHL1   C16 8421   3.053   3.713   7.638 -0.1526  0.1020 -0.7774
   81CHL1  H16A 8422   3.090   3.798   7.700  2.8484 -0.4054 -1.8023
   81CHL1  H16B 8423   2.964   3.681   7.697  1.0630 -0.8447  0.5582
   81CHL1   C17 8424   3.165   3.599   7.639  0.3328 -0.2697 -0.0949
   81CHL1   H17 8425   3.109   3.504   7.644  0.5764 -0.3290  2.0560
   81CHL1   C13 8426   3.238   3.607   7.500  0.0461  0.1039 -0.4706
   81CHL1   C18 8427   3.337   3.723   7.512  0.1042  0.1369  0.4095
   81CHL1  H18A 8428   3.359   3.750   7.406 -0.6587  1.3971  0.5647
   81CHL1  H18B 8429   3.308   3.814   7.570  0.6668  0.0085  0.8979
   81CHL1  H18C 8430   3.432   3.682   7.551 -0.3666 -1.0797  0.2822
   81CHL1   C12 8431   3.302   3.475   7.433 -0.2530 -0.2324  0.4727
   81CHL1  H12A 8432   3.398   3.454   7.485  0.2008 -0.6117 -0.5098
   81CHL1  H12B 8433   3.231   3.390   7.442  0.7138 -1.2086 -0.9505
   81CHL1   C11 8434   3.325   3.494   7.284 -0.0422 -0.0609  0.5344
   81CHL1  H11A 8435   3.411   3.561   7.263 -0.0325 -0.2193  0.0604
   81CHL1  H11B 8436   3.357   3.400   7.236 -0.1653  0.6319 -0.9144
   81CHL1    C9 8437   3.198   3.536   7.202  0.5842  0.8574 -0.4418
   81CHL1    H9 8438   3.124   3.456   7.222  0.5121  1.1540  0.5338
   81CHL1   C10 8439   3.215   3.543   7.048  0.8941 -0.3935  0.2159
   81CHL1   C19 8440   3.330   3.641   7.005  0.0910 -0.4938  0.2015
   81CHL1  H19A 8441   3.430   3.600   7.027  1.1974  2.5032  0.9447
   81CHL1  H19B 8442   3.320   3.649   6.894  0.5006  0.5568  0.2285
   81CHL1  H19C 8443   3.310   3.735   7.061  4.7034  0.0106  1.2012
   81CHL1    C1 8444   3.250   3.395   7.001 -0.2983  0.2665 -0.1932
   81CHL1   H1A 8445   3.355   3.375   7.028 -1.0674 -0.3683  2.4049
   81CHL1   H1B 8446   3.185   3.323   7.055  0.3026 -0.8321 -0.9243
   81CHL1    C2 8447   3.245   3.380   6.845 -0.4623 -0.3864  0.6034
   81CHL1   H2A 8448   3.283   3.277   6.828  0.3598  0.1475 -0.8531
   81CHL1   H2B 8449   3.324   3.448   6.806 -0.1163 -0.1368  1.7114
   81CHL1   C20 8450   3.250   3.587   7.766 -0.1914 -0.1540 -0.9844
   81CHL1   H20 8451   3.321   3.672   7.775 -2.0970  1.3531  0.2201
   81CHL1   C21 8452   3.328   3.458   7.767  0.3361 -0.0547 -0.0096
   81CHL1  H21A 8453   3.263   3.376   7.730 -3.0118  3.6705 -2.6757
   81CHL1  H21B 8454   3.377   3.422   7.860  0.0867  0.4478  0.3188
   81CHL1  H21C 8455   3.411   3.480   7.697  1.0508  2.4999  1.5569
   81CHL1   C22 8456   3.173   3.585   7.897  0.0973  0.5011 -0.3422
   81CHL1  H22A 8457   3.086   3.654   7.897 -3.4215 -3.6858 -1.0112
   81CHL1  H22B 8458   3.127   3.486   7.916  1.0389 -0.9419 -5.0554
   81CHL1   C23 8459   3.263   3.627   8.013  0.0811 -0.3844  0.3979
   81CHL1  H23A 8460   3.350   3.559   8.027 -0.8009 -2.1101 -2.3344
   81CHL1  H23B 8461   3.302   3.728   7.987  1.8088 -1.2384 -0.3791
   81CHL1   C24 8462   3.194   3.638   8.154  0.3465 -0.1149 -0.0838
   81CHL1  H24A 8463   3.123   3.724   8.147 -1.6345 -1.7952 -0.9818
   81CHL1  H24B 8464   3.129   3.549   8.166 -0.5890  0.0378 -3.5025
   81CHL1   C25 8465   3.291   3.677   8.271  0.2366  0.0198  0.5593
   81CHL1   H25 8466   3.365   3.750   8.232 -1.7659  0.2873 -2.9385
   81CHL1   C26 8467   3.220   3.725   8.393 -0.1850  0.2823  0.5694
   81CHL1  H26A 8468   3.303   3.750   8.462  0.9277  1.6222 -1.2207
   81CHL1  H26B 8469   3.147   3.806   8.372  0.9066  0.7207 -1.7564
   81CHL1  H26C 8470   3.166   3.638   8.436 -0.3608  0.4108  0.6079
   81CHL1   C27 8471   3.370   3.550   8.305 -0.3131 -0.1785 -0.2597
   81CHL1  H27A 8472   3.435   3.518   8.220 -1.3039 -0.8164 -0.7971
   81CHL1  H27B 8473   3.433   3.572   8.393 -0.2922 -0.0911 -0.2954
   81CHL1  H27C 8474   3.304   3.472   8.348  0.4198  0.3883  1.9552
   82CHL1    C3 8475   4.371   4.542   6.889 -0.5538  0.6016  0.7322
   82CHL1    H3 8476   4.269   4.507   6.863  0.0868 -1.4508  0.8934
   82CHL1    O3 8477   4.453   4.540   6.777 -0.0289  0.7270  0.2977
   82CHL1   H3' 8478   4.400   4.496   6.710  1.3975  0.3743 -0.6203
   82CHL1    C4 8479   4.362   4.681   6.947 -0.2077  0.7078 -0.5003
   82CHL1   H4A 8480   4.462   4.730   6.944  0.1717 -0.0523 -0.3376
   82CHL1   H4B 8481   4.302   4.733   6.868  2.8976  1.6108 -2.3469
   82CHL1    C5 8482   4.293   4.679   7.084  0.1796 -0.0405  0.1109
   82CHL1    C6 8483   4.186   4.753   7.107 -0.1655  0.2367 -0.6552
   82CHL1    H6 8484   4.145   4.814   7.025 -1.0010  1.4932  0.6697
   82CHL1    C7 8485   4.120   4.766   7.238 -0.4829  0.5179 -0.2520
   82CHL1   H7A 8486   4.103   4.875   7.252 -1.4440  0.5458 -1.5157
   82CHL1   H7B 8487   4.016   4.727   7.232  0.1476 -1.1877 -0.2518
   82CHL1    C8 8488   4.199   4.705   7.359  0.2091 -0.3135  0.4818
   82CHL1    H8 8489   4.270   4.782   7.394 -0.5990  0.7919 -0.2513
   82CHL1   C14 8490   4.109   4.669   7.477 -0.2101  0.0765  0.1593
   82CHL1   H14 8491   4.045   4.584   7.445 -0.5543 -0.5993  2.5658
   82CHL1   C15 8492   4.028   4.785   7.534  0.1339 -0.2822  0.0106
   82CHL1  H15A 8493   4.090   4.877   7.532  0.1043 -0.2635 -0.0873
   82CHL1  H15B 8494   3.933   4.787   7.475  1.0086 -1.7901 -1.5090
   82CHL1   C16 8495   3.980   4.741   7.668 -0.4245 -0.0830  0.0400
   82CHL1  H16A 8496   3.996   4.828   7.735 -1.0503 -0.5397  0.7911
   82CHL1  H16B 8497   3.875   4.706   7.675 -0.1342 -0.6249  1.7000
   82CHL1   C17 8498   4.071   4.619   7.706 -0.2442  0.5199  0.3827
   82CHL1   H17 8499   4.011   4.527   7.691 -0.0370  0.2908  0.9368
   82CHL1   C13 8500   4.184   4.615   7.607 -0.2822  0.0611  0.1436
   82CHL1   C18 8501   4.304   4.715   7.641  0.4416 -0.2620  0.7353
   82CHL1  H18A 8502   4.354   4.679   7.733  0.1628 -0.0935  0.9551
   82CHL1  H18B 8503   4.382   4.731   7.564 -0.1391  0.9120  0.3667
   82CHL1  H18C 8504   4.267   4.816   7.669  0.1279 -0.3527  0.6462
   82CHL1   C12 8505   4.240   4.485   7.568 -0.2617 -0.9486  0.1073
   82CHL1  H12A 8506   4.314   4.448   7.642  0.8538  1.3875  0.2317
   82CHL1  H12B 8507   4.156   4.412   7.566 -0.8473 -0.2745 -0.2470
   82CHL1   C11 8508   4.311   4.482   7.429  0.1759 -0.8548  0.3338
   82CHL1  H11A 8509   4.415   4.515   7.453 -0.2588  0.6977  0.0959
   82CHL1  H11B 8510   4.323   4.376   7.398 -0.5750 -0.8705  0.1008
   82CHL1    C9 8511   4.257   4.568   7.315  0.2391 -0.2967  0.5990
   82CHL1    H9 8512   4.165   4.516   7.280  0.7752 -1.1901  0.5208
   82CHL1   C10 8513   4.349   4.576   7.185  0.9617 -0.6973 -0.2657
   82CHL1   C19 8514   4.487   4.626   7.232 -0.5403  0.0323  0.5258
   82CHL1  H19A 8515   4.553   4.560   7.293  0.6562 -0.7879 -1.5794
   82CHL1  H19B 8516   4.563   4.660   7.158  0.8404 -2.2215  0.8408
   82CHL1  H19C 8517   4.461   4.719   7.285 -2.7277  0.3445 -1.0640
   82CHL1    C1 8518   4.362   4.440   7.119 -0.2311  0.3713  0.0099
   82CHL1   H1A 8519   4.418   4.370   7.185  3.2979  1.5127 -1.6575
   82CHL1   H1B 8520   4.265   4.386   7.117 -0.9372  1.6371 -1.8399
   82CHL1    C2 8521   4.440   4.448   6.984 -0.3610 -0.4774  0.6745
   82CHL1   H2A 8522   4.455   4.350   6.933  0.6207 -0.2797  0.5752
   82CHL1   H2B 8523   4.538   4.491   7.015  0.1885 -0.2345 -1.2820
   82CHL1   C20 8524   4.102   4.605   7.856 -1.0625 -0.3604  0.2736
   82CHL1   H20 8525   4.179   4.684   7.871  0.8866 -1.9520 -0.9543
   82CHL1   C21 8526   4.169   4.469   7.888  0.1849 -0.0432  0.2945
   82CHL1  H21A 8527   4.271   4.459   7.846  0.2136 -1.9401  0.7500
   82CHL1  H21B 8528   4.113   4.385   7.841 -0.8270  0.7541  0.0661
   82CHL1  H21C 8529   4.174   4.457   7.999 -0.7802 -1.2815  0.2175
   82CHL1   C22 8530   3.992   4.651   7.956 -0.4465  0.4341  0.2495
   82CHL1  H22A 8531   3.976   4.760   7.943  2.2627  0.8440  0.1217
   82CHL1  H22B 8532   3.899   4.601   7.922  0.5571 -1.4434  0.1827
   82CHL1   C23 8533   4.009   4.641   8.106 -0.1153 -0.1544 -0.5936
   82CHL1  H23A 8534   3.922   4.696   8.150 -0.2606 -0.5260 -0.4119
   82CHL1  H23B 8535   3.997   4.532   8.122  2.3710 -0.3891 -0.1991
   82CHL1   C24 8536   4.142   4.699   8.145  0.6379  0.2535  0.0329
   82CHL1  H24A 8537   4.227   4.656   8.087 -0.9613 -2.3533 -0.4764
   82CHL1  H24B 8538   4.130   4.807   8.123 -1.7920 -0.0254 -0.1683
   82CHL1   C25 8539   4.160   4.690   8.300  0.6466  0.4006 -0.1200
   82CHL1   H25 8540   4.060   4.720   8.338 -0.1850  0.4843 -2.3269
   82CHL1   C26 8541   4.197   4.552   8.346 -0.4395  0.2576  0.2301
   82CHL1  H26A 8542   4.113   4.484   8.318 -0.3134  0.7327 -1.3243
   82CHL1  H26B 8543   4.289   4.516   8.297 -0.9190  0.8749 -1.1238
   82CHL1  H26C 8544   4.209   4.538   8.456  2.6193  2.8276  0.2735
   82CHL1   C27 8545   4.265   4.792   8.338  0.4449 -0.8109 -0.7384
   82CHL1  H27A 8546   4.243   4.895   8.304 -0.8285 -0.9350 -0.3182
   82CHL1  H27B 8547   4.292   4.798   8.446  0.6076  0.9969 -0.8721
   82CHL1  H27C 8548   4.358   4.764   8.283  0.5382  0.1248 -1.0695
   83CHL1    C3 8549   0.264   5.685   7.075 -1.1428  0.1751 -0.5121
   83CHL1    H3 8550   0.348   5.616   7.055 -0.8741  1.0047 -2.3832
   83CHL1    O3 8551   0.194   5.705   6.953 -0.6824  0.0916  0.2012
   83CHL1   H3' 8552   0.178   5.614   6.925  1.9312 -0.3366 -0.0683
   83CHL1    C4 8553   0.167   5.629   7.176  0.0389 -0.3433 -0.4080
   83CHL1   H4A 8554   0.086   5.704   7.184 -1.3026 -1.7735 -0.3379
   83CHL1   H4B 8555   0.112   5.536   7.148 -0.1268 -0.6001  0.7354
   83CHL1    C5 8556   0.239   5.604   7.312  0.2752  0.1406  0.1150
   83CHL1    C6 8557   0.246   5.483   7.363  0.4796  0.4943  0.3965
   83CHL1    H6 8558   0.183   5.405   7.318  1.0522  0.5359 -0.4832
   83CHL1    C7 8559   0.316   5.456   7.495 -0.1197  1.4163 -0.2081
   83CHL1   H7A 8560   0.259   5.382   7.555 -1.2012  1.2233 -1.4592
   83CHL1   H7B 8561   0.417   5.413   7.482 -0.8706 -2.0176  4.1679
   83CHL1    C8 8562   0.338   5.577   7.587 -0.5688  0.3027 -0.3145
   83CHL1    H8 8563   0.242   5.606   7.634 -0.0226  0.9157  0.4311
   83CHL1   C14 8564   0.435   5.551   7.695  0.0723  0.6872 -0.0171
   83CHL1   H14 8565   0.535   5.537   7.649 -1.4103 -1.7013 -2.6276
   83CHL1   C15 8566   0.414   5.428   7.772 -0.0002 -0.1728  0.5318
   83CHL1  H15A 8567   0.304   5.418   7.790  0.5737 -1.5506  3.6841
   83CHL1  H15B 8568   0.450   5.335   7.724  0.8998  1.0959 -1.2915
   83CHL1   C16 8569   0.469   5.454   7.911  0.4165 -0.5695  0.4349
   83CHL1  H16A 8570   0.393   5.454   7.992 -1.9324 -1.0694 -1.6979
   83CHL1  H16B 8571   0.542   5.377   7.941  1.2003  0.4957  1.2950
   83CHL1   C17 8572   0.541   5.597   7.906  0.1277  1.1041  0.4293
   83CHL1   H17 8573   0.641   5.581   7.862 -0.5443 -1.1868 -0.3319
   83CHL1   C13 8574   0.461   5.668   7.796 -0.5901 -0.4733 -0.2306
   83CHL1   C18 8575   0.320   5.705   7.859 -0.1056  0.5842 -0.3839
   83CHL1  H18A 8576   0.339   5.779   7.940 -1.5473  0.1251  0.4078
   83CHL1  H18B 8577   0.247   5.744   7.785 -0.0997 -0.8804 -1.1786
   83CHL1  H18C 8578   0.266   5.623   7.912 -0.4685  0.3620 -1.0984
   83CHL1   C12 8579   0.518   5.796   7.720 -0.2812 -0.1757  0.4599
   83CHL1  H12A 8580   0.507   5.885   7.785 -0.3688 -1.4208  2.1787
   83CHL1  H12B 8581   0.622   5.766   7.694 -0.9110 -1.0036 -1.2033
   83CHL1   C11 8582   0.445   5.821   7.582  0.5309  0.3100  0.5019
   83CHL1  H11A 8583   0.352   5.867   7.621  1.6568  0.8003  2.7209
   83CHL1  H11B 8584   0.501   5.882   7.508  0.4369 -1.7508 -1.3073
   83CHL1    C9 8585   0.402   5.690   7.504  0.6122  0.6878 -0.2337
   83CHL1    H9 8586   0.495   5.650   7.459  0.1370 -1.2474  0.4479
   83CHL1   C10 8587   0.308   5.729   7.381 -0.0263 -0.4793 -0.1141
   83CHL1   C19 8588   0.184   5.818   7.430  0.2744 -0.1028 -0.5166
   83CHL1  H19A 8589   0.140   5.747   7.504  0.7216 -0.1704 -0.3101
   83CHL1  H19B 8590   0.219   5.915   7.472 -0.4047  0.3954 -1.0904
   83CHL1  H19C 8591   0.108   5.830   7.351 -0.6970 -0.4991  0.3528
   83CHL1    C1 8592   0.394   5.807   7.268 -0.0769  0.0953 -1.2811
   83CHL1   H1A 8593   0.418   5.910   7.301 -0.1827 -0.2239 -0.1873
   83CHL1   H1B 8594   0.489   5.751   7.253  0.5809  0.8877 -0.1032
   83CHL1    C2 8595   0.323   5.822   7.130  0.0224  0.3884  0.1787
   83CHL1   H2A 8596   0.402   5.861   7.063  2.1637  1.7220  3.3250
   83CHL1   H2B 8597   0.238   5.895   7.127 -0.8259 -0.6114 -0.3446
   83CHL1   C20 8598   0.573   5.677   8.036  0.8464  0.7665 -0.1817
   83CHL1   H20 8599   0.479   5.719   8.076  1.2403  0.7171  0.8091
   83CHL1   C21 8600   0.661   5.805   8.028  0.9308 -0.0529 -0.1989
   83CHL1  H21A 8601   0.606   5.877   7.964  2.0574  1.7252  0.7840
   83CHL1  H21B 8602   0.755   5.793   7.969  0.7726  2.4207 -1.0095
   83CHL1  H21C 8603   0.694   5.849   8.124  2.0566 -1.6904  0.1896
   83CHL1   C22 8604   0.627   5.581   8.150  0.6080 -0.9216  0.2530
   83CHL1  H22A 8605   0.580   5.481   8.162  0.9658 -0.8814  2.2128
   83CHL1  H22B 8606   0.734   5.566   8.123  0.5476  0.8313 -1.0105
   83CHL1   C23 8607   0.594   5.633   8.294  0.1460 -0.7519  0.4626
   83CHL1  H23A 8608   0.657   5.724   8.306  0.2660 -0.7416 -0.2412
   83CHL1  H23B 8609   0.485   5.650   8.307  0.0403 -0.6694 -0.5399
   83CHL1   C24 8610   0.640   5.544   8.407 -0.2488  0.4641 -0.0888
   83CHL1  H24A 8611   0.598   5.442   8.396  1.5746 -0.2752 -0.5470
   83CHL1  H24B 8612   0.749   5.525   8.398  0.0526  2.3011 -0.6649
   83CHL1   C25 8613   0.612   5.609   8.544  0.0458  0.3048 -0.4196
   83CHL1   H25 8614   0.501   5.605   8.539  0.0526 -0.7411  0.2722
   83CHL1   C26 8615   0.649   5.517   8.659  0.3273 -0.1336  0.0431
   83CHL1  H26A 8616   0.625   5.413   8.627  0.4711 -1.1005  2.9422
   83CHL1  H26B 8617   0.759   5.527   8.672  0.1385  0.6838  1.0775
   83CHL1  H26C 8618   0.607   5.533   8.760 -1.2240  3.5338 -1.0906
   83CHL1   C27 8619   0.675   5.749   8.560  0.3691 -0.1298 -0.0388
   83CHL1  H27A 8620   0.782   5.736   8.535 -0.3723 -2.6221 -2.1095
   83CHL1  H27B 8621   0.632   5.818   8.484 -2.6672 -3.7819 -1.8273
   83CHL1  H27C 8622   0.656   5.786   8.663  0.8876 -1.4260  0.5226
   84CHL1    C3 8623   2.531   1.938   6.989 -0.2883  0.2979  0.3158
   84CHL1    H3 8624   2.427   1.976   7.000 -0.5651  0.2318 -1.8350
   84CHL1    O3 8625   2.589   1.975   6.864 -0.5267 -0.3735  0.1524
   84CHL1   H3' 8626   2.538   1.927   6.799  1.5082 -2.7059  0.2197
   84CHL1    C4 8627   2.623   2.005   7.098  0.2856  0.3691  0.1272
   84CHL1   H4A 8628   2.729   1.984   7.072 -0.7381 -0.6623 -3.4972
   84CHL1   H4B 8629   2.594   2.112   7.085 -1.0180  0.2306  1.7177
   84CHL1    C5 8630   2.607   1.961   7.238 -0.0616  0.0832 -0.8433
   84CHL1    C6 8631   2.583   2.049   7.338 -0.0530  0.3717 -0.5657
   84CHL1    H6 8632   2.583   2.157   7.314  0.6497  0.5199  0.0847
   84CHL1    C7 8633   2.575   2.008   7.484 -0.1144  0.1877 -0.1187
   84CHL1   H7A 8634   2.644   2.062   7.553 -0.6929  1.7318 -0.7176
   84CHL1   H7B 8635   2.470   2.029   7.514 -0.4956 -0.3947 -1.0147
   84CHL1    C8 8636   2.593   1.856   7.512 -0.5425 -0.7177 -0.0233
   84CHL1    H8 8637   2.704   1.846   7.515 -0.3789  1.0324  0.1485
   84CHL1   C14 8638   2.530   1.813   7.644  0.5666 -0.0332  0.1275
   84CHL1   H14 8639   2.426   1.844   7.622  1.4629  2.1837 -1.0976
   84CHL1   C15 8640   2.567   1.883   7.779 -0.5798 -0.5746 -0.0493
   84CHL1  H15A 8641   2.678   1.886   7.779 -0.5579  1.8074  3.4321
   84CHL1  H15B 8642   2.521   1.984   7.781  0.0925 -0.2698  0.4298
   84CHL1   C16 8643   2.532   1.787   7.887 -0.4176 -0.4280  0.2231
   84CHL1  H16A 8644   2.619   1.757   7.950  1.6384  1.4050 -1.6317
   84CHL1  H16B 8645   2.461   1.839   7.954 -0.9484 -0.3379 -0.4044
   84CHL1   C17 8646   2.468   1.665   7.816  0.5856  0.1360  0.3366
   84CHL1   H17 8647   2.358   1.674   7.805  0.2589 -3.8000 -0.5179
   84CHL1   C13 8648   2.529   1.664   7.676 -0.1417 -0.0970 -0.7013
   84CHL1   C18 8649   2.676   1.618   7.706  0.2473 -0.5153  0.1722
   84CHL1  H18A 8650   2.677   1.512   7.739  1.0619 -0.8878 -1.0167
   84CHL1  H18B 8651   2.753   1.629   7.626  0.7915  1.3576  0.9267
   84CHL1  H18C 8652   2.726   1.663   7.794 -0.9716  1.8333 -0.2794
   84CHL1   C12 8653   2.475   1.576   7.554  0.2248 -0.0379 -0.2918
   84CHL1  H12A 8654   2.476   1.467   7.572 -1.1460  0.1096  0.7243
   84CHL1  H12B 8655   2.369   1.603   7.536 -0.1524 -1.1476  0.2365
   84CHL1   C11 8656   2.551   1.617   7.429  0.1566 -0.6814 -0.3619
   84CHL1  H11A 8657   2.656   1.586   7.449 -0.5995 -2.1726  1.3730
   84CHL1  H11B 8658   2.519   1.549   7.348  0.7077  0.7035 -1.7664
   84CHL1    C9 8659   2.536   1.769   7.397 -0.7362 -0.1337 -0.0553
   84CHL1    H9 8660   2.427   1.793   7.397 -0.5469  0.7565 -1.2419
   84CHL1   C10 8661   2.595   1.802   7.260 -0.4287  0.0112  0.2024
   84CHL1   C19 8662   2.740   1.758   7.261 -0.3096  0.7535 -0.3649
   84CHL1  H19A 8663   2.788   1.781   7.358 -2.0909  0.2445  0.6719
   84CHL1  H19B 8664   2.748   1.647   7.255 -0.8830  0.7496 -1.2210
   84CHL1  H19C 8665   2.801   1.795   7.176 -0.7505  0.6964 -0.7076
   84CHL1    C1 8666   2.513   1.737   7.139  0.0362  0.2978  0.7240
   84CHL1   H1A 8667   2.528   1.627   7.139  0.1636  0.3144  0.8550
   84CHL1   H1B 8668   2.408   1.753   7.172 -0.4442 -1.1730 -0.0724
   84CHL1    C2 8669   2.547   1.788   7.000 -0.1719  0.5018 -0.0349
   84CHL1   H2A 8670   2.494   1.728   6.923  1.1153  0.1076 -0.6276
   84CHL1   H2B 8671   2.655   1.767   6.989 -0.7222 -2.9888  0.4368
   84CHL1   C20 8672   2.458   1.538   7.898 -0.6570  0.0730 -0.6302
   84CHL1   H20 8673   2.561   1.521   7.936 -0.6774  0.4203 -0.4200
   84CHL1   C21 8674   2.408   1.418   7.825  0.9511  0.0848  0.0459
   84CHL1  H21A 8675   2.327   1.440   7.753  1.9278 -1.7991 -1.6899
   84CHL1  H21B 8676   2.366   1.336   7.888 -0.1693 -0.5780 -1.5261
   84CHL1  H21C 8677   2.480   1.365   7.759 -1.3208  0.7997 -3.1109
   84CHL1   C22 8678   2.364   1.553   8.021 -0.1485  0.2393 -0.3261
   84CHL1  H22A 8679   2.369   1.659   8.051  1.5414  0.5106 -1.4866
   84CHL1  H22B 8680   2.258   1.537   7.992 -0.2742  0.5558 -0.0397
   84CHL1   C23 8681   2.396   1.478   8.149 -0.2374  0.2568  0.0231
   84CHL1  H23A 8682   2.398   1.368   8.132 -1.0385  0.3990 -1.0372
   84CHL1  H23B 8683   2.502   1.500   8.174 -0.3689 -0.2706  1.0952
   84CHL1   C24 8684   2.309   1.532   8.268  0.6788 -0.2403  0.0610
   84CHL1  H24A 8685   2.327   1.641   8.284 -0.2000 -0.3136  1.6877
   84CHL1  H24B 8686   2.200   1.524   8.247  0.6907  3.5169 -1.8375
   84CHL1   C25 8687   2.346   1.462   8.403 -0.3251 -0.2796 -0.0032
   84CHL1   H25 8688   2.353   1.357   8.365 -0.1779 -0.2912  0.0565
   84CHL1   C26 8689   2.480   1.518   8.453 -0.2415  0.1266  0.5936
   84CHL1  H26A 8690   2.471   1.628   8.447 -2.9835 -0.0331  1.1541
   84CHL1  H26B 8691   2.480   1.498   8.563  2.0730 -2.9541  0.1150
   84CHL1  H26C 8692   2.570   1.466   8.415 -1.1925 -0.8359 -0.3790
   84CHL1   C27 8693   2.232   1.462   8.499  0.0197  0.2693  0.3530
   84CHL1  H27A 8694   2.143   1.416   8.451 -0.9414  1.0841  1.3119
   84CHL1  H27B 8695   2.272   1.413   8.590 -2.5896  0.8137  1.8641
   84CHL1  H27C 8696   2.195   1.563   8.529  1.3586  0.7308  0.4619
   85CHL1    C3 8697   1.911   6.320   6.648  0.1260  0.9026  0.0838
   85CHL1    H3 8698   1.960   6.222   6.668 -0.2958  0.6020 -0.3604
   85CHL1    O3 8699   1.910   6.339   6.504 -0.8453  0.3974  0.3608
   85CHL1   H3' 8700   1.958   6.266   6.464 -1.8355  0.1969 -0.4961
   85CHL1    C4 8701   1.775   6.327   6.715 -0.3790  0.4610 -0.5822
   85CHL1   H4A 8702   1.732   6.427   6.693  0.5411  0.9091 -0.3838
   85CHL1   H4B 8703   1.702   6.254   6.675 -0.1559  1.2090 -2.4513
   85CHL1    C5 8704   1.785   6.304   6.863 -0.1358  0.4871 -0.3914
   85CHL1    C6 8705   1.728   6.197   6.913  0.2554  0.1533  0.1357
   85CHL1    H6 8706   1.657   6.142   6.849 -0.0748  1.2973 -0.4969
   85CHL1    C7 8707   1.733   6.144   7.051 -0.4962 -0.8017 -0.3924
   85CHL1   H7A 8708   1.624   6.144   7.076 -0.1223  1.0724  1.3954
   85CHL1   H7B 8709   1.788   6.048   7.044 -0.2998 -0.7092 -0.1387
   85CHL1    C8 8710   1.813   6.249   7.138  0.1715  0.2485  0.1185
   85CHL1    H8 8711   1.742   6.330   7.162  0.0321  0.0170  0.5011
   85CHL1   C14 8712   1.857   6.183   7.268  0.2122  0.3495 -0.4032
   85CHL1   H14 8713   1.921   6.095   7.245  1.1521  0.9982 -0.2966
   85CHL1   C15 8714   1.750   6.115   7.354  0.4755 -0.3136  0.1602
   85CHL1  H15A 8715   1.661   6.180   7.360  0.9280  0.1556  2.0681
   85CHL1  H15B 8716   1.709   6.022   7.308  0.2107  0.7634 -1.8269
   85CHL1   C16 8717   1.822   6.087   7.484  0.1802 -0.4742 -0.1818
   85CHL1  H16A 8718   1.750   6.119   7.562  1.0839 -1.4562  1.0946
   85CHL1  H16B 8719   1.856   5.981   7.492 -0.6011 -0.7748 -0.8160
   85CHL1   C17 8720   1.943   6.185   7.490 -0.2544 -0.5099 -0.2279
   85CHL1   H17 8721   2.027   6.120   7.458 -0.8217 -1.6764  0.6154
   85CHL1   C13 8722   1.933   6.280   7.367 -0.9227  0.2557  0.1724
   85CHL1   C18 8723   1.837   6.391   7.417  0.3643  0.1601  0.4394
   85CHL1  H18A 8724   1.760   6.421   7.344 -0.7581 -3.1231  0.1779
   85CHL1  H18B 8725   1.774   6.346   7.497 -0.1287 -0.7124 -0.4337
   85CHL1  H18C 8726   1.881   6.472   7.478  0.3023  0.3368  0.2489
   85CHL1   C12 8727   2.062   6.320   7.296 -0.1297  0.1238  0.2427
   85CHL1  H12A 8728   2.117   6.394   7.358 -0.2833 -1.2357  2.0615
   85CHL1  H12B 8729   2.126   6.231   7.275 -0.4567  0.0855 -0.5805
   85CHL1   C11 8730   2.032   6.388   7.161 -0.1033  0.1596  0.2158
   85CHL1  H11A 8731   1.988   6.487   7.186 -1.1423  0.0944 -1.3113
   85CHL1  H11B 8732   2.131   6.395   7.113  0.6745  2.9644  2.1250
   85CHL1    C9 8733   1.932   6.308   7.068 -0.0731 -0.3956 -0.0299
   85CHL1    H9 8734   1.991   6.215   7.049 -2.5954 -2.1528  0.4323
   85CHL1   C10 8735   1.894   6.380   6.942  0.0199 -0.5042 -0.7296
   85CHL1   C19 8736   1.827   6.514   6.970 -0.0779 -0.4977  0.2875
   85CHL1  H19A 8737   1.797   6.568   6.878 -0.8876 -0.3190  0.6496
   85CHL1  H19B 8738   1.744   6.515   7.045 -2.7390  1.0101 -2.5688
   85CHL1  H19C 8739   1.895   6.587   7.017 -1.0916 -0.0045  1.0094
   85CHL1    C1 8740   2.033   6.393   6.860  0.1026 -0.3631  0.5819
   85CHL1   H1A 8741   2.090   6.480   6.899 -0.1385 -0.7843  1.9028
   85CHL1   H1B 8742   2.089   6.297   6.863  1.5411  0.2883 -3.1009
   85CHL1    C2 8743   2.001   6.428   6.712  0.2479 -0.5583  0.1114
   85CHL1   H2A 8744   2.098   6.416   6.661 -0.8105 -1.1167 -1.8093
   85CHL1   H2B 8745   1.959   6.530   6.697  0.8324 -0.3825 -0.3133
   85CHL1   C20 8746   1.983   6.237   7.632 -0.4567  0.3221 -0.5671
   85CHL1   H20 8747   1.903   6.304   7.670 -0.7235  0.1867 -0.8930
   85CHL1   C21 8748   2.107   6.325   7.629  0.0071 -0.4784 -0.2531
   85CHL1  H21A 8749   2.192   6.268   7.585  0.9893  0.2239  0.6931
   85CHL1  H21B 8750   2.139   6.347   7.733  3.2291 -2.2295 -0.7947
   85CHL1  H21C 8751   2.087   6.414   7.566 -2.6606 -1.3740 -0.7413
   85CHL1   C22 8752   2.001   6.112   7.730 -0.1470  0.1325  0.1995
   85CHL1  H22A 8753   1.915   6.042   7.728 -0.0193 -0.0769  1.5845
   85CHL1  H22B 8754   2.094   6.065   7.693 -0.8026 -1.3626  0.4088
   85CHL1   C23 8755   2.012   6.148   7.881  0.7789 -0.2366  0.4535
   85CHL1  H23A 8756   2.103   6.212   7.884  1.6678 -1.5454  2.2743
   85CHL1  H23B 8757   1.929   6.206   7.926 -0.2682 -0.1603 -1.5386
   85CHL1   C24 8758   2.048   6.023   7.963 -0.5180  0.6776  0.3805
   85CHL1  H24A 8759   1.957   5.959   7.970 -1.2138  1.4584 -1.2007
   85CHL1  H24B 8760   2.123   5.970   7.901 -0.4979  1.3882 -0.2090
   85CHL1   C25 8761   2.110   6.042   8.101  0.4684 -0.1440 -0.3857
   85CHL1   H25 8762   2.206   6.097   8.095  0.1951  0.3117 -0.6157
   85CHL1   C26 8763   2.016   6.134   8.192  0.1382  0.5046  0.0211
   85CHL1  H26A 8764   1.910   6.104   8.175  0.3229 -0.4237  0.4413
   85CHL1  H26B 8765   2.040   6.102   8.296 -0.0360  0.2143 -0.0292
   85CHL1  H26C 8766   2.047   6.240   8.179  1.3322  0.0927 -0.5443
   85CHL1   C27 8767   2.146   5.907   8.176  0.2230 -0.1367 -0.7240
   85CHL1  H27A 8768   2.238   5.920   8.237 -1.2525  0.6593  1.3919
   85CHL1  H27B 8769   2.067   5.869   8.243  0.1191  0.6020 -0.4265
   85CHL1  H27C 8770   2.169   5.819   8.111 -1.3485  0.5836 -2.3049
   86CHL1    C3 8771   4.335   3.485   6.971  0.0596 -0.5783  0.0854
   86CHL1    H3 8772   4.356   3.376   6.963  1.3970 -0.3049 -0.2882
   86CHL1    O3 8773   4.333   3.535   6.836  0.8980 -0.2676 -0.1105
   86CHL1   H3' 8774   4.316   3.629   6.847 -1.2813 -0.6928  0.5199
   86CHL1    C4 8775   4.198   3.525   7.043 -0.2973  0.1192 -0.0288
   86CHL1   H4A 8776   4.190   3.634   7.024 -0.5136  0.5235  2.1839
   86CHL1   H4B 8777   4.120   3.471   6.987 -0.1615 -1.5817  1.3895
   86CHL1    C5 8778   4.201   3.495   7.190  0.1592  0.3212  0.1313
   86CHL1    C6 8779   4.107   3.431   7.258  0.2183  0.0635 -0.4748
   86CHL1    H6 8780   4.022   3.384   7.207 -1.5186  1.3550  1.1421
   86CHL1    C7 8781   4.105   3.417   7.406 -0.4046 -0.8790  0.5090
   86CHL1   H7A 8782   4.003   3.433   7.448 -1.0270 -2.0565 -0.5193
   86CHL1   H7B 8783   4.146   3.320   7.441 -0.2572 -0.9559  0.1293
   86CHL1    C8 8784   4.194   3.526   7.471  0.6792 -0.3420 -0.0426
   86CHL1    H8 8785   4.153   3.629   7.470  2.7200  0.5127  1.0500
   86CHL1   C14 8786   4.201   3.493   7.625 -0.7591  0.5074  0.3800
   86CHL1   H14 8787   4.246   3.391   7.626  0.3924  1.0000  0.4636
   86CHL1   C15 8788   4.069   3.469   7.704  1.3827 -0.3918 -0.5754
   86CHL1  H15A 8789   3.998   3.548   7.670  1.5584 -0.8362 -2.0359
   86CHL1  H15B 8790   4.033   3.366   7.684  0.4484  0.0568 -1.2555
   86CHL1   C16 8791   4.113   3.483   7.849 -0.0654 -0.6022  0.0410
   86CHL1  H16A 8792   4.039   3.539   7.910 -0.2364  0.7479 -1.3586
   86CHL1  H16B 8793   4.115   3.383   7.897 -3.0494 -1.0390 -0.6457
   86CHL1   C17 8794   4.259   3.541   7.850  0.0399  0.2162  0.8171
   86CHL1   H17 8795   4.327   3.455   7.864  3.2106  2.9672  2.9699
   86CHL1   C13 8796   4.286   3.593   7.708 -0.3008  0.0626  0.3937
   86CHL1   C18 8797   4.238   3.736   7.704  0.2828  0.0791 -0.0581
   86CHL1  H18A 8798   4.220   3.767   7.599 -0.6685  0.8132  0.3169
   86CHL1  H18B 8799   4.147   3.759   7.764  0.7763  1.8779  0.0362
   86CHL1  H18C 8800   4.313   3.811   7.738 -2.0165  1.8388  1.2702
   86CHL1   C12 8801   4.430   3.575   7.653 -0.5174 -0.4626  0.5354
   86CHL1  H12A 8802   4.493   3.655   7.698 -2.1392  0.5379  1.0822
   86CHL1  H12B 8803   4.471   3.473   7.668 -0.1750 -0.6207 -1.4478
   86CHL1   C11 8804   4.436   3.607   7.500  0.2219  0.2275 -0.8576
   86CHL1  H11A 8805   4.425   3.718   7.492  0.4169  0.1761 -1.8568
   86CHL1  H11B 8806   4.539   3.599   7.460  1.4226  0.8832  1.9763
   86CHL1    C9 8807   4.336   3.526   7.415 -0.1784 -0.0142  0.3117
   86CHL1    H9 8808   4.377   3.423   7.420  0.5308  0.0814 -2.8622
   86CHL1   C10 8809   4.320   3.565   7.262  0.0938 -0.0366  0.4718
   86CHL1   C19 8810   4.292   3.716   7.241 -0.1202  0.0983 -0.2127
   86CHL1  H19A 8811   4.356   3.780   7.306 -1.0537  1.2084 -0.3872
   86CHL1  H19B 8812   4.312   3.748   7.136  2.0827  1.0349  0.4440
   86CHL1  H19C 8813   4.192   3.742   7.280  0.6742  1.3506  1.0425
   86CHL1    C1 8814   4.457   3.530   7.188  0.2769  0.7674 -0.4437
   86CHL1   H1A 8815   4.545   3.567   7.244  1.0821 -1.2757 -0.3143
   86CHL1   H1B 8816   4.479   3.421   7.194 -1.9107  0.3188 -0.1275
   86CHL1    C2 8817   4.460   3.551   7.032  0.0478 -0.0589  0.4659
   86CHL1   H2A 8818   4.553   3.506   6.993  0.3971  0.6569  0.4666
   86CHL1   H2B 8819   4.462   3.661   7.020 -1.8946  0.0340  0.7632
   86CHL1   C20 8820   4.284   3.632   7.974  0.1131 -0.3331  0.0684
   86CHL1   H20 8821   4.223   3.723   7.956 -1.0720 -1.2499 -0.6535
   86CHL1   C21 8822   4.434   3.688   7.983 -0.2460 -0.1217  0.0049
   86CHL1  H21A 8823   4.502   3.603   8.006  0.9537  1.1301  1.1542
   86CHL1  H21B 8824   4.434   3.760   8.067 -1.3544  0.6160 -0.6246
   86CHL1  H21C 8825   4.463   3.741   7.890 -2.1842  1.8674  0.5041
   86CHL1   C22 8826   4.243   3.567   8.111  0.0682  0.2288 -0.0295
   86CHL1  H22A 8827   4.254   3.641   8.194  0.6210  0.7232 -0.5405
   86CHL1  H22B 8828   4.136   3.538   8.105  0.0195  0.4754 -0.3207
   86CHL1   C23 8829   4.325   3.442   8.156  0.0024 -0.6100 -0.8100
   86CHL1  H23A 8830   4.314   3.361   8.080  0.2765 -2.8245  1.4201
   86CHL1  H23B 8831   4.432   3.469   8.155 -0.1057 -0.2281 -2.1530
   86CHL1   C24 8832   4.286   3.403   8.301 -0.5072  0.3357 -0.3433
   86CHL1  H24A 8833   4.296   3.494   8.364  0.2992  0.7480 -1.0551
   86CHL1  H24B 8834   4.179   3.377   8.307 -0.0986 -1.6180 -1.0911
   86CHL1   C25 8835   4.379   3.303   8.360  0.1491 -0.7196  0.1785
   86CHL1   H25 8836   4.478   3.353   8.363 -0.0052 -0.2989 -1.2633
   86CHL1   C26 8837   4.337   3.265   8.504 -0.3279 -0.7345 -0.3671
   86CHL1  H26A 8838   4.401   3.189   8.554 -0.5590 -0.4751  0.3280
   86CHL1  H26B 8839   4.343   3.357   8.566  0.6251 -0.7612 -0.4134
   86CHL1  H26C 8840   4.230   3.233   8.508  0.0936 -2.4612 -2.0545
   86CHL1   C27 8841   4.401   3.175   8.279  0.0401 -0.3175 -0.1663
   86CHL1  H27A 8842   4.492   3.132   8.326  0.1668  1.6789  1.5102
   86CHL1  H27B 8843   4.320   3.101   8.297 -1.5345  1.8948  2.1093
   86CHL1  H27C 8844   4.423   3.203   8.174  0.3763  1.7969  0.4515
   87CHL1    C3 8845   5.097   1.832   6.998  0.1043 -0.0528 -0.5802
   87CHL1    H3 8846   5.165   1.745   7.009  0.5505  0.3850  0.1526
   87CHL1    O3 8847   5.152   1.919   6.904 -0.3198 -0.5326 -0.4768
   87CHL1   H3' 8848   5.073   1.964   6.872 -0.4436 -0.7434 -0.4645
   87CHL1    C4 8849   4.953   1.784   6.948  0.2233  0.5569  0.3387
   87CHL1   H4A 8850   4.905   1.874   6.903  0.3825 -0.6595 -2.3619
   87CHL1   H4B 8851   4.966   1.719   6.860  1.0188  2.3215 -0.8684
   87CHL1    C5 8852   4.877   1.712   7.060  0.2308  0.3068  0.0616
   87CHL1    C6 8853   4.824   1.588   7.044 -0.4233  0.3575 -0.1093
   87CHL1    H6 8854   4.828   1.533   6.948 -2.5329 -1.8395  0.9876
   87CHL1    C7 8855   4.731   1.521   7.146 -0.2572 -0.1612 -0.3457
   87CHL1   H7A 8856   4.637   1.478   7.106  0.1632 -1.9811  0.5650
   87CHL1   H7B 8857   4.779   1.429   7.186 -0.2135 -0.6225 -1.4575
   87CHL1    C8 8858   4.699   1.619   7.261  0.6383 -0.3123 -0.5554
   87CHL1    H8 8859   4.610   1.679   7.232 -1.1592 -1.9875  1.2887
   87CHL1   C14 8860   4.645   1.550   7.388 -0.4053  0.4347  0.1312
   87CHL1   H14 8861   4.728   1.495   7.437 -2.6012 -0.9709  2.3767
   87CHL1   C15 8862   4.541   1.431   7.366 -0.4262  0.4948 -0.4095
   87CHL1  H15A 8863   4.475   1.462   7.282  1.7016  3.8719 -0.9688
   87CHL1  H15B 8864   4.595   1.339   7.335 -0.8423  0.0980  0.0434
   87CHL1   C16 8865   4.473   1.411   7.499  0.0990  0.5114 -0.1977
   87CHL1  H16A 8866   4.362   1.416   7.495  0.0353  0.6301  1.3692
   87CHL1  H16B 8867   4.503   1.313   7.542  1.5323 -0.0203 -2.3226
   87CHL1   C17 8868   4.527   1.520   7.596 -0.8167 -0.1140 -0.0517
   87CHL1   H17 8869   4.616   1.474   7.644 -0.0440  0.8983 -0.4994
   87CHL1   C13 8870   4.585   1.632   7.503 -0.6029  0.3218 -0.3728
   87CHL1   C18 8871   4.464   1.725   7.466  0.1582 -0.2345 -0.2823
   87CHL1  H18A 8872   4.434   1.780   7.558  0.5198  0.1727 -0.4027
   87CHL1  H18B 8873   4.490   1.796   7.385 -1.1154  2.3249  1.4760
   87CHL1  H18C 8874   4.389   1.651   7.431  1.1711 -1.2039 -0.4095
   87CHL1   C12 8875   4.711   1.712   7.553  0.3692  0.0897 -0.6424
   87CHL1  H12A 8876   4.681   1.780   7.636  0.6673  0.6559 -0.9951
   87CHL1  H12B 8877   4.776   1.635   7.598 -0.6169  0.8159  2.1451
   87CHL1   C11 8878   4.771   1.796   7.436 -0.8494 -0.1584 -0.6051
   87CHL1  H11A 8879   4.698   1.878   7.418 -1.0063  0.2380  1.7148
   87CHL1  H11B 8880   4.867   1.832   7.478 -2.3807  1.7745  1.3919
   87CHL1    C9 8881   4.811   1.715   7.305 -0.1689  0.7177  0.2564
   87CHL1    H9 8882   4.888   1.646   7.345 -0.0057  1.4281  1.1977
   87CHL1   C10 8883   4.867   1.798   7.192 -0.0877 -0.0190 -0.7722
   87CHL1   C19 8884   4.784   1.928   7.164  0.0723 -0.0864  0.0515
   87CHL1  H19A 8885   4.674   1.914   7.151 -0.1658  3.6596 -2.9770
   87CHL1  H19B 8886   4.805   1.988   7.255  0.0796  0.2682 -0.1860
   87CHL1  H19C 8887   4.826   1.989   7.082 -0.6030 -0.8676 -0.8936
   87CHL1    C1 8888   5.017   1.835   7.230 -0.3821  0.7435 -0.3781
   87CHL1   H1A 8889   5.016   1.893   7.325  0.8014  1.9090 -1.0621
   87CHL1   H1B 8890   5.074   1.745   7.261 -1.3543  0.5572  0.8954
   87CHL1    C2 8891   5.087   1.920   7.118  0.3617  0.0963  0.2986
   87CHL1   H2A 8892   5.191   1.942   7.151  0.7272 -0.4285 -0.4902
   87CHL1   H2B 8893   5.024   2.010   7.102 -1.3971 -0.9426  1.2075
   87CHL1   C20 8894   4.430   1.564   7.709  0.1731 -0.5696 -0.7731
   87CHL1   H20 8895   4.343   1.614   7.662  2.5796  1.9314 -2.6812
   87CHL1   C21 8896   4.505   1.663   7.804 -0.2811 -0.3864  0.2327
   87CHL1  H21A 8897   4.543   1.756   7.758 -0.4084 -1.5221 -2.2529
   87CHL1  H21B 8898   4.596   1.616   7.847  0.4153  0.4944 -0.2566
   87CHL1  H21C 8899   4.435   1.701   7.882 -0.2167  0.0028  0.0965
   87CHL1   C22 8900   4.377   1.440   7.790 -0.5262  0.6430  0.0701
   87CHL1  H22A 8901   4.316   1.369   7.729 -0.6751 -0.8510  1.9142
   87CHL1  H22B 8902   4.456   1.382   7.842 -2.1054  0.4541  2.3678
   87CHL1   C23 8903   4.264   1.483   7.894  0.1161 -0.8208 -0.0154
   87CHL1  H23A 8904   4.314   1.553   7.965 -2.2159  0.4433  0.4438
   87CHL1  H23B 8905   4.188   1.539   7.835  2.0503  0.7178 -1.1282
   87CHL1   C24 8906   4.191   1.372   7.973  0.3284  0.5779 -0.3556
   87CHL1  H24A 8907   4.134   1.308   7.902  2.1651  0.6300 -1.9446
   87CHL1  H24B 8908   4.260   1.302   8.025  0.1612  2.1861  2.1222
   87CHL1   C25 8909   4.091   1.410   8.087  0.6370 -0.3255 -0.4102
   87CHL1   H25 8910   4.014   1.475   8.042 -0.6143 -1.4045  0.1407
   87CHL1   C26 8911   4.023   1.283   8.152  0.0302 -0.3865  0.5808
   87CHL1  H26A 8912   4.100   1.205   8.168  1.8622  0.6367 -2.6581
   87CHL1  H26B 8913   3.979   1.308   8.251  1.3199  1.9263  0.6018
   87CHL1  H26C 8914   3.950   1.234   8.083  0.1014  2.0373 -1.2759
   87CHL1   C27 8915   4.166   1.482   8.203  0.3112 -0.3917  0.3522
   87CHL1  H27A 8916   4.095   1.531   8.273 -1.2287 -0.7499 -0.9219
   87CHL1  H27B 8917   4.245   1.416   8.246  0.6735  0.9272  1.7406
   87CHL1  H27C 8918   4.217   1.569   8.157  1.2013 -0.7042  0.7265
   88CHL1    C3 8919   1.852   0.675   7.045  0.2120  0.5753  0.8744
   88CHL1    H3 8920   1.963   0.677   7.035 -0.0053  2.6937 -1.5488
   88CHL1    O3 8921   1.796   0.695   6.920  0.1846 -0.4896  0.3209
   88CHL1   H3' 8922   1.707   0.659   6.921  0.2984 -0.7465  1.2176
   88CHL1    C4 8923   1.797   0.548   7.100 -0.9437 -1.2630 -0.3094
   88CHL1   H4A 8924   1.687   0.553   7.117 -0.8515  0.1183 -0.0869
   88CHL1   H4B 8925   1.840   0.467   7.037  1.2751 -0.5567  0.2682
   88CHL1    C5 8926   1.843   0.538   7.241  0.4249 -0.3971  0.3064
   88CHL1    C6 8927   1.917   0.432   7.289 -0.6131  0.0392 -0.0975
   88CHL1    H6 8928   1.941   0.348   7.223  0.6197  0.0951  0.2550
   88CHL1    C7 8929   1.950   0.405   7.429  0.3684 -0.0292  0.0498
   88CHL1   H7A 8930   1.945   0.296   7.448  3.0796 -0.0594  0.8950
   88CHL1   H7B 8931   2.055   0.436   7.452 -0.4980  1.3647  2.3321
   88CHL1    C8 8932   1.861   0.486   7.526 -0.5342  0.0905 -0.2000
   88CHL1    H8 8933   1.759   0.441   7.520  0.3169 -1.8840 -0.4654
   88CHL1   C14 8934   1.916   0.468   7.673  0.0591 -0.3135 -0.0397
   88CHL1   H14 8935   2.025   0.488   7.670  0.2616 -0.9013  2.3523
   88CHL1   C15 8936   1.898   0.331   7.731 -0.2241 -0.4144 -0.4612
   88CHL1  H15A 8937   1.804   0.283   7.697  0.2422 -1.3328 -0.4748
   88CHL1  H15B 8938   1.972   0.257   7.695  0.8747  1.3452 -1.9001
   88CHL1   C16 8939   1.907   0.350   7.884  0.4385  0.5825 -0.8441
   88CHL1  H16A 8940   1.819   0.295   7.924  0.1681 -0.4815 -2.8141
   88CHL1  H16B 8941   2.005   0.311   7.917 -0.0159  0.4307  0.3415
   88CHL1   C17 8942   1.904   0.506   7.908  0.7038 -0.7411  0.0687
   88CHL1   H17 8943   2.010   0.539   7.905  0.7357 -0.9120 -1.0813
   88CHL1   C13 8944   1.855   0.568   7.768 -0.1228  0.1316  0.0932
   88CHL1   C18 8945   1.695   0.552   7.774  0.3303  1.1804  0.0996
   88CHL1  H18A 8946   1.651   0.630   7.840  1.1412  0.0873  1.9719
   88CHL1  H18B 8947   1.656   0.558   7.670 -2.0865 -0.3447  0.8997
   88CHL1  H18C 8948   1.665   0.455   7.818  1.5874  1.7281  2.2385
   88CHL1   C12 8949   1.899   0.704   7.721 -0.2554  0.3161 -0.6011
   88CHL1  H12A 8950   1.883   0.788   7.792 -0.2706  0.5645 -0.8963
   88CHL1  H12B 8951   2.009   0.699   7.712 -0.1036 -0.4522  1.5036
   88CHL1   C11 8952   1.840   0.745   7.588  0.5683 -0.3109  0.5410
   88CHL1  H11A 8953   1.731   0.760   7.603  1.3906  2.2660  4.6383
   88CHL1  H11B 8954   1.880   0.844   7.558 -2.8574  0.3205 -2.1932
   88CHL1    C9 8955   1.874   0.631   7.482  0.4933  0.1767  0.3239
   88CHL1    H9 8956   1.984   0.643   7.470  0.5430 -1.9022 -1.6008
   88CHL1   C10 8957   1.813   0.656   7.338 -0.7302 -0.0367 -0.4056
   88CHL1   C19 8958   1.660   0.667   7.345 -0.2847 -0.4032 -0.0608
   88CHL1  H19A 8959   1.618   0.569   7.377 -1.2552 -0.7357 -2.2373
   88CHL1  H19B 8960   1.626   0.735   7.426  0.8694 -0.3589  0.3885
   88CHL1  H19C 8961   1.617   0.700   7.248 -0.4975 -0.9389 -0.1507
   88CHL1    C1 8962   1.870   0.788   7.272 -0.6483 -0.7412 -0.2817
   88CHL1   H1A 8963   1.835   0.875   7.331 -1.5424 -0.4447 -1.2278
   88CHL1   H1B 8964   1.981   0.790   7.267 -0.5543 -3.5720  0.2747
   88CHL1    C2 8965   1.813   0.795   7.128  0.0229 -0.3981 -0.0559
   88CHL1   H2A 8966   1.872   0.879   7.087 -0.3277  0.0653  0.3870
   88CHL1   H2B 8967   1.706   0.821   7.120 -0.4773 -1.8852  1.3775
   88CHL1   C20 8968   1.836   0.551   8.036 -0.0064  0.1660  0.7208
   88CHL1   H20 8969   1.727   0.530   8.038  0.0168  0.0578  0.9525
   88CHL1   C21 8970   1.847   0.707   8.047 -0.2549 -0.4877 -0.9328
   88CHL1  H21A 8971   1.954   0.736   8.049 -0.3170 -0.2993  0.4982
   88CHL1  H21B 8972   1.802   0.750   8.139 -1.3767 -1.0305 -1.2181
   88CHL1  H21C 8973   1.791   0.762   7.969  1.4344  1.5734 -0.7399
   88CHL1   C22 8974   1.905   0.493   8.167 -0.3373  0.1424 -0.5393
   88CHL1  H22A 8975   1.910   0.382   8.156 -0.7122 -0.0386  0.9576
   88CHL1  H22B 8976   2.006   0.535   8.183 -0.2666  0.4820 -1.8770
   88CHL1   C23 8977   1.825   0.522   8.290  0.1507 -0.2481 -0.2941
   88CHL1  H23A 8978   1.825   0.630   8.314  0.3514 -0.1590 -0.6929
   88CHL1  H23B 8979   1.725   0.474   8.282  0.2800 -0.7690  0.9960
   88CHL1   C24 8980   1.885   0.453   8.415 -0.7193  0.2429 -0.0806
   88CHL1  H24A 8981   1.876   0.345   8.391  0.2748  0.8773 -3.6973
   88CHL1  H24B 8982   1.986   0.489   8.443 -0.0659 -1.8854  0.3707
   88CHL1   C25 8983   1.798   0.490   8.541  0.2760  0.0137  0.5131
   88CHL1   H25 8984   1.691   0.474   8.519  0.4173 -0.5983  0.2522
   88CHL1   C26 8985   1.828   0.391   8.655  0.0873  0.1891 -0.3070
   88CHL1  H26A 8986   1.817   0.293   8.605 -2.5983 -0.1644  0.8846
   88CHL1  H26B 8987   1.937   0.397   8.676  0.3730  0.5711 -1.8736
   88CHL1  H26C 8988   1.763   0.398   8.746  1.1138 -0.9003  0.5343
   88CHL1   C27 8989   1.807   0.632   8.585 -0.4710 -0.0379  0.1131
   88CHL1  H27A 8990   1.750   0.646   8.680 -1.1449 -0.3452 -0.2383
   88CHL1  H27B 8991   1.914   0.647   8.608 -0.5926 -0.3998  0.9160
   88CHL1  H27C 8992   1.766   0.708   8.515  3.8235  0.9579 -1.4430
   89CHL1    C3 8993   4.933   3.253   7.096  0.6515  0.7284  0.8547
   89CHL1    H3 8994   4.948   3.145   7.116  2.6283  0.2022 -3.0283
   89CHL1    O3 8995   4.944   3.287   6.961  0.4900 -0.7383 -0.3249
   89CHL1   H3' 8996   4.876   3.232   6.920 -0.8221  0.3173  0.3989
   89CHL1    C4 8997   4.784   3.279   7.145 -0.3554 -0.5327  0.3430
   89CHL1   H4A 8998   4.760   3.382   7.112 -0.2757  0.6171  3.6385
   89CHL1   H4B 8999   4.706   3.218   7.095 -1.7152  0.0670  1.7049
   89CHL1    C5 9000   4.774   3.260   7.295  0.1177  0.1554 -0.2515
   89CHL1    C6 9001   4.676   3.185   7.354 -0.5713  0.0309 -0.3382
   89CHL1    H6 9002   4.609   3.129   7.287  0.0711 -1.4572  0.2545
   89CHL1    C7 9003   4.660   3.182   7.502  0.1731  0.1055 -0.4771
   89CHL1   H7A 9004   4.553   3.198   7.527  0.7771  2.4374  0.6730
   89CHL1   H7B 9005   4.677   3.075   7.528 -2.0496  0.4472  2.7188
   89CHL1    C8 9006   4.740   3.276   7.588  0.0752 -0.5625  0.0626
   89CHL1    H8 9007   4.697   3.378   7.580  1.7410  0.0306 -1.7837
   89CHL1   C14 9008   4.753   3.227   7.728  0.3707  0.9269 -0.4177
   89CHL1   H14 9009   4.815   3.135   7.722 -0.6295  0.2754 -1.0506
   89CHL1   C15 9010   4.621   3.186   7.801 -0.5439  0.1692  0.4807
   89CHL1  H15A 9011   4.537   3.250   7.766  0.9307  1.2426 -1.1975
   89CHL1  H15B 9012   4.592   3.085   7.766  3.0894 -1.4959  2.0659
   89CHL1   C16 9013   4.650   3.194   7.950 -0.6173  0.2801 -0.5341
   89CHL1  H16A 9014   4.577   3.270   7.985  0.3354 -0.5145  3.4049
   89CHL1  H16B 9015   4.631   3.100   8.005 -1.0128 -0.5998 -2.1347
   89CHL1   C17 9016   4.796   3.243   7.955 -0.9564  0.1495 -0.2695
   89CHL1   H17 9017   4.854   3.148   7.948 -1.0923 -0.0139  0.6612
   89CHL1   C13 9018   4.820   3.325   7.822 -0.0115 -0.1223  0.1738
   89CHL1   C18 9019   4.749   3.461   7.835 -0.5846 -0.3890  0.3774
   89CHL1  H18A 9020   4.764   3.522   7.743 -2.2973 -1.7789 -0.8631
   89CHL1  H18B 9021   4.639   3.456   7.851 -0.7977  2.5237  0.1269
   89CHL1  H18C 9022   4.783   3.525   7.919  0.1862  1.1121 -1.0319
   89CHL1   C12 9023   4.962   3.338   7.775  0.0952 -0.1886  0.1647
   89CHL1  H12A 9024   5.016   3.409   7.841  0.9350 -1.9023  1.3535
   89CHL1  H12B 9025   5.013   3.240   7.787 -1.2223 -0.7794  0.9615
   89CHL1   C11 9026   4.968   3.387   7.621 -0.6521  0.0027  0.4012
   89CHL1  H11A 9027   4.931   3.491   7.619 -0.9366 -0.0875  0.8954
   89CHL1  H11B 9028   5.074   3.375   7.592 -0.5723 -2.1564  1.4307
   89CHL1    C9 9029   4.883   3.295   7.523 -0.0725 -0.6443 -0.8954
   89CHL1    H9 9030   4.916   3.190   7.532 -1.2031 -0.9497 -0.2590
   89CHL1   C10 9031   4.883   3.338   7.373  0.6788  0.8114 -0.5909
   89CHL1   C19 9032   4.848   3.487   7.363  0.2330 -0.5700 -0.4367
   89CHL1  H19A 9033   4.835   3.520   7.257 -0.3531  1.5939  0.2848
   89CHL1  H19B 9034   4.758   3.517   7.421  1.1903  0.5788  0.4893
   89CHL1  H19C 9035   4.932   3.555   7.389  1.1924 -0.4924 -3.4634
   89CHL1    C1 9036   5.026   3.315   7.320 -0.0228 -0.1593 -0.2736
   89CHL1   H1A 9037   5.099   3.384   7.368 -1.3682 -0.5179  2.3436
   89CHL1   H1B 9038   5.050   3.212   7.353 -3.2751 -0.9833 -0.3381
   89CHL1    C2 9039   5.041   3.331   7.169 -0.7743 -0.4175  0.2747
   89CHL1   H2A 9040   5.143   3.291   7.151  0.2144  1.9888  0.3451
   89CHL1   H2B 9041   5.047   3.436   7.135 -1.2035  0.0903  1.7365
   89CHL1   C20 9042   4.841   3.296   8.094 -0.6319 -0.6232 -0.5410
   89CHL1   H20 9043   4.794   3.394   8.115  1.6844  0.8366 -1.8611
   89CHL1   C21 9044   4.998   3.324   8.098 -0.3014 -0.2497 -0.2513
   89CHL1  H21A 9045   5.071   3.261   8.043  0.5267  0.4118  0.0717
   89CHL1  H21B 9046   5.029   3.310   8.204  0.3713 -0.7868 -0.5147
   89CHL1  H21C 9047   5.027   3.429   8.075 -1.6932  0.7818  2.4663
   89CHL1   C22 9048   4.802   3.216   8.219 -0.0764 -0.9902 -0.0092
   89CHL1  H22A 9049   4.838   3.268   8.311 -0.7012  0.1467 -0.3959
   89CHL1  H22B 9050   4.692   3.232   8.229  0.4511  1.2302  2.8402
   89CHL1   C23 9051   4.835   3.063   8.229  0.3201 -0.1828 -0.6085
   89CHL1  H23A 9052   4.765   3.016   8.156  0.1734 -1.4707  0.3645
   89CHL1  H23B 9053   4.942   3.044   8.207  1.0762  1.8688  1.1876
   89CHL1   C24 9054   4.813   2.996   8.363  0.2239 -0.3988 -0.0664
   89CHL1  H24A 9055   4.718   3.036   8.406  0.5433  0.5876 -0.2760
   89CHL1  H24B 9056   4.800   2.886   8.350  0.6479 -0.2726 -1.5962
   89CHL1   C25 9057   4.930   3.006   8.462 -0.7535 -0.2885  0.1764
   89CHL1   H25 9058   4.971   3.108   8.444 -0.4761 -0.5712 -0.8856
   89CHL1   C26 9059   4.897   3.012   8.621 -0.2319  0.7566  0.3917
   89CHL1  H26A 9060   4.838   2.923   8.653  0.3169  0.6011  0.9813
   89CHL1  H26B 9061   4.996   3.006   8.673  0.6990  0.9757 -1.3338
   89CHL1  H26C 9062   4.844   3.105   8.651  2.6829  2.8353 -0.6794
   89CHL1   C27 9063   5.033   2.900   8.447  0.8181  1.0466 -0.4697
   89CHL1  H27A 9064   5.031   2.868   8.341  0.1884  1.0152 -0.4456
   89CHL1  H27B 9065   5.133   2.936   8.480  1.0221 -0.5223  0.6660
   89CHL1  H27C 9066   5.005   2.808   8.503  0.6188 -1.7328 -4.8859
   90CHL1    C3 9067   4.895   5.430   6.930 -0.4505  0.0259  0.0639
   90CHL1    H3 9068   4.844   5.332   6.920 -0.9595  0.0858  1.8766
   90CHL1    O3 9069   4.899   5.477   6.793 -0.3934 -0.4011 -0.4716
   90CHL1   H3' 9070   4.830   5.433   6.743 -1.2672 -1.2109  1.4077
   90CHL1    C4 9071   4.821   5.529   7.031  0.3306  0.2683  0.0283
   90CHL1   H4A 9072   4.872   5.628   7.036 -0.5306  0.7578 -0.5631
   90CHL1   H4B 9073   4.716   5.545   6.997  0.1631 -0.5507  0.1596
   90CHL1    C5 9074   4.827   5.458   7.166 -0.0209  0.2199 -0.2918
   90CHL1    C6 9075   4.719   5.433   7.241 -0.1510  0.1431 -0.3757
   90CHL1    H6 9076   4.616   5.459   7.213 -0.7783 -0.4935  1.2504
   90CHL1    C7 9077   4.717   5.393   7.382 -0.4949 -0.1256 -0.4706
   90CHL1   H7A 9078   4.651   5.466   7.432 -1.2062 -0.5502 -0.7874
   90CHL1   H7B 9079   4.671   5.291   7.383 -0.8271  0.0174 -1.5737
   90CHL1    C8 9080   4.859   5.395   7.452  0.1530 -0.4253  0.6546
   90CHL1    H8 9081   4.871   5.502   7.477  0.4367 -0.8335  2.3381
   90CHL1   C14 9082   4.863   5.312   7.574  0.1512  0.0320 -0.3837
   90CHL1   H14 9083   4.844   5.207   7.544 -0.0826  0.0329 -0.2434
   90CHL1   C15 9084   4.753   5.338   7.677  0.0854  0.7733  0.8493
   90CHL1  H15A 9085   4.755   5.445   7.709  0.2333  1.0008  0.0822
   90CHL1  H15B 9086   4.654   5.307   7.638 -1.2851  2.0196  3.2013
   90CHL1   C16 9087   4.795   5.254   7.797  0.8268 -0.3302  0.1418
   90CHL1  H16A 9088   4.778   5.306   7.894 -0.9208 -1.0873  0.2585
   90CHL1  H16B 9089   4.731   5.164   7.788 -0.0150  0.2900 -0.0926
   90CHL1   C17 9090   4.941   5.210   7.765 -0.4785  0.8042 -0.3211
   90CHL1   H17 9091   4.933   5.115   7.708  0.1983  1.1939 -1.0716
   90CHL1   C13 9092   4.988   5.311   7.657  0.4289 -0.5115  0.0396
   90CHL1   C18 9093   5.018   5.455   7.710 -0.0187 -0.2827 -0.1736
   90CHL1  H18A 9094   5.029   5.533   7.632  0.3338  0.4266  0.5813
   90CHL1  H18B 9095   4.946   5.485   7.789 -0.2290  0.4315 -0.6328
   90CHL1  H18C 9096   5.115   5.439   7.761  0.9674 -2.9395 -2.7171
   90CHL1   C12 9097   5.106   5.261   7.570  0.4676  0.0119 -1.5296
   90CHL1  H12A 9098   5.200   5.268   7.629 -0.1009 -0.7940 -0.5105
   90CHL1  H12B 9099   5.092   5.154   7.545 -0.9920  0.1489 -1.3361
   90CHL1   C11 9100   5.111   5.341   7.433 -0.8950 -0.0137 -0.1741
   90CHL1  H11A 9101   5.144   5.445   7.454 -1.2239  0.1697 -0.5479
   90CHL1  H11B 9102   5.185   5.285   7.372 -0.1027  0.4614  0.3347
   90CHL1    C9 9103   4.968   5.352   7.361  0.3836  0.0393 -0.0272
   90CHL1    H9 9104   4.953   5.247   7.329  2.7881 -0.0100 -1.1171
   90CHL1   C10 9105   4.976   5.426   7.225  0.3144 -0.0065  0.5405
   90CHL1   C19 9106   5.050   5.561   7.246 -0.6919  0.1102  0.0205
   90CHL1  H19A 9107   5.048   5.625   7.154  0.6474 -0.1428 -0.1962
   90CHL1  H19B 9108   5.012   5.628   7.326  0.1355  2.0244 -1.1415
   90CHL1  H19C 9109   5.159   5.551   7.261 -0.4962  2.5807  0.5464
   90CHL1    C1 9110   5.046   5.336   7.119 -0.0289 -0.6035  0.0715
   90CHL1   H1A 9111   5.154   5.320   7.139  0.2417  0.8352 -0.1170
   90CHL1   H1B 9112   5.000   5.237   7.103  0.8294 -1.1203  0.7885
   90CHL1    C2 9113   5.043   5.401   6.979  0.3288  0.4207  0.1632
   90CHL1   H2A 9114   5.100   5.335   6.911 -1.5485 -3.1074  1.8298
   90CHL1   H2B 9115   5.093   5.500   6.985  2.0251 -0.4667  0.9596
   90CHL1   C20 9116   5.034   5.200   7.891 -0.6583 -0.0651 -0.0880
   90CHL1   H20 9117   5.139   5.197   7.853 -0.3270  0.4908  0.7515
   90CHL1   C21 9118   5.002   5.069   7.956 -0.0855 -0.4087  0.1013
   90CHL1  H21A 9119   5.078   5.034   8.029 -0.4922  0.5681  0.9925
   90CHL1  H21B 9120   5.004   4.988   7.879 -0.0349  0.1915 -0.5402
   90CHL1  H21C 9121   4.905   5.086   8.006  0.5891 -0.3424  1.4119
   90CHL1   C22 9122   5.020   5.312   8.005 -0.4659 -0.0495  0.0441
   90CHL1  H22A 9123   5.019   5.410   7.952 -0.3159 -0.5660 -0.9297
   90CHL1  H22B 9124   4.927   5.295   8.062 -3.9999  3.7318 -4.2284
   90CHL1   C23 9125   5.134   5.325   8.109  0.3948  0.1416  0.4302
   90CHL1  H23A 9126   5.162   5.223   8.144 -2.2886 -1.5596 -2.1833
   90CHL1  H23B 9127   5.228   5.366   8.066 -0.2567  0.2784 -0.8848
   90CHL1   C24 9128   5.093   5.428   8.216 -0.5200  0.2594  0.2089
   90CHL1  H24A 9129   5.062   5.513   8.151  0.0025  0.4026  0.1458
   90CHL1  H24B 9130   5.005   5.384   8.268  1.6254 -4.7840 -0.1527
   90CHL1   C25 9131   5.213   5.472   8.301 -0.2520  0.2371  0.1109
   90CHL1   H25 9132   5.293   5.497   8.227 -0.0851 -1.3651 -0.2650
   90CHL1   C26 9133   5.189   5.589   8.391  0.0513  0.1405  0.7368
   90CHL1  H26A 9134   5.124   5.670   8.352 -0.5717 -0.5476  0.3417
   90CHL1  H26B 9135   5.141   5.547   8.482 -3.5757 -1.2032 -1.6809
   90CHL1  H26C 9136   5.288   5.632   8.419  1.6287 -2.0881 -1.3079
   90CHL1   C27 9137   5.261   5.348   8.383  0.6430  0.3728  0.0596
   90CHL1  H27A 9138   5.303   5.271   8.314 -1.4062  1.2321 -2.2350
   90CHL1  H27B 9139   5.344   5.370   8.453  0.6444 -2.8823  1.2079
   90CHL1  H27C 9140   5.170   5.306   8.431  0.1477  1.1075 -0.2361
   91CHL1    C3 9141   6.316   6.261   7.165 -0.0580  0.2924 -0.3570
   91CHL1    H3 9142   6.273   6.159   7.179  0.6753 -0.1485 -1.2348
   91CHL1    O3 9143   6.346   6.279   7.028 -0.5841  0.0306  0.7615
   91CHL1   H3' 9144   6.277   6.229   6.984  0.7260 -0.2766 -1.0074
   91CHL1    C4 9145   6.212   6.363   7.216  0.3293 -0.4002  0.0214
   91CHL1   H4A 9146   6.257   6.464   7.204  2.3486 -1.1948  0.6477
   91CHL1   H4B 9147   6.121   6.378   7.156  0.2669 -0.5269  0.0833
   91CHL1    C5 9148   6.187   6.338   7.359  0.3423 -0.5177 -0.2648
   91CHL1    C6 9149   6.062   6.311   7.397  0.1642  0.2065  0.1708
   91CHL1    H6 9150   5.980   6.315   7.324 -0.6030  0.2429  1.0223
   91CHL1    C7 9151   6.026   6.268   7.541  0.0420  0.2069  0.5833
   91CHL1   H7A 9152   5.927   6.310   7.572 -1.4476 -1.1795 -2.1138
   91CHL1   H7B 9153   6.017   6.157   7.542  2.1412 -0.0264 -2.4405
   91CHL1    C8 9154   6.128   6.315   7.642 -0.6206  0.1214 -0.2255
   91CHL1    H8 9155   6.142   6.425   7.645  2.9019 -0.3062  1.6252
   91CHL1   C14 9156   6.098   6.257   7.773  0.9177 -0.1523  0.2265
   91CHL1   H14 9157   6.121   6.150   7.758 -0.3808 -0.2748 -0.9829
   91CHL1   C15 9158   5.950   6.257   7.843  0.4043  0.0859 -0.3980
   91CHL1  H15A 9159   5.900   6.355   7.824 -0.5401 -0.2323  0.4011
   91CHL1  H15B 9160   5.895   6.180   7.785 -0.3797  0.3010  0.0607
   91CHL1   C16 9161   5.981   6.228   7.988  0.1112  0.2883  0.1090
   91CHL1  H16A 9162   5.928   6.300   8.055 -0.2201 -0.0776  0.2432
   91CHL1  H16B 9163   5.952   6.124   8.014  0.7763  0.3887  1.2663
   91CHL1   C17 9164   6.133   6.218   8.004 -0.0708  0.3646 -0.0173
   91CHL1   H17 9165   6.161   6.113   7.982  0.8585  0.9499 -1.7340
   91CHL1   C13 9166   6.196   6.296   7.886 -0.2303 -0.8382 -0.6430
   91CHL1   C18 9167   6.175   6.446   7.921 -0.2492 -0.3165 -0.2844
   91CHL1  H18A 9168   6.187   6.515   7.834 -2.4770  1.8051  1.0242
   91CHL1  H18B 9169   6.073   6.480   7.948 -0.6514 -0.8756 -1.0738
   91CHL1  H18C 9170   6.235   6.473   8.010 -0.0678  1.8795 -1.0508
   91CHL1   C12 9171   6.336   6.253   7.845 -0.2570 -0.2651  0.5421
   91CHL1  H12A 9172   6.395   6.303   7.925  0.0702  1.4761 -0.7671
   91CHL1  H12B 9173   6.362   6.145   7.837  0.4354 -0.0886  0.3196
   91CHL1   C11 9174   6.375   6.306   7.709 -0.6263  0.2101 -0.6544
   91CHL1  H11A 9175   6.385   6.416   7.724  2.2846  0.1005 -1.4143
   91CHL1  H11B 9176   6.475   6.258   7.696  0.1455  1.5543  0.2083
   91CHL1    C9 9177   6.274   6.271   7.599 -0.5559 -0.2782 -0.3593
   91CHL1    H9 9178   6.264   6.161   7.588  2.4862 -0.7787  1.2163
   91CHL1   C10 9179   6.311   6.326   7.452  0.2578 -0.3009  0.2828
   91CHL1   C19 9180   6.362   6.469   7.467  0.1159  0.8645  0.0646
   91CHL1  H19A 9181   6.457   6.473   7.526 -0.3796 -0.1688  0.9608
   91CHL1  H19B 9182   6.381   6.520   7.370 -0.7692  0.6562 -0.2227
   91CHL1  H19C 9183   6.293   6.533   7.526 -1.8613 -0.2702 -0.9640
   91CHL1    C1 9184   6.426   6.236   7.395 -0.2762  0.3558 -0.0862
   91CHL1   H1A 9185   6.517   6.244   7.460  0.8620 -4.2270 -0.9205
   91CHL1   H1B 9186   6.397   6.129   7.402 -2.1595  1.0059  2.8462
   91CHL1    C2 9187   6.448   6.259   7.242 -0.5963 -0.2643  0.3676
   91CHL1   H2A 9188   6.525   6.184   7.214 -0.9914 -0.6398  0.2897
   91CHL1   H2B 9189   6.500   6.358   7.232  2.1290 -1.4603  2.0908
   91CHL1   C20 9190   6.167   6.246   8.157  0.4330  0.6902 -0.5850
   91CHL1   H20 9191   6.134   6.350   8.172 -1.0139  0.5429 -2.5199
   91CHL1   C21 9192   6.317   6.240   8.184  0.6933  0.0502 -0.6047
   91CHL1  H21A 9193   6.385   6.289   8.111  1.7035 -1.6461 -0.8240
   91CHL1  H21B 9194   6.347   6.134   8.167  0.5474  0.0317 -0.7457
   91CHL1  H21C 9195   6.335   6.253   8.293 -0.5899 -0.4340 -0.3234
   91CHL1   C22 9196   6.095   6.147   8.248  0.3124  0.4325 -0.4966
   91CHL1  H22A 9197   5.988   6.147   8.219  0.0270 -2.0945  0.4535
   91CHL1  H22B 9198   6.126   6.041   8.253 -0.8024 -0.0573 -3.1022
   91CHL1   C23 9199   6.092   6.210   8.391 -0.7137 -0.1962  0.8848
   91CHL1  H23A 9200   6.194   6.194   8.431 -1.4239 -0.8376  2.4610
   91CHL1  H23B 9201   6.074   6.319   8.381 -0.5454 -0.2506 -0.1292
   91CHL1   C24 9202   5.994   6.136   8.489 -0.2597  0.1053  0.9536
   91CHL1  H24A 9203   5.894   6.139   8.440 -0.1227 -0.3851  0.6384
   91CHL1  H24B 9204   6.031   6.034   8.515  1.9810  0.3935 -0.9671
   91CHL1   C25 9205   5.976   6.214   8.618  0.0974 -0.5312 -0.4442
   91CHL1   H25 9206   5.910   6.146   8.677  1.0679  0.8533  2.3441
   91CHL1   C26 9207   6.102   6.235   8.710 -0.7760  0.6917 -0.3012
   91CHL1  H26A 9208   6.066   6.271   8.809 -0.8414  0.0841 -0.1005
   91CHL1  H26B 9209   6.147   6.136   8.734  1.2082  1.7366  0.3815
   91CHL1  H26C 9210   6.176   6.305   8.667 -1.2316  0.8997 -0.7586
   91CHL1   C27 9211   5.886   6.343   8.612 -0.3543 -0.0607  0.4273
   91CHL1  H27A 9212   5.940   6.419   8.552  1.1966 -1.7048 -0.3228
   91CHL1  H27B 9213   5.790   6.322   8.560 -0.4196 -0.9775  0.8954
   91CHL1  H27C 9214   5.875   6.392   8.711  0.9723 -1.0548  1.0819
   92CHL1    C3 9215   2.194   1.368   6.918 -0.0961 -0.2728 -0.6105
   92CHL1    H3 9216   2.241   1.267   6.926  2.0387  0.8777  1.9801
   92CHL1    O3 9217   2.216   1.431   6.794 -0.3903  0.2983  0.4560
   92CHL1   H3' 9218   2.160   1.508   6.809  0.1660  0.7088  0.4692
   92CHL1    C4 9219   2.040   1.359   6.941  0.1788 -0.0015 -0.7142
   92CHL1   H4A 9220   1.992   1.455   6.913 -0.5202 -0.2789 -0.4921
   92CHL1   H4B 9221   1.983   1.298   6.868 -0.1187 -0.0147 -0.4727
   92CHL1    C5 9222   1.999   1.328   7.082  0.1632 -0.3123  0.0047
   92CHL1    C6 9223   1.920   1.226   7.110 -1.0069  0.0587 -0.3236
   92CHL1    H6 9224   1.881   1.158   7.033  0.3086 -2.0805  0.8445
   92CHL1    C7 9225   1.877   1.183   7.247 -0.7324 -0.4158  0.1472
   92CHL1   H7A 9226   1.768   1.166   7.240 -0.8851  0.7339 -0.3891
   92CHL1   H7B 9227   1.926   1.085   7.267  0.0510  0.0624  0.6014
   92CHL1    C8 9228   1.920   1.278   7.352  0.9461 -0.4936  0.5060
   92CHL1    H8 9229   1.833   1.348   7.356  0.0729 -1.6332  2.5764
   92CHL1   C14 9230   1.925   1.210   7.487  0.1755  0.0797 -0.3409
   92CHL1   H14 9231   2.011   1.142   7.500 -0.8048 -1.6601 -2.5865
   92CHL1   C15 9232   1.797   1.134   7.524 -0.0031 -0.2083 -0.6707
   92CHL1  H15A 9233   1.718   1.209   7.506 -0.0523  0.0506  0.5380
   92CHL1  H15B 9234   1.784   1.039   7.468 -1.1538 -0.8876  0.7291
   92CHL1   C16 9235   1.797   1.123   7.679 -0.1058 -0.2262  0.0267
   92CHL1  H16A 9236   1.709   1.166   7.731 -0.7494  0.6736 -1.7608
   92CHL1  H16B 9237   1.822   1.018   7.705 -3.0515 -0.3426  2.5827
   92CHL1   C17 9238   1.921   1.216   7.721  0.5890 -0.4558 -0.2799
   92CHL1   H17 9239   2.011   1.150   7.713  0.0932 -1.0488 -1.1582
   92CHL1   C13 9240   1.942   1.309   7.604 -0.3841 -0.9654 -0.7128
   92CHL1   C18 9241   1.827   1.417   7.613 -0.1716  0.0464  0.5388
   92CHL1  H18A 9242   1.821   1.486   7.526  0.0199  1.2603  1.4790
   92CHL1  H18B 9243   1.732   1.363   7.629  0.3352 -0.2314  2.7658
   92CHL1  H18C 9244   1.843   1.487   7.698  3.3219 -0.1199  0.0913
   92CHL1   C12 9245   2.082   1.373   7.587  0.2886  0.0486 -0.4628
   92CHL1  H12A 9246   2.097   1.459   7.656  0.2649  0.6615 -1.2093
   92CHL1  H12B 9247   2.169   1.304   7.589 -0.5202 -1.0022 -0.9817
   92CHL1   C11 9248   2.100   1.437   7.452 -0.0154 -0.5837 -0.5840
   92CHL1  H11A 9249   2.038   1.529   7.451  2.0981  0.8553 -2.9755
   92CHL1  H11B 9250   2.204   1.472   7.435 -0.5501  0.4724 -1.7623
   92CHL1    C9 9251   2.052   1.348   7.331 -0.1246 -0.2370  0.1117
   92CHL1    H9 9252   2.132   1.271   7.330  1.2174  1.1024  0.9412
   92CHL1   C10 9253   2.064   1.412   7.193 -0.1710  0.3695 -0.4064
   92CHL1   C19 9254   1.997   1.559   7.187  0.1800 -0.3294 -0.5171
   92CHL1  H19A 9255   2.052   1.635   7.245  1.0036  0.6615 -2.5640
   92CHL1  H19B 9256   1.993   1.590   7.081  1.4014  3.1558  0.3921
   92CHL1  H19C 9257   1.894   1.561   7.230  0.0417  1.1217 -0.8895
   92CHL1    C1 9258   2.221   1.424   7.165  0.3337  0.0280  0.1392
   92CHL1   H1A 9259   2.264   1.504   7.228  0.7727  0.3822 -0.6081
   92CHL1   H1B 9260   2.274   1.327   7.178  4.2211  1.9110 -1.0951
   92CHL1    C2 9261   2.254   1.463   7.016 -0.5811  0.7093 -0.1961
   92CHL1   H2A 9262   2.362   1.439   7.006 -0.6227  0.3452  0.2111
   92CHL1   H2B 9263   2.228   1.567   6.989 -0.7565  0.2923 -1.6684
   92CHL1   C20 9264   1.920   1.264   7.869 -0.5663 -1.4593 -0.1617
   92CHL1   H20 9265   1.819   1.307   7.883 -0.2468 -0.5734 -0.5380
   92CHL1   C21 9266   2.022   1.374   7.901  0.0369 -0.5284  0.7066
   92CHL1  H21A 9267   2.018   1.398   8.009 -3.6145  1.1980  0.2580
   92CHL1  H21B 9268   1.997   1.467   7.846  0.5274 -1.7746 -1.6726
   92CHL1  H21C 9269   2.123   1.343   7.867 -0.7489  0.4605 -2.7066
   92CHL1   C22 9270   1.911   1.138   7.960 -0.1224 -0.0651  0.2670
   92CHL1  H22A 9271   1.811   1.092   7.947 -0.1066 -1.0787  3.3166
   92CHL1  H22B 9272   1.983   1.057   7.938  1.6333  0.8187  2.4653
   92CHL1   C23 9273   1.923   1.159   8.115  0.2981 -0.1433 -0.1316
   92CHL1  H23A 9274   2.012   1.217   8.144  0.2623  0.9353 -2.1095
   92CHL1  H23B 9275   1.837   1.222   8.146  0.0145 -1.8035  2.6745
   92CHL1   C24 9276   1.912   1.026   8.188 -0.2732 -0.5549 -0.2116
   92CHL1  H24A 9277   1.826   0.964   8.155 -0.0190 -1.2976  0.5180
   92CHL1  H24B 9278   2.006   0.971   8.169  0.7825  0.1039  2.7443
   92CHL1   C25 9279   1.884   1.060   8.333 -0.7605 -0.5280 -0.0302
   92CHL1   H25 9280   1.795   1.126   8.338  0.5060  1.2212 -0.2359
   92CHL1   C26 9281   1.854   0.923   8.407 -0.0688  0.2948  0.5545
   92CHL1  H26A 9282   1.768   0.877   8.353 -0.0420 -0.4012  1.0956
   92CHL1  H26B 9283   1.943   0.860   8.428  0.2150 -0.1655 -1.8671
   92CHL1  H26C 9284   1.820   0.969   8.502 -0.2482  0.2007  0.5371
   92CHL1   C27 9285   2.002   1.122   8.406  0.1889 -0.8446 -0.8270
   92CHL1  H27A 9286   2.013   1.230   8.383 -0.6220 -0.8496 -1.2729
   92CHL1  H27B 9287   1.983   1.114   8.515  1.5383 -1.5784 -0.6466
   92CHL1  H27C 9288   2.096   1.065   8.395  1.3464  1.2922 -2.3562
   93CHL1    C3 9289   0.831   6.134   6.828  0.0090 -0.1313 -0.0665
   93CHL1    H3 9290   0.829   6.223   6.894  0.4765  0.6055 -1.0322
   93CHL1    O3 9291   0.808   6.155   6.689 -0.3195  0.2920 -0.5946
   93CHL1   H3' 9292   0.825   6.074   6.639 -1.7973 -0.9671  0.8658
   93CHL1    C4 9293   0.958   6.053   6.844  0.3339  0.1099 -0.1462
   93CHL1   H4A 9294   0.954   5.971   6.770  2.6151 -0.4616  0.3322
   93CHL1   H4B 9295   1.040   6.111   6.797  0.6879 -0.3959 -0.1566
   93CHL1    C5 9296   0.979   6.013   6.990  0.0174 -0.0397  0.3859
   93CHL1    C6 9297   1.086   6.065   7.059  0.4525  1.2073 -0.3908
   93CHL1    H6 9298   1.163   6.126   7.010  0.5676 -0.0648 -1.8561
   93CHL1    C7 9299   1.107   6.006   7.192  0.4835 -0.5527 -0.2076
   93CHL1   H7A 9300   1.216   5.983   7.185  0.5234 -1.6276  3.2263
   93CHL1   H7B 9301   1.104   6.078   7.276 -0.7287  0.7686 -1.3516
   93CHL1    C8 9302   1.026   5.874   7.223  0.0603  0.5443  0.2270
   93CHL1    H8 9303   1.068   5.791   7.163 -1.7600 -0.8121  0.7898
   93CHL1   C14 9304   1.045   5.841   7.368 -0.4741 -0.1451  0.4379
   93CHL1   H14 9305   1.015   5.930   7.427  3.1450  1.0468  0.5567
   93CHL1   C15 9306   1.191   5.824   7.421 -0.3877  0.4494  0.2497
   93CHL1  H15A 9307   1.248   5.754   7.357 -0.3330 -2.7837  3.6579
   93CHL1  H15B 9308   1.252   5.917   7.430 -0.5600  0.6878 -0.8891
   93CHL1   C16 9309   1.164   5.754   7.557  0.2593 -0.4191 -0.1310
   93CHL1  H16A 9310   1.227   5.663   7.549 -0.8280 -1.1987  0.0160
   93CHL1  H16B 9311   1.199   5.816   7.642 -1.4835 -2.5731  2.2260
   93CHL1   C17 9312   1.008   5.725   7.561  0.6009 -0.0808 -0.0200
   93CHL1   H17 9313   0.964   5.807   7.622  0.4706 -0.0275 -0.1865
   93CHL1   C13 9314   0.960   5.725   7.419  0.4280 -0.2631  0.1932
   93CHL1   C18 9315   1.006   5.602   7.338  0.1968  0.8462 -0.2756
   93CHL1  H18A 9316   1.006   5.624   7.229  1.3106 -2.7285 -1.0672
   93CHL1  H18B 9317   1.112   5.581   7.364  1.2284  3.3952 -2.1832
   93CHL1  H18C 9318   0.948   5.510   7.361  1.4418 -0.1720 -1.1424
   93CHL1   C12 9319   0.813   5.764   7.401 -0.7463 -0.0656 -0.5181
   93CHL1  H12A 9320   0.739   5.703   7.458 -0.6226  0.1791 -0.0989
   93CHL1  H12B 9321   0.800   5.867   7.441  0.8754 -0.1389  0.2262
   93CHL1   C11 9322   0.780   5.789   7.252 -0.0102  0.0404 -0.5581
   93CHL1  H11A 9323   0.784   5.690   7.203 -1.3271 -0.3912  0.1700
   93CHL1  H11B 9324   0.680   5.839   7.257 -0.6039 -1.2094  0.2716
   93CHL1    C9 9325   0.882   5.892   7.190  0.2427  0.7102 -0.2589
   93CHL1    H9 9326   0.851   5.983   7.245  0.1889  1.1057 -0.9323
   93CHL1   C10 9327   0.864   5.922   7.039 -1.0839 -0.8872 -0.8189
   93CHL1   C19 9328   0.874   5.795   6.955  0.3428 -0.0864 -0.1047
   93CHL1  H19A 9329   0.789   5.728   6.983 -1.0515  1.6725 -0.0997
   93CHL1  H19B 9330   0.860   5.819   6.848 -1.2908  1.4598  0.4427
   93CHL1  H19C 9331   0.973   5.745   6.966 -0.9455 -3.0111 -1.3405
   93CHL1    C1 9332   0.730   5.989   7.011  0.5914  0.1433  0.2264
   93CHL1   H1A 9333   0.646   5.922   7.037  0.1168  0.2047 -1.1181
   93CHL1   H1B 9334   0.718   6.074   7.082  0.6683 -0.9979  1.6416
   93CHL1    C2 9335   0.705   6.051   6.876 -0.1694  0.3858 -0.4042
   93CHL1   H2A 9336   0.618   6.119   6.885 -0.6889 -0.1519 -1.3035
   93CHL1   H2B 9337   0.682   5.971   6.802  2.5929 -0.1882 -0.6987
   93CHL1   C20 9338   0.985   5.590   7.635  0.1344  0.4646  0.0808
   93CHL1   H20 9339   1.017   5.504   7.572  0.0020  0.4862 -0.0158
   93CHL1   C21 9340   0.837   5.547   7.641  0.1310  0.2538 -0.4746
   93CHL1  H21A 9341   0.768   5.624   7.682  0.3299 -0.2609  0.8195
   93CHL1  H21B 9342   0.825   5.449   7.692 -0.7241  0.1082 -0.9516
   93CHL1  H21C 9343   0.802   5.522   7.538  3.2334 -2.1409 -1.0207
   93CHL1   C22 9344   1.061   5.583   7.774  0.1438 -0.7464  0.4491
   93CHL1  H22A 9345   1.052   5.478   7.810 -0.5846 -0.3217  1.5411
   93CHL1  H22B 9346   1.167   5.594   7.743  0.1024  2.0214  1.1667
   93CHL1   C23 9347   1.014   5.678   7.880 -1.0961 -0.1831  0.2433
   93CHL1  H23A 9348   1.018   5.773   7.824 -0.1076 -1.2068 -1.4735
   93CHL1  H23B 9349   0.912   5.656   7.920 -0.8571  0.7937  1.3888
   93CHL1   C24 9350   1.111   5.699   8.003 -0.2793 -0.2128  0.3877
   93CHL1  H24A 9351   1.117   5.599   8.049  0.6097  0.0899  0.9481
   93CHL1  H24B 9352   1.212   5.727   7.964 -1.0732 -0.2383 -1.7353
   93CHL1   C25 9353   1.067   5.796   8.115  0.2473 -0.1865  0.3236
   93CHL1   H25 9354   0.982   5.850   8.068 -0.5179  0.3303  2.2364
   93CHL1   C26 9355   1.014   5.713   8.240 -0.3195  0.0996 -0.1005
   93CHL1  H26A 9356   0.985   5.797   8.306 -0.9169  0.4411 -0.7922
   93CHL1  H26B 9357   0.927   5.647   8.219 -0.6471  0.1594  1.0510
   93CHL1  H26C 9358   1.094   5.650   8.285 -0.5629 -0.3996 -0.3669
   93CHL1   C27 9359   1.173   5.898   8.158  0.1228 -0.3260  0.5735
   93CHL1  H27A 9360   1.217   5.954   8.073  0.3091 -1.5713 -0.1606
   93CHL1  H27B 9361   1.138   5.952   8.249 -0.6148 -0.6152  0.4579
   93CHL1  H27C 9362   1.261   5.841   8.196  1.3302  0.8083 -0.4536
   94CHL1    C3 9363   3.287   2.000   6.936 -0.2129  0.0598  0.0133
   94CHL1    H3 9364   3.222   1.910   6.930 -1.0387  0.7307 -1.1218
   94CHL1    O3 9365   3.340   2.041   6.814 -0.6315 -0.1497 -0.1505
   94CHL1   H3' 9366   3.403   1.972   6.789  0.5832  0.9907 -0.2942
   94CHL1    C4 9367   3.208   2.120   7.003 -0.2457 -0.0940  0.4694
   94CHL1   H4A 9368   3.281   2.204   7.009  0.7900 -1.0192  1.0639
   94CHL1   H4B 9369   3.131   2.151   6.930  0.4732 -2.3812 -1.3212
   94CHL1    C5 9370   3.155   2.076   7.143  1.0380 -0.2486  0.4410
   94CHL1    C6 9371   3.024   2.085   7.175  0.4359 -0.2654 -0.9360
   94CHL1    H6 9372   2.950   2.134   7.109  1.6685  2.7854 -0.1654
   94CHL1    C7 9373   2.984   2.050   7.316  0.2148  0.0571 -0.7843
   94CHL1   H7A 9374   2.919   2.134   7.350  0.4524  0.0563 -0.3198
   94CHL1   H7B 9375   2.929   1.953   7.311  1.8732 -0.9565  0.1204
   94CHL1    C8 9376   3.100   2.041   7.418  0.3757  0.3257 -0.5215
   94CHL1    H8 9377   3.144   2.142   7.430  0.8013  0.0923 -0.0858
   94CHL1   C14 9378   3.055   1.977   7.548 -0.8892 -0.3517  0.4238
   94CHL1   H14 9379   3.029   1.870   7.536 -4.0532  0.6149 -1.9318
   94CHL1   C15 9380   2.938   2.040   7.629 -0.1288 -0.3045  0.6303
   94CHL1  H15A 9381   2.932   2.151   7.624 -0.3638 -0.3168  0.6248
   94CHL1  H15B 9382   2.837   1.999   7.607 -1.0922  1.0016  2.5486
   94CHL1   C16 9383   2.966   2.007   7.774  0.0475 -0.2029 -0.1628
   94CHL1  H16A 9384   2.978   2.105   7.826  3.3728 -1.0236  0.7195
   94CHL1  H16B 9385   2.882   1.953   7.821 -1.9851 -1.1779 -4.6390
   94CHL1   C17 9386   3.093   1.924   7.785  0.1948 -0.1157  0.0682
   94CHL1   H17 9387   3.059   1.820   7.766 -2.0410  0.7321 -0.6954
   94CHL1   C13 9388   3.171   1.970   7.660  0.3074 -0.1497 -0.2805
   94CHL1   C18 9389   3.241   2.103   7.691  0.5773  0.6227 -0.4648
   94CHL1  H18A 9390   3.327   2.086   7.760  0.9993 -0.2486 -1.1926
   94CHL1  H18B 9391   3.277   2.139   7.593 -1.3419 -0.3274 -1.5506
   94CHL1  H18C 9392   3.174   2.186   7.721 -0.9351 -0.7366  0.0483
   94CHL1   C12 9393   3.268   1.869   7.605  0.1719 -0.4495  0.2272
   94CHL1  H12A 9394   3.351   1.841   7.673 -0.5180  0.3219  1.3907
   94CHL1  H12B 9395   3.208   1.776   7.595  0.6033 -1.1613  3.6256
   94CHL1   C11 9396   3.327   1.916   7.466 -0.4482 -0.1310 -0.2455
   94CHL1  H11A 9397   3.399   2.000   7.470  1.1409 -1.5699  3.0965
   94CHL1  H11B 9398   3.380   1.830   7.419  1.5553  1.1902 -0.4672
   94CHL1    C9 9399   3.220   1.960   7.362 -0.3711 -0.6018 -0.4782
   94CHL1    H9 9400   3.177   1.864   7.327  1.6686 -1.6123 -0.2450
   94CHL1   C10 9401   3.273   2.028   7.236 -0.3517 -0.0783 -0.1143
   94CHL1   C19 9402   3.367   2.152   7.275  0.4449  0.2988 -0.2459
   94CHL1  H19A 9403   3.382   2.226   7.193  4.0301 -1.1306 -0.9845
   94CHL1  H19B 9404   3.333   2.212   7.362  0.9567  0.4683 -0.1625
   94CHL1  H19C 9405   3.465   2.103   7.293  0.1234  0.3246  1.6142
   94CHL1    C1 9406   3.350   1.916   7.164 -0.7531 -0.2400  0.0305
   94CHL1   H1A 9407   3.430   1.875   7.230 -0.5240  0.3917  0.1517
   94CHL1   H1B 9408   3.280   1.831   7.147 -1.8125  0.9532 -1.7623
   94CHL1    C2 9409   3.410   1.968   7.025  0.3220 -0.1230  0.2101
   94CHL1   H2A 9410   3.474   1.886   6.985 -0.1960 -0.5656  0.2790
   94CHL1   H2B 9411   3.465   2.064   7.023 -1.5305  0.9933  0.9804
   94CHL1   C20 9412   3.159   1.954   7.929 -0.1785  0.7048 -0.0364
   94CHL1   H20 9413   3.182   2.063   7.940 -1.0660  1.0948 -1.7877
   94CHL1   C21 9414   3.286   1.857   7.947 -0.3788 -0.4240  0.3366
   94CHL1  H21A 9415   3.245   1.757   7.923  1.0661 -0.8104 -0.5472
   94CHL1  H21B 9416   3.316   1.860   8.054 -0.3635  0.2732  0.3174
   94CHL1  H21C 9417   3.370   1.888   7.881  0.0831 -2.1164  0.1198
   94CHL1   C22 9418   3.070   1.929   8.049  0.8132  0.6174 -0.2485
   94CHL1  H22A 9419   3.132   1.962   8.134  0.1310  4.0491 -0.9900
   94CHL1  H22B 9420   2.980   1.994   8.051 -0.0528 -0.6076  1.1214
   94CHL1   C23 9421   3.014   1.783   8.056  0.2523 -0.3409  0.8135
   94CHL1  H23A 9422   2.940   1.766   7.975  2.8240 -3.6219 -0.9440
   94CHL1  H23B 9423   3.067   1.686   8.051 -1.5534 -1.4749  2.4866
   94CHL1   C24 9424   2.928   1.779   8.191 -0.2223  0.5400 -0.6252
   94CHL1  H24A 9425   2.993   1.823   8.270  1.7879  1.1225 -2.5585
   94CHL1  H24B 9426   2.838   1.842   8.180 -1.0796 -0.4846  0.3637
   94CHL1   C25 9427   2.896   1.639   8.245  0.5989 -0.5114  0.5107
   94CHL1   H25 9428   2.985   1.575   8.259 -0.2421 -1.3102  2.3845
   94CHL1   C26 9429   2.822   1.657   8.382 -0.2025  0.4381 -0.4977
   94CHL1  H26A 9430   2.732   1.724   8.386 -1.4712 -1.2241 -0.7702
   94CHL1  H26B 9431   2.781   1.558   8.410  0.7189  0.5709  1.4625
   94CHL1  H26C 9432   2.885   1.697   8.465  0.5010  0.2998 -0.9647
   94CHL1   C27 9433   2.808   1.565   8.148 -0.5042  0.1320  0.3081
   94CHL1  H27A 9434   2.731   1.633   8.106 -1.7642 -1.2457  0.3934
   94CHL1  H27B 9435   2.862   1.520   8.061 -1.5655 -3.7968  1.5879
   94CHL1  H27C 9436   2.763   1.475   8.194  0.4255 -1.1594 -1.2533
   95CHL1    C3 9437   2.818   1.415   6.685  0.1909 -0.4394  0.1968
   95CHL1    H3 9438   2.905   1.472   6.725 -0.5930  0.4956  0.6088
   95CHL1    O3 9439   2.809   1.459   6.549 -0.1961  0.2379 -0.4137
   95CHL1   H3' 9440   2.723   1.429   6.518  0.4552 -0.4944 -1.5704
   95CHL1    C4 9441   2.830   1.268   6.701 -0.0690 -0.0548 -0.1167
   95CHL1   H4A 9442   2.747   1.223   6.642 -0.0668  2.3683 -2.0710
   95CHL1   H4B 9443   2.932   1.257   6.658 -0.2749 -2.8692  0.0588
   95CHL1    C5 9444   2.831   1.233   6.848 -0.5697  0.0151 -1.0073
   95CHL1    C6 9445   2.939   1.170   6.899  0.3841  0.4330 -0.0829
   95CHL1    H6 9446   3.030   1.156   6.838  0.6477 -0.8126  0.5915
   95CHL1    C7 9447   2.942   1.118   7.038  0.5118  0.4144 -0.1867
   95CHL1   H7A 9448   2.980   1.013   7.038  3.0983  1.3225  0.9010
   95CHL1   H7B 9449   3.003   1.184   7.103 -0.4749  1.4704 -0.3288
   95CHL1    C8 9450   2.801   1.114   7.112  0.2677 -0.5005  0.5945
   95CHL1    H8 9451   2.743   1.032   7.064  0.0158 -1.4219  2.4480
   95CHL1   C14 9452   2.821   1.081   7.261 -0.5995  0.9940  0.0442
   95CHL1   H14 9453   2.895   1.155   7.297  0.6535  0.3288 -1.1104
   95CHL1   C15 9454   2.880   0.945   7.295 -0.1344 -0.6592 -0.2055
   95CHL1  H15A 9455   2.820   0.870   7.238 -3.7389  3.0798 -1.6193
   95CHL1  H15B 9456   2.983   0.948   7.254  0.1044 -1.0239  0.3741
   95CHL1   C16 9457   2.870   0.943   7.443  0.5762 -0.1603 -0.6965
   95CHL1  H16A 9458   2.821   0.849   7.475 -1.3409  0.9012 -0.4625
   95CHL1  H16B 9459   2.968   0.955   7.493  0.3836 -0.0337 -0.3452
   95CHL1   C17 9460   2.780   1.064   7.492  0.3767 -0.1435  0.1773
   95CHL1   H17 9461   2.850   1.148   7.514  0.8658 -0.7867  1.1377
   95CHL1   C13 9462   2.706   1.099   7.360 -0.5412 -0.1162 -0.1245
   95CHL1   C18 9463   2.594   0.993   7.332  0.3837  1.0201 -0.6418
   95CHL1  H18A 9464   2.566   0.987   7.224  1.1574 -3.4585 -0.7026
   95CHL1  H18B 9465   2.632   0.897   7.372  0.5880  0.8752 -1.1700
   95CHL1  H18C 9466   2.497   1.009   7.383  0.0325  1.1813 -1.3568
   95CHL1   C12 9467   2.652   1.243   7.339 -0.1916  0.0787  0.7034
   95CHL1  H12A 9468   2.549   1.232   7.380 -0.1672 -0.5971  0.5891
   95CHL1  H12B 9469   2.720   1.320   7.382 -0.4734 -0.0367  1.3577
   95CHL1   C11 9470   2.623   1.269   7.186 -0.3030 -0.2613  0.2304
   95CHL1  H11A 9471   2.547   1.192   7.163  0.3480 -0.9826  0.4974
   95CHL1  H11B 9472   2.577   1.370   7.177  0.5804  0.2341  1.1631
   95CHL1    C9 9473   2.738   1.249   7.091 -0.1659  0.1466 -0.8549
   95CHL1    H9 9474   2.813   1.327   7.116 -1.2196  0.6857  0.6975
   95CHL1   C10 9475   2.707   1.276   6.942  0.0948  0.1691 -0.3233
   95CHL1   C19 9476   2.584   1.193   6.899  0.5066  0.0128 -0.3927
   95CHL1  H19A 9477   2.588   1.087   6.934  1.4420  0.0779 -0.3048
   95CHL1  H19B 9478   2.484   1.229   6.934 -0.3348 -1.4682 -1.1961
   95CHL1  H19C 9479   2.577   1.188   6.788 -0.0046  1.3163 -0.4230
   95CHL1    C1 9480   2.688   1.428   6.912  0.7733 -0.2770  0.1370
   95CHL1   H1A 9481   2.593   1.470   6.952 -0.0447  0.1526 -2.1496
   95CHL1   H1B 9482   2.762   1.484   6.973  0.8269  0.8653 -0.9521
   95CHL1    C2 9483   2.693   1.463   6.760  0.3385  0.5787 -0.5504
   95CHL1   H2A 9484   2.666   1.569   6.737 -5.9052  0.2960  4.0741
   95CHL1   H2B 9485   2.604   1.406   6.724  2.3239 -1.6469 -2.0900
   95CHL1   C20 9486   2.705   1.022   7.623  0.8283  0.2478 -0.5051
   95CHL1   H20 9487   2.647   0.930   7.601 -1.6893  1.8031 -0.5707
   95CHL1   C21 9488   2.610   1.142   7.662  0.3153  0.2632  0.3523
   95CHL1  H21A 9489   2.537   1.170   7.583  1.8695  0.1333 -1.1781
   95CHL1  H21B 9490   2.670   1.233   7.683  1.4076 -0.0204 -1.4139
   95CHL1  H21C 9491   2.557   1.117   7.756 -1.2920  0.1671 -0.5589
   95CHL1   C22 9492   2.795   1.001   7.742  0.0238  0.2741 -0.1548
   95CHL1  H22A 9493   2.887   0.944   7.718 -0.1118 -0.4801  1.0255
   95CHL1  H22B 9494   2.809   1.102   7.788  2.7408  0.3947 -1.2159
   95CHL1   C23 9495   2.731   0.910   7.846 -0.1184 -0.5388  0.8186
   95CHL1  H23A 9496   2.636   0.951   7.885  0.3956  0.0815  1.4502
   95CHL1  H23B 9497   2.703   0.816   7.792  2.1361 -0.9366  0.2739
   95CHL1   C24 9498   2.822   0.887   7.964 -0.1840 -0.1849 -0.1075
   95CHL1  H24A 9499   2.909   0.827   7.930  0.0947  0.4705 -0.5571
   95CHL1  H24B 9500   2.861   0.984   8.001 -0.2631 -1.0362  2.2909
   95CHL1   C25 9501   2.754   0.814   8.082  0.1680 -0.1356 -0.9209
   95CHL1   H25 9502   2.659   0.865   8.108 -0.2767 -1.2496 -0.3409
   95CHL1   C26 9503   2.736   0.665   8.052 -0.7639  0.7396  0.5677
   95CHL1  H26A 9504   2.695   0.611   8.139  0.0680  0.1876  0.6209
   95CHL1  H26B 9505   2.678   0.668   7.958  0.2187  1.5506 -0.0348
   95CHL1  H26C 9506   2.831   0.615   8.022 -1.8545  0.0053 -1.7438
   95CHL1   C27 9507   2.854   0.830   8.205  0.1343  0.2724  0.9185
   95CHL1  H27A 9508   2.881   0.937   8.221  0.8263  0.0557  1.1939
   95CHL1  H27B 9509   2.808   0.780   8.293  1.8813 -0.2494  1.5429
   95CHL1  H27C 9510   2.943   0.768   8.182  1.8259  1.9836  2.6448
   96CHL1    C3 9511   3.312   6.522   6.695 -0.1667 -0.6844  0.4102
   96CHL1    H3 9512   3.398   6.590   6.714  1.5066 -2.0469 -2.0296
   96CHL1    O3 9513   3.302   6.489   6.552  0.3654  0.0036 -0.6688
   96CHL1   H3' 9514   3.235   6.420   6.550  0.1551  0.2360 -2.8489
   96CHL1    C4 9515   3.322   6.398   6.781 -0.1167 -0.4293  0.3805
   96CHL1   H4A 9516   3.246   6.330   6.737 -0.4712  0.0624  0.2327
   96CHL1   H4B 9517   3.414   6.347   6.745  0.7829  1.4420 -0.0699
   96CHL1    C5 9518   3.315   6.415   6.930  0.1529 -0.7402 -0.8251
   96CHL1    C6 9519   3.414   6.388   7.007 -0.1297  0.9659 -0.5810
   96CHL1    H6 9520   3.506   6.349   6.960 -1.6620 -0.8590 -2.1652
   96CHL1    C7 9521   3.405   6.385   7.158 -0.9280  0.5002 -0.2475
   96CHL1   H7A 9522   3.440   6.283   7.184  0.1076  1.1081  0.8198
   96CHL1   H7B 9523   3.477   6.455   7.205  1.5816 -0.8811 -1.9011
   96CHL1    C8 9524   3.268   6.412   7.210  0.2779  0.0630 -0.0946
   96CHL1    H8 9525   3.213   6.315   7.212  1.2495 -0.5039 -0.2922
   96CHL1   C14 9526   3.270   6.467   7.352 -0.6209 -0.0302 -0.6248
   96CHL1   H14 9527   3.308   6.571   7.344  0.0966 -0.3165 -0.9724
   96CHL1   C15 9528   3.354   6.386   7.450  0.4049  0.1204 -0.1956
   96CHL1  H15A 9529   3.349   6.277   7.431  2.0063 -0.4315  2.3571
   96CHL1  H15B 9530   3.457   6.426   7.449  0.6196 -0.3777  1.1073
   96CHL1   C16 9531   3.278   6.401   7.586  0.4702 -0.3951  0.2255
   96CHL1  H16A 9532   3.226   6.305   7.607  1.0351 -0.9373 -0.8407
   96CHL1  H16B 9533   3.348   6.432   7.666 -0.6693 -1.4495  1.6520
   96CHL1   C17 9534   3.172   6.511   7.558  0.3195  0.1057 -0.0623
   96CHL1   H17 9535   3.220   6.612   7.555 -1.0869  0.7778 -0.1117
   96CHL1   C13 9536   3.130   6.488   7.414 -0.0241  0.2305  0.3235
   96CHL1   C18 9537   3.040   6.360   7.404 -0.3627  0.0784  0.2528
   96CHL1  H18A 9538   3.118   6.281   7.410 -0.9507 -0.6826 -1.5981
   96CHL1  H18B 9539   2.959   6.347   7.479 -2.2116  0.5140 -1.6058
   96CHL1  H18C 9540   2.986   6.335   7.310  0.5377 -0.8843 -0.0082
   96CHL1   C12 9541   3.077   6.609   7.339  0.5817 -0.3748  0.0436
   96CHL1  H12A 9542   2.982   6.650   7.381  0.2697 -0.1911 -0.8241
   96CHL1  H12B 9543   3.148   6.692   7.355 -0.1953 -0.0402  1.8384
   96CHL1   C11 9544   3.058   6.573   7.184  0.8536  0.2083  0.0861
   96CHL1  H11A 9545   2.975   6.502   7.169  2.0861 -1.2493  0.0170
   96CHL1  H11B 9546   3.033   6.667   7.130  0.1351  2.0163  3.4172
   96CHL1    C9 9547   3.196   6.519   7.128 -0.0041 -1.0437  0.2569
   96CHL1    H9 9548   3.265   6.606   7.127 -1.8125  0.4425  1.2238
   96CHL1   C10 9549   3.186   6.474   6.982 -0.4153 -0.5067  0.4568
   96CHL1   C19 9550   3.070   6.375   6.951 -0.0820 -0.0755  0.2635
   96CHL1  H19A 9551   3.063   6.342   6.845 -0.0932  1.9643 -0.3946
   96CHL1  H19B 9552   3.065   6.274   6.996 -4.5026  0.3898  0.9540
   96CHL1  H19C 9553   2.971   6.417   6.978  0.6384  0.9608  1.3853
   96CHL1    C1 9554   3.173   6.605   6.896 -0.1745 -0.5538 -0.1008
   96CHL1   H1A 9555   3.076   6.653   6.922 -0.3855 -0.6825 -0.6353
   96CHL1   H1B 9556   3.257   6.675   6.915  0.5807 -0.9362 -1.9481
   96CHL1    C2 9557   3.177   6.587   6.741 -0.4169  0.0227  0.3940
   96CHL1   H2A 9558   3.166   6.688   6.695  1.1578  0.1386  0.2285
   96CHL1   H2B 9559   3.095   6.518   6.712 -0.3461  0.1187 -0.0297
   96CHL1   C20 9560   3.068   6.512   7.669  0.2671  0.2291 -0.0917
   96CHL1   H20 9561   3.033   6.407   7.676  1.8328 -0.3715 -0.8942
   96CHL1   C21 9562   2.954   6.603   7.636  0.0969  0.0664 -0.2420
   96CHL1  H21A 9563   2.869   6.589   7.706 -0.1828  1.0277 -0.3811
   96CHL1  H21B 9564   2.904   6.582   7.539 -0.1561  2.6979 -0.7292
   96CHL1  H21C 9565   2.991   6.707   7.649  1.7226 -0.6305  0.9325
   96CHL1   C22 9566   3.125   6.551   7.809 -0.5898 -0.0684 -0.4058
   96CHL1  H22A 9567   3.225   6.509   7.830  0.0492  1.1803 -0.9503
   96CHL1  H22B 9568   3.136   6.661   7.812 -0.9964  0.0149 -1.7620
   96CHL1   C23 9569   3.040   6.500   7.916 -0.2597 -1.1500 -0.4696
   96CHL1  H23A 9570   2.937   6.541   7.906 -0.7660 -2.3048 -0.0960
   96CHL1  H23B 9571   3.034   6.389   7.911 -2.8686 -1.0176 -0.9425
   96CHL1   C24 9572   3.086   6.554   8.055 -0.7297 -0.0743 -0.7465
   96CHL1  H24A 9573   3.194   6.542   8.077 -0.4360  1.0299 -1.5115
   96CHL1  H24B 9574   3.084   6.665   8.061 -2.2602 -0.1716  0.6942
   96CHL1   C25 9575   2.998   6.509   8.172 -0.1870  1.0232 -0.4781
   96CHL1   H25 9576   2.908   6.574   8.169  1.0840  2.9119  1.2712
   96CHL1   C26 9577   2.941   6.364   8.167 -0.4216 -0.3628 -0.2521
   96CHL1  H26A 9578   3.034   6.304   8.159 -0.6541 -0.7192 -0.3058
   96CHL1  H26B 9579   2.890   6.348   8.264 -1.6098 -1.0545 -0.9815
   96CHL1  H26C 9580   2.871   6.349   8.081 -1.1659 -1.4605  0.5428
   96CHL1   C27 9581   3.073   6.534   8.305 -0.6469  0.2446  0.3033
   96CHL1  H27A 9582   3.163   6.468   8.304 -0.7891  0.0522  0.1170
   96CHL1  H27B 9583   3.112   6.638   8.304 -0.2657  0.1165 -1.5936
   96CHL1  H27C 9584   3.018   6.502   8.396  0.3226  0.5922  1.0228
   97OSM      N 9585   1.003   0.811  11.356 -0.4230 -0.1397 -0.5590
   97OSM    C15 9586   0.935   0.679  11.367  0.2253  0.2368  1.5530
   97OSM   H15A 9587   0.943   0.635  11.466  1.6288 -3.1918 -0.0114
   97OSM   H15B 9588   0.974   0.619  11.287 -2.0338  1.8505 -0.8368
   97OSM   H15C 9589   0.830   0.699  11.350  0.7104  0.7054 -1.0980
   97OSM    C14 9590   0.915   0.912  11.422 -0.0990 -0.6726 -0.5507
   97OSM   H14A 9591   0.815   0.911  11.381  0.4392 -1.2450 -1.8755
   97OSM   H14B 9592   0.954   1.012  11.411  0.2133 -0.5469  1.5532
   97OSM   H14C 9593   0.910   0.897  11.529  1.2145  0.7585 -0.2747
   97OSM    C13 9594   1.124   0.803  11.445 -0.2748 -0.2355  0.2042
   97OSM   H13A 9595   1.199   0.878  11.422 -0.1151 -1.2346 -2.6511
   97OSM   H13B 9596   1.168   0.708  11.422  0.5378  0.4380 -1.1068
   97OSM   H13C 9597   1.102   0.803  11.551 -0.4952  1.3034  0.1814
   97OSM    C12 9598   1.029   0.858  11.213 -0.5256 -0.1597 -0.3342
   97OSM   H12A 9599   1.104   0.802  11.159 -1.9570  0.6575 -3.2152
   97OSM   H12B 9600   1.062   0.958  11.233 -1.8360  0.2981 -0.4216
   97OSM    C11 9601   0.909   0.886  11.123  0.3142 -0.1849  0.1406
   97OSM   H11A 9602   0.854   0.791  11.107  0.4829 -0.2382 -0.1313
   97OSM   H11B 9603   0.954   0.927  11.029 -0.2504  0.5063  0.1632
   97OSM      P 9604   0.834   1.142  11.147 -0.0161 -0.2860  0.6437
   97OSM    O13 9605   0.726   1.216  11.221  0.4437 -0.3192 -0.8859
   97OSM    O14 9606   0.981   1.173  11.163  1.1048  0.3734 -0.2689
   97OSM    O11 9607   0.801   1.128  10.990 -0.4152  0.4456  0.0417
   97OSM    O12 9608   0.817   0.984  11.180  0.4428  0.6434 -0.3836
   97OSM    C1S 9609   0.670   1.087  10.949  0.4008  0.1574  0.3791
   97OSM    H1S 9610   0.606   1.162  10.998  1.8733 -0.8112  3.9378
   97OSM    H1T 9611   0.647   0.982  10.977 -2.1453  0.2233 -1.3068
   97OSM     NF 9612   0.493   1.083  10.778 -0.8752 -0.4367  0.0963
   97OSM    HNF 9613   0.455   1.002  10.734 -1.1205 -0.4295  0.2962
   97OSM    C2S 9614   0.641   1.091  10.793  0.7416 -0.4032  0.0899
   97OSM    H2S 9615   0.684   1.190  10.768  0.4663 -0.1567  0.5801
   97OSM    C3S 9616   0.727   0.980  10.729 -0.6106 -0.6781 -0.0843
   97OSM    H3S 9617   0.710   0.883  10.778  0.1027 -1.0298 -0.5093
   97OSM     O3 9618   0.865   1.003  10.742  0.2351 -0.4533  0.2711
   97OSM    HO3 9619   0.874   1.051  10.825 -1.8202  0.9597 -0.2788
   97OSM    C4S 9620   0.708   0.972  10.582 -0.1220  0.5420  0.1180
   97OSM    H4S 9621   0.762   1.051  10.527  1.5897  0.8392  2.1354
   97OSM    C5S 9622   0.628   0.883  10.522  0.3332 -0.4136 -0.1312
   97OSM    H5S 9623   0.577   0.804  10.580 -1.2693 -0.7091 -1.8955
   97OSM    C6S 9624   0.599   0.887  10.377  0.1712  0.4375 -0.8999
   97OSM    H6S 9625   0.537   0.977  10.357  0.1089  0.4023 -0.8670
   97OSM    H6T 9626   0.544   0.792  10.356  0.3025 -0.3260  2.0232
   97OSM    C7S 9627   0.714   0.890  10.271 -0.2090  0.0497 -0.4168
   97OSM    H7S 9628   0.779   0.801  10.278  1.3934  1.3295  1.4669
   97OSM    H7T 9629   0.774   0.981  10.295 -1.4837  0.0673  2.9175
   97OSM    C8S 9630   0.657   0.877  10.132  0.6371  0.1643  0.4120
   97OSM    H8S 9631   0.620   0.977  10.103  0.3974 -0.8024 -2.7818
   97OSM    H8T 9632   0.576   0.802  10.142  0.4138  0.3452 -0.0304
   97OSM    C9S 9633   0.754   0.842  10.018  0.3240  0.4956  0.0270
   97OSM    H9S 9634   0.804   0.745  10.042  2.0712  1.2228 -0.6114
   97OSM    H9T 9635   0.825   0.927  10.014  0.5197  0.2994 -0.8021
   97OSM   C10S 9636   0.698   0.822   9.878 -0.3240  0.2513  0.4369
   97OSM   H10S 9637   0.638   0.729   9.889 -0.7863  0.6475  1.2703
   97OSM   H10T 9638   0.774   0.806   9.799  0.6902 -2.2354  1.8446
   97OSM   C11S 9639   0.593   0.932   9.843  0.2285  0.0569 -0.2962
   97OSM   H11S 9640   0.652   1.026   9.851  0.7446 -0.1113 -1.9584
   97OSM   H11T 9641   0.514   0.927   9.920  0.4677 -1.8906 -0.1332
   97OSM   C12S 9642   0.538   0.915   9.701 -0.2153  1.3487  0.1471
   97OSM   H12S 9643   0.603   0.839   9.653 -1.9224  0.2040 -0.3996
   97OSM   H12T 9644   0.542   1.011   9.644 -0.8834  1.9346  1.0704
   97OSM   C13S 9645   0.394   0.864   9.704 -0.5521 -0.4002 -0.1664
   97OSM   H13S 9646   0.322   0.939   9.744  0.0748  0.6393 -0.9420
   97OSM   H13T 9647   0.391   0.771   9.764 -0.5525  0.3759  1.0567
   97OSM   C14S 9648   0.352   0.838   9.561  0.0194 -0.6693 -0.6221
   97OSM   H14S 9649   0.413   0.752   9.527  0.9881 -2.7304  5.6719
   97OSM   H14T 9650   0.388   0.925   9.501 -0.7648 -0.5667 -0.9551
   97OSM   C15S 9651   0.201   0.819   9.542 -0.3645 -0.3323 -0.0953
   97OSM   H15S 9652   0.179   0.817   9.433 -0.5862 -3.6970 -0.0582
   97OSM   H15T 9653   0.138   0.903   9.579  1.2248  1.4490 -1.3420
   97OSM   C16S 9654   0.146   0.681   9.604  0.2033  0.5937 -0.1575
   97OSM   H16S 9655   0.035   0.684   9.608  0.1795 -1.7639  1.9236
   97OSM   H16T 9656   0.187   0.683   9.707 -1.0576  0.4072  0.3507
   97OSM   C17S 9657   0.200   0.560   9.522  0.6105 -1.0114  0.6607
   97OSM   H17S 9658   0.311   0.568   9.515  0.7292 -0.7002  2.7206
   97OSM   H17T 9659   0.166   0.579   9.418  0.6328 -4.3900 -0.0261
   97OSM   C18S 9660   0.150   0.415   9.565 -0.2091 -0.3834  0.1544
   97OSM   H18S 9661   0.221   0.371   9.639 -0.2633 -0.2788  0.2704
   97OSM   H18T 9662   0.163   0.354   9.473 -0.7914  1.1974 -0.9919
   97OSM   H18U 9663   0.050   0.417   9.614  0.2645  0.3760  1.1090
   97OSM    C1F 9664   0.409   1.185  10.807  0.0844  0.5322  0.1835
   97OSM     OF 9665   0.445   1.296  10.852 -0.2292 -0.1442 -0.1954
   97OSM    C2F 9666   0.260   1.171  10.776 -0.0700 -0.6604 -0.1677
   97OSM    H2F 9667   0.211   1.271  10.767  1.3983  0.2767  1.8526
   97OSM    H2G 9668   0.211   1.133  10.868 -0.5120 -3.6122 -1.5710
   97OSM    C3F 9669   0.213   1.088  10.646 -0.2172  0.0044 -0.4762
   97OSM    H3F 9670   0.103   1.098  10.638  0.1146  3.9844 -1.1409
   97OSM    H3G 9671   0.241   0.981  10.661 -0.8858 -0.1051  0.0248
   97OSM    C4F 9672   0.282   1.144  10.513  0.6113  1.0689 -0.0727
   97OSM    H4F 9673   0.393   1.144  10.517  0.6120  1.4327 -0.0398
   97OSM    H4G 9674   0.227   1.240  10.503  1.5538  1.6433  0.1607
   97OSM    C5F 9675   0.234   1.040  10.402  0.0246 -0.3979  0.3758
   97OSM    H5F 9676   0.136   0.997  10.433 -0.2392 -0.6146 -0.7523
   97OSM    H5G 9677   0.307   0.957  10.412 -0.2722 -0.5557  1.3493
   97OSM    C6F 9678   0.225   1.107  10.266  0.0209 -0.3141  0.4443
   97OSM    H6F 9679   0.320   1.156  10.236  0.3668 -2.1441 -1.4886
   97OSM    H6G 9680   0.142   1.179  10.252  0.4732  0.0851 -0.1716
   97OSM    C7F 9681   0.202   0.994  10.160 -0.3520  0.0799  0.0676
   97OSM    H7F 9682   0.098   0.958  10.144 -0.8528  1.5756 -0.1720
   97OSM    H7G 9683   0.267   0.907  10.184  1.4609  1.6049  0.8228
   97OSM    C8F 9684   0.252   1.044  10.016 -0.1695  0.4270 -0.1965
   97OSM    H8F 9685   0.261   0.952   9.955 -2.2130 -0.1243  0.2977
   97OSM    H8G 9686   0.353   1.090  10.025 -0.1922  0.3567  0.4397
   97OSM    C9F 9687   0.162   1.147   9.952  0.5867  0.0852 -0.5580
   97OSM    H9F 9688   0.191   1.253   9.948 -1.6438  0.6626 -1.7088
   97OSM   C10F 9689   0.059   1.128   9.872 -0.0477 -0.4924 -0.3547
   97OSM   H10F 9690   0.017   1.218   9.824 -1.5207  0.2330  2.1951
   97OSM   C11F 9691   0.006   1.007   9.807  0.1454  0.8466  0.0834
   97OSM   H11F 9692   0.091   0.935   9.800  2.5724  3.8859 -4.1909
   97OSM   H11G 9693  -0.028   1.035   9.704 -2.2018  1.1871  0.9238
   97OSM   C12F 9694  -0.110   0.936   9.889  0.1712 -0.0686 -0.3108
   97OSM   H12F 9695  -0.185   1.013   9.917  0.3946  0.5393 -1.3562
   97OSM   H12G 9696  -0.073   0.882   9.979 -0.0779  1.7145  0.8892
   97OSM   C13F 9697  -0.193   0.836   9.809 -0.4137  0.2625 -0.1124
   97OSM   H13F 9698  -0.128   0.763   9.757 -0.4148  0.9981 -1.1551
   97OSM   H13G 9699  -0.253   0.893   9.735 -2.3733  0.4124  1.5325
   97OSM   C14F 9700  -0.295   0.757   9.899 -0.4124  0.0851  0.9413
   97OSM   H14F 9701  -0.346   0.838   9.955 -3.2547 -1.0089  0.0337
   97OSM   H14G 9702  -0.231   0.709   9.976 -0.3402  2.2801  2.2843
   97OSM   C15F 9703  -0.389   0.663   9.816 -0.5187 -1.0236  0.3301
   97OSM   H15F 9704  -0.481   0.716   9.782  0.5423  0.1840 -0.7437
   97OSM   H15G 9705  -0.426   0.593   9.894  0.5280 -0.2579  1.5306
   97OSM   C16F 9706  -0.321   0.586   9.706  0.0695  0.3226  0.7544
   97OSM   H16F 9707  -0.228   0.540   9.745 -1.3226 -1.7464  1.6769
   97OSM   H16G 9708  -0.297   0.667   9.634  1.4819 -2.5910 -2.1816
   97OSM   C17F 9709  -0.405   0.482   9.631  0.0933 -0.1096  0.2197
   97OSM   H17F 9710  -0.494   0.531   9.585 -0.9331 -0.7573  1.4907
   97OSM   H17G 9711  -0.448   0.411   9.704 -3.2665  0.2438 -1.2985
   97OSM   C18F 9712  -0.310   0.414   9.532  0.1282  0.1298 -0.2540
   97OSM   H18F 9713  -0.349   0.320   9.488 -1.9064  0.6876  0.2917
   97OSM   H18G 9714  -0.226   0.370   9.590 -0.1421 -0.2298 -0.1351
   97OSM   H18H 9715  -0.259   0.487   9.465  1.6006 -1.7330 -1.2090
   98OSM      N 9716   6.549   0.382  11.252 -0.3839 -0.6366  0.0420
   98OSM    C15 9717   6.412   0.412  11.184 -0.3062  0.2529  0.2671
   98OSM   H15A 9718   6.415   0.498  11.118  0.3226  1.2422  1.5519
   98OSM   H15B 9719   6.338   0.428  11.261  0.1517  1.9778  0.3664
   98OSM   H15C 9720   6.379   0.323  11.132 -0.3657  0.2497  0.3104
   98OSM    C14 9721   6.613   0.509  11.294  0.0313 -0.0574 -0.2716
   98OSM   H14A 9722   6.678   0.481  11.376  0.1388  0.5341 -0.1523
   98OSM   H14B 9723   6.539   0.574  11.339 -0.3685 -0.4927 -0.2950
   98OSM   H14C 9724   6.675   0.554  11.218 -1.6497  0.6483 -1.2479
   98OSM    C13 9725   6.514   0.290  11.366  0.2580  1.0066  0.3014
   98OSM   H13A 9726   6.487   0.193  11.327  2.6756  0.3003  0.3657
   98OSM   H13B 9727   6.431   0.327  11.425 -0.3903 -0.5982  0.4216
   98OSM   H13C 9728   6.588   0.270  11.441 -1.3480 -2.9069  0.9492
   98OSM    C12 9729   6.648   0.307  11.161  0.0965 -0.4883  0.0295
   98OSM   H12A 9730   6.599   0.224  11.114 -0.6563 -0.5594  0.9384
   98OSM   H12B 9731   6.727   0.264  11.220  1.7969 -0.1656 -1.9339
   98OSM    C11 9732   6.707   0.394  11.041  0.1986 -0.0126  0.4279
   98OSM   H11A 9733   6.630   0.465  11.003 -1.6495 -0.1320  3.8094
   98OSM   H11B 9734   6.752   0.331  10.960 -1.6255  1.0263 -1.4394
   98OSM      P 9735   6.957   0.443  11.106 -0.4286 -0.2142 -0.4494
   98OSM    O13 9736   7.053   0.554  11.131 -0.1615  0.1676  0.2765
   98OSM    O14 9737   6.959   0.333  11.200 -0.5120  0.3490 -0.4105
   98OSM    O11 9738   6.982   0.390  10.962  0.1344  0.3182  0.1010
   98OSM    O12 9739   6.804   0.488  11.091 -0.0063  0.0443  0.2996
   98OSM    C1S 9740   6.959   0.469  10.845 -0.1126 -0.5697  0.3711
   98OSM    H1S 9741   7.006   0.568  10.864  1.6633 -0.7806 -2.6197
   98OSM    H1T 9742   6.850   0.478  10.825  0.4230  1.9840 -1.6784
   98OSM     NF 9743   6.997   0.486  10.609  0.6297  0.9495  0.0723
   98OSM    HNF 9744   6.919   0.483  10.547  1.4066  0.7620 -0.9060
   98OSM    C2S 9745   7.014   0.394  10.718  0.2213  0.1922 -0.6842
   98OSM    H2S 9746   7.120   0.368  10.737  0.7190  0.8877 -2.4307
   98OSM    C3S 9747   6.948   0.252  10.698 -0.4042 -0.2258 -0.1117
   98OSM    H3S 9748   6.843   0.265  10.664 -0.7875  0.1922  1.2146
   98OSM     O3 9749   6.943   0.178  10.817  0.1992 -0.1537 -0.1470
   98OSM    HO3 9750   6.978   0.245  10.877  0.5479  2.1555 -2.8192
   98OSM    C4S 9751   7.020   0.177  10.585 -0.8536  0.5522  0.3776
   98OSM    H4S 9752   7.129   0.188  10.589 -0.6686 -0.3302 -1.8117
   98OSM    C5S 9753   6.968   0.131  10.471  0.5565 -0.0535 -0.6678
   98OSM    H5S 9754   6.862   0.150  10.448  0.2054  1.1363  1.7903
   98OSM    C6S 9755   7.043   0.054  10.365  0.2389 -0.6683  0.0805
   98OSM    H6S 9756   6.987   0.066  10.270  0.4379  2.3213  0.2834
   98OSM    H6T 9757   7.039  -0.055  10.386 -2.9310 -0.4245  1.1187
   98OSM    C7S 9758   7.188   0.092  10.329  0.4902  1.0502 -0.6055
   98OSM    H7S 9759   7.253   0.103  10.418  1.5480 -2.1307 -0.9548
   98OSM    H7T 9760   7.179   0.194  10.284 -0.7460  0.7334 -1.1164
   98OSM    C8S 9761   7.256   0.004  10.224  0.4038  0.2756 -0.0224
   98OSM    H8S 9762   7.245  -0.105  10.245  1.3812  0.6032  2.3151
   98OSM    H8T 9763   7.363   0.034  10.220  0.2064  1.0405  0.3342
   98OSM    C9S 9764   7.186   0.009  10.086 -0.8257  0.4478  0.8340
   98OSM    H9S 9765   7.180   0.118  10.065  2.0759  0.2478 -1.3952
   98OSM    H9T 9766   7.091  -0.048  10.091 -0.5502 -0.0015  0.9714
   98OSM   C10S 9767   7.280  -0.051   9.976 -0.0387  0.3471  0.3094
   98OSM   H10S 9768   7.309  -0.155  10.003 -0.5787  0.0482 -0.2526
   98OSM   H10T 9769   7.375   0.006   9.980 -0.0519  0.4722 -0.8603
   98OSM   C11S 9770   7.229  -0.058   9.830  0.0930  0.2200  0.9204
   98OSM   H11S 9771   7.178   0.032   9.791  0.3297  0.0483  0.2011
   98OSM   H11T 9772   7.145  -0.131   9.835 -0.0342  0.5034  3.9007
   98OSM   C12S 9773   7.343  -0.089   9.730  0.0438 -0.2538  1.0252
   98OSM   H12S 9774   7.380  -0.188   9.763  0.4458 -0.0093  1.3197
   98OSM   H12T 9775   7.430  -0.021   9.746  1.5403 -1.7843 -0.3548
   98OSM   C13S 9776   7.305  -0.100   9.574  0.8046 -0.0988 -0.3639
   98OSM   H13S 9777   7.254  -0.198   9.559  2.6351 -1.2039  0.4486
   98OSM   H13T 9778   7.402  -0.095   9.521  0.3908  2.0116 -0.9348
   98OSM   C14S 9779   7.209   0.018   9.536  0.1915 -0.0708 -0.1271
   98OSM   H14S 9780   7.249   0.118   9.563 -1.1129 -0.2190  2.5298
   98OSM   H14T 9781   7.111   0.011   9.587  0.9635 -0.2893  1.3419
   98OSM   C15S 9782   7.191   0.019   9.383 -0.0563  0.1417  0.4429
   98OSM   H15S 9783   7.136  -0.076   9.365  0.0112  0.3611 -0.9842
   98OSM   H15T 9784   7.294   0.019   9.340 -0.0416 -0.4928  0.4701
   98OSM   C16S 9785   7.115   0.142   9.327 -0.6017 -0.4234 -0.2537
   98OSM   H16S 9786   7.149   0.228   9.388 -5.4573  0.7275  1.0647
   98OSM   H16T 9787   7.006   0.134   9.347 -0.8654  4.4601  0.8861
   98OSM   C17S 9788   7.130   0.157   9.176 -0.3594 -0.7199 -0.3350
   98OSM   H17S 9789   7.077   0.073   9.128  1.4471 -1.6197 -0.7952
   98OSM   H17T 9790   7.237   0.165   9.147 -0.7592 -0.4344 -1.7656
   98OSM   C18S 9791   7.057   0.286   9.125  0.3465  0.1693 -0.1304
   98OSM   H18S 9792   6.948   0.269   9.138  0.3150 -0.4292 -1.1751
   98OSM   H18T 9793   7.065   0.294   9.015  2.8612  1.1201  0.0824
   98OSM   H18U 9794   7.089   0.384   9.167  1.1774 -0.0307 -0.2981
   98OSM    C1F 9795   7.079   0.590  10.603  0.0804  0.0140 -1.3638
   98OSM     OF 9796   7.169   0.604  10.684  0.9348  0.2123  0.5106
   98OSM    C2F 9797   7.052   0.697  10.503 -0.0363 -0.8334  0.1949
   98OSM    H2F 9798   7.151   0.724  10.460  1.2789 -2.8841  1.8052
   98OSM    H2G 9799   7.014   0.771  10.576  2.2324  0.9769 -0.3961
   98OSM    C3F 9800   6.960   0.674  10.386  0.3805 -0.1753  0.1232
   98OSM    H3F 9801   6.934   0.768  10.332 -3.9967 -0.7717  0.9652
   98OSM    H3G 9802   6.867   0.627  10.425  1.8056 -1.9002  1.5215
   98OSM    C4F 9803   7.022   0.594  10.275  0.1110  0.1461  0.1098
   98OSM    H4F 9804   7.025   0.492  10.320  0.7685  0.4218  0.7065
   98OSM    H4G 9805   7.127   0.623  10.251  0.8858 -1.3204  1.6089
   98OSM    C5F 9806   6.929   0.585  10.151  0.3124 -0.0350  0.1538
   98OSM    H5F 9807   6.918   0.688  10.112 -0.3883  0.4923  1.7335
   98OSM    H5G 9808   6.830   0.552  10.190  0.0603  0.2226 -0.2548
   98OSM    C6F 9809   6.992   0.502  10.039  0.2882  0.0834 -0.3072
   98OSM    H6F 9810   7.018   0.399  10.070  0.0056  0.4763  1.3125
   98OSM    H6G 9811   7.087   0.551  10.010  2.0872 -2.8665  0.4566
   98OSM    C7F 9812   6.901   0.493   9.914 -0.3080  0.5021 -0.4187
   98OSM    H7F 9813   6.966   0.462   9.830  1.2003  0.5693  0.6995
   98OSM    H7G 9814   6.863   0.594   9.886 -0.2055 -0.0238 -2.4766
   98OSM    C8F 9815   6.779   0.394   9.925  0.8013 -0.7785  0.0012
   98OSM    H8F 9816   6.749   0.377   9.819 -1.2189  1.1457  0.2353
   98OSM    H8G 9817   6.697   0.456   9.966 -0.1790 -1.3478 -1.0618
   98OSM    C9F 9818   6.795   0.266  10.006  0.2503 -0.2118 -0.0430
   98OSM    H9F 9819   6.796   0.272  10.115 -1.4939 -4.0092  0.2712
   98OSM   C10F 9820   6.806   0.143   9.952 -0.2737 -0.0583 -0.6781
   98OSM   H10F 9821   6.819   0.056  10.017 -0.3398 -1.2700 -2.2437
   98OSM   C11F 9822   6.800   0.106   9.804 -0.3032 -0.6751  0.6364
   98OSM   H11F 9823   6.897   0.070   9.763 -1.0829 -2.4269  0.2803
   98OSM   H11G 9824   6.797   0.198   9.742  1.3686  0.5349  2.2910
   98OSM   C12F 9825   6.684   0.009   9.778  0.7151 -0.4326 -0.7640
   98OSM   H12F 9826   6.597   0.069   9.811  2.6288  1.7483  0.4826
   98OSM   H12G 9827   6.696  -0.073   9.852  0.3143  0.1904 -0.0116
   98OSM   C13F 9828   6.669  -0.057   9.644 -0.1176 -0.2179  0.3394
   98OSM   H13F 9829   6.569  -0.101   9.623  0.2611 -0.1235 -1.8377
   98OSM   H13G 9830   6.738  -0.142   9.628  0.2402  0.1722 -0.2277
   98OSM   C14F 9831   6.699   0.048   9.530 -0.1716  0.3157  0.1089
   98OSM   H14F 9832   6.805   0.079   9.526  0.3866 -1.1429  2.2942
   98OSM   H14G 9833   6.637   0.138   9.548  1.6131  1.2346  1.7964
   98OSM   C15F 9834   6.664  -0.018   9.389 -0.1550 -0.7376 -0.5692
   98OSM   H15F 9835   6.562  -0.061   9.383 -0.7363  0.3704  1.0563
   98OSM   H15G 9836   6.734  -0.102   9.371 -0.0268 -0.1642 -2.9559
   98OSM   C16F 9837   6.688   0.083   9.272  0.1974  0.2381  0.0832
   98OSM   H16F 9838   6.793   0.117   9.279  0.5110 -0.8744  1.0122
   98OSM   H16G 9839   6.623   0.172   9.290  0.6345  1.0255 -2.1218
   98OSM   C17F 9840   6.659   0.019   9.133 -0.2636  0.1695 -0.1501
   98OSM   H17F 9841   6.561  -0.033   9.139 -0.5978  0.7994 -0.1142
   98OSM   H17G 9842   6.738  -0.060   9.133  0.2212  0.6430  0.9233
   98OSM   C18F 9843   6.660   0.110   9.015  0.5007  0.0807 -0.9367
   98OSM   H18F 9844   6.617   0.045   8.935  3.7653 -1.9690 -1.1098
   98OSM   H18G 9845   6.765   0.140   8.993  0.8359 -0.4077 -0.0201
   98OSM   H18H 9846   6.599   0.200   9.036 -1.0848 -0.9837 -0.8876
   99OSM      N 9847   1.924   1.879  10.862  0.6967 -0.4789  0.0151
   99OSM    C15 9848   1.972   2.014  10.822  0.1360 -0.2951  1.0532
   99OSM   H15A 9849   1.950   2.079  10.905 -0.8479 -2.4289  2.5027
   99OSM   H15B 9850   1.923   2.046  10.731  0.0381 -0.6818  0.9683
   99OSM   H15C 9851   2.079   2.011  10.806  0.3068  1.4931  1.7646
   99OSM    C14 9852   2.015   1.839  10.978 -0.2260 -0.8605  0.4775
   99OSM   H14A 9853   1.982   1.745  11.021 -0.6071 -1.0507 -0.2087
   99OSM   H14B 9854   2.011   1.918  11.051 -5.2328 -0.7941  0.3223
   99OSM   H14C 9855   2.114   1.823  10.939 -0.1550  1.0626 -0.1924
   99OSM    C13 9856   1.778   1.890  10.910  0.5989  0.4944  0.3664
   99OSM   H13A 9857   1.746   1.795  10.951 -0.5434 -0.1748 -1.9718
   99OSM   H13B 9858   1.705   1.905  10.831  0.6929 -2.5580 -0.3423
   99OSM   H13C 9859   1.766   1.974  10.977 -0.8663 -0.1628  0.9567
   99OSM    C12 9860   1.927   1.775  10.757 -0.1035  0.1387  0.1279
   99OSM   H12A 9861   2.028   1.760  10.721  0.2765 -1.6526  1.8245
   99OSM   H12B 9862   1.871   1.815  10.674 -0.5155  0.5637  0.6102
   99OSM    C11 9863   1.881   1.626  10.794 -0.3575  0.3673  0.0030
   99OSM   H11A 9864   1.947   1.599  10.879 -0.1253  0.6281 -0.0933
   99OSM   H11B 9865   1.903   1.555  10.711 -1.2753 -0.0245  0.0876
   99OSM      P 9866   1.698   1.504  10.920 -0.4876  0.0887  0.0970
   99OSM    O13 9867   1.785   1.491  11.033 -0.8846 -0.5776 -0.2280
   99OSM    O14 9868   1.561   1.529  10.961  0.4788 -0.6684 -0.0323
   99OSM    O11 9869   1.715   1.371  10.829  0.7456 -0.1238 -0.3790
   99OSM    O12 9870   1.742   1.625  10.832 -0.4432  0.4329  0.2418
   99OSM    C1S 9871   1.667   1.366  10.701  0.7000  0.5313  0.5657
   99OSM    H1S 9872   1.656   1.466  10.653  0.5184  0.4593  0.4614
   99OSM    H1T 9873   1.574   1.306  10.698  0.0558  1.5783 -0.9234
   99OSM     NF 9874   1.712   1.261  10.481  0.3803 -0.6877  0.2638
   99OSM    HNF 9875   1.715   1.166  10.453 -1.2263 -0.2791 -1.3908
   99OSM    C2S 9876   1.777   1.302  10.605  0.7510  0.9119  0.3011
   99OSM    H2S 9877   1.862   1.372  10.594 -1.7116  3.7190 -1.4993
   99OSM    C3S 9878   1.833   1.179  10.681  0.1105 -0.3573  0.2663
   99OSM    H3S 9879   1.745   1.118  10.712 -1.1898  1.5563  0.4296
   99OSM     O3 9880   1.906   1.198  10.803 -0.0496 -0.5513  0.5178
   99OSM    HO3 9881   1.870   1.279  10.842 -1.9560 -1.8181  1.4762
   99OSM    C4S 9882   1.918   1.095  10.591  0.0222 -0.2740  0.2513
   99OSM    H4S 9883   2.002   1.146  10.542 -0.0821  1.7122  2.0682
   99OSM    C5S 9884   1.903   0.964  10.564 -0.4854 -0.0555  0.1719
   99OSM    H5S 9885   1.835   0.892  10.614  0.2465 -0.1295  1.0700
   99OSM    C6S 9886   2.007   0.893  10.477  0.1063 -0.7059  0.1197
   99OSM    H6S 9887   2.053   0.803  10.522  5.3621  2.0656  0.6376
   99OSM    H6T 9888   2.090   0.963  10.455  0.5338 -1.8678 -2.1492
   99OSM    C7S 9889   1.924   0.837  10.345 -0.3733  0.3469 -0.0404
   99OSM    H7S 9890   1.825   0.796  10.374 -0.1268 -0.8535 -0.8480
   99OSM    H7T 9891   1.986   0.755  10.303 -3.2518 -1.8239 -0.2415
   99OSM    C8S 9892   1.920   0.941  10.232 -0.5547 -0.2725  0.6787
   99OSM    H8S 9893   2.015   0.997  10.222 -0.3708 -0.6640  0.1924
   99OSM    H8T 9894   1.848   1.016  10.273 -1.5635  0.2936 -2.0369
   99OSM    C9S 9895   1.864   0.896  10.097 -0.3120  0.2158  0.2421
   99OSM    H9S 9896   1.852   0.987  10.035 -0.4313 -0.6776 -1.0511
   99OSM    H9T 9897   1.759   0.862  10.092  0.1155 -1.2262  0.7319
   99OSM   C10S 9898   1.957   0.791  10.020  0.4921 -0.3587  0.2082
   99OSM   H10S 9899   1.974   0.697  10.076  0.9074 -0.8211 -0.6726
   99OSM   H10T 9900   2.053   0.845  10.004  0.6419 -1.1266 -1.6280
   99OSM   C11S 9901   1.900   0.764   9.884  0.5991 -0.1893 -0.2854
   99OSM   H11S 9902   1.925   0.853   9.823  0.8947  0.7287  1.1355
   99OSM   H11T 9903   1.790   0.749   9.881  0.3936  1.5838 -2.3230
   99OSM   C12S 9904   1.969   0.643   9.815  0.3427  0.3917 -0.4978
   99OSM   H12S 9905   2.073   0.642   9.854  0.0102  0.1320  0.3997
   99OSM   H12T 9906   1.912   0.556   9.854  0.0004  0.7041 -0.3003
   99OSM   C13S 9907   1.979   0.640   9.662  0.1755 -0.2723  0.4655
   99OSM   H13S 9908   2.061   0.572   9.630 -1.7106 -2.4650  0.1442
   99OSM   H13T 9909   1.998   0.743   9.626 -2.8779 -0.2987 -1.4123
   99OSM   C14S 9910   1.848   0.603   9.589 -0.5590 -0.9471 -0.2392
   99OSM   H14S 9911   1.777   0.686   9.611  3.6178  2.7769  0.1024
   99OSM   H14T 9912   1.802   0.508   9.624 -1.0859 -0.8234 -0.5970
   99OSM   C15S 9913   1.852   0.610   9.436 -0.1701 -0.1637  0.4023
   99OSM   H15S 9914   1.954   0.625   9.396 -0.2529 -4.5673 -1.7727
   99OSM   H15T 9915   1.795   0.699   9.401  0.4419 -0.3903 -1.1824
   99OSM   C16S 9916   1.789   0.491   9.366 -0.8338  0.0339  0.6154
   99OSM   H16S 9917   1.678   0.490   9.366 -0.8898 -4.4316 -0.5456
   99OSM   H16T 9918   1.818   0.393   9.410 -2.4722  0.4611  2.7384
   99OSM   C17S 9919   1.828   0.491   9.218  0.6810 -0.2439  0.8572
   99OSM   H17S 9920   1.936   0.472   9.204 -0.0599 -3.8916 -0.4550
   99OSM   H17T 9921   1.799   0.595   9.188  0.0041 -1.2436 -2.1401
   99OSM   C18S 9922   1.757   0.393   9.131 -0.3503  0.5302  0.0533
   99OSM   H18S 9923   1.647   0.394   9.144 -0.3295  2.3592  0.2663
   99OSM   H18T 9924   1.785   0.291   9.165 -1.4768 -0.7894 -2.8562
   99OSM   H18U 9925   1.783   0.409   9.025  1.2389  1.3067  0.5404
   99OSM    C1F 9926   1.665   1.361  10.401 -0.5402 -0.3648 -0.1647
   99OSM     OF 9927   1.663   1.479  10.432 -0.5382  0.0992  0.9069
   99OSM    C2F 9928   1.608   1.309  10.268  0.4925  1.1423 -0.3845
   99OSM    H2F 9929   1.513   1.260  10.296  1.1158  0.8157  1.2213
   99OSM    H2G 9930   1.664   1.225  10.222 -1.5032 -0.9583  0.9607
   99OSM    C3F 9931   1.595   1.429  10.175 -0.1862  0.1878 -0.1712
   99OSM    H3F 9932   1.502   1.486  10.196  0.8916  1.1377  2.0670
   99OSM    H3G 9933   1.676   1.503  10.187 -0.2711  0.1044  0.9554
   99OSM    C4F 9934   1.597   1.387  10.027  0.1813 -0.9112  0.6445
   99OSM    H4F 9935   1.580   1.478   9.965 -3.4696 -2.3541 -0.6441
   99OSM    H4G 9936   1.514   1.315  10.014  0.0963 -0.4206 -1.7272
   99OSM    C5F 9937   1.737   1.336   9.979 -0.1001  0.3639 -1.1310
   99OSM    H5F 9938   1.772   1.241  10.023 -1.6064  0.2808 -0.0468
   99OSM    H5G 9939   1.798   1.422  10.016 -0.0097 -0.5232  0.8456
   99OSM    C6F 9940   1.751   1.315   9.830 -0.3454  0.7871 -0.1544
   99OSM    H6F 9941   1.857   1.285   9.813  0.3881  3.0193  0.2873
   99OSM    H6G 9942   1.740   1.413   9.779  2.8308  2.1849  1.6922
   99OSM    C7F 9943   1.648   1.216   9.779  0.1258 -0.6854  0.0045
   99OSM    H7F 9944   1.559   1.283   9.772 -0.9232 -1.9626  0.7668
   99OSM    H7G 9945   1.629   1.132   9.848  0.0025 -0.3443  0.3844
   99OSM    C8F 9946   1.688   1.166   9.638 -0.1690  0.6621  0.4981
   99OSM    H8F 9947   1.616   1.087   9.610  0.0203  0.5145  0.4245
   99OSM    H8G 9948   1.783   1.109   9.652 -0.3397  0.5234  1.0766
   99OSM    C9F 9949   1.697   1.266   9.520  0.1273 -0.4315 -0.5452
   99OSM    H9F 9950   1.797   1.301   9.491  0.8026 -2.4211 -0.7253
   99OSM   C10F 9951   1.594   1.302   9.448 -0.9027  0.3389 -0.0987
   99OSM   H10F 9952   1.599   1.358   9.354  1.8097  0.5020  0.1157
   99OSM   C11F 9953   1.451   1.258   9.468 -0.1595  0.2246 -0.6190
   99OSM   H11F 9954   1.385   1.347   9.471 -0.0037  0.3397 -0.6088
   99OSM   H11G 9955   1.430   1.201   9.561 -0.3065 -2.2376 -2.1290
   99OSM   C12F 9956   1.413   1.162   9.346 -0.5678 -0.0462 -0.2124
   99OSM   H12F 9957   1.344   1.082   9.382  0.6414 -1.6600 -1.3723
   99OSM   H12G 9958   1.505   1.112   9.306 -0.8753 -1.2439  0.5319
   99OSM   C13F 9959   1.354   1.243   9.229 -0.4985  0.3759 -0.4463
   99OSM   H13F 9960   1.414   1.334   9.212  2.3438 -1.3981 -0.2503
   99OSM   H13G 9961   1.247   1.269   9.247 -0.8117 -2.3979  2.1550
   99OSM   C14F 9962   1.368   1.157   9.100 -0.1784  0.1787 -0.2241
   99OSM   H14F 9963   1.299   1.071   9.112  0.8258 -0.9707 -2.5287
   99OSM   H14G 9964   1.467   1.107   9.094  0.0124  0.0480  2.9753
   99OSM   C15F 9965   1.327   1.239   8.970 -0.3899  0.7212 -0.6480
   99OSM   H15F 9966   1.417   1.215   8.910  0.1433  1.4352 -0.1407
   99OSM   H15G 9967   1.317   1.348   8.991 -0.5722  0.1652  2.4616
   99OSM   C16F 9968   1.195   1.196   8.907 -0.1601 -0.4853 -0.0040
   99OSM   H16F 9969   1.175   1.089   8.925 -0.5484 -0.8551 -2.5326
   99OSM   H16G 9970   1.219   1.202   8.799 -0.2580 -0.4299 -0.0216
   99OSM   C17F 9971   1.063   1.273   8.943  0.9284 -0.2579 -0.0183
   99OSM   H17F 9972   1.061   1.282   9.054 -1.4068 -0.9577  0.0212
   99OSM   H17G 9973   0.972   1.213   8.924  0.5428  0.1022  0.6677
   99OSM   C18F 9974   1.065   1.408   8.867 -0.6865 -0.1108  0.2084
   99OSM   H18F 9975   1.056   1.394   8.757 -0.9733  1.4698  0.0148
   99OSM   H18G 9976   1.164   1.459   8.874 -1.3443  1.1336  0.4567
   99OSM   H18H 9977   0.982   1.475   8.896  0.9143  0.3837  3.9507
  100OSM      N 9978   3.867   2.688  10.942 -0.3286  0.2761 -0.0893
  100OSM    C15 9979   3.988   2.634  11.000  0.6854  0.3832  0.1844
  100OSM   H15A 9980   3.999   2.529  10.975  1.5431  0.0285  1.9618
  100OSM   H15B 9981   3.979   2.634  11.108  1.1797  0.8628  0.2282
  100OSM   H15C 9982   4.075   2.690  10.969  0.3903  1.6588  1.6000
  100OSM    C14 9983   3.745   2.618  11.001  0.1514  0.0476 -0.2099
  100OSM   H14A 9984   3.749   2.517  10.964 -1.9904  0.1059 -0.6668
  100OSM   H14B 9985   3.654   2.652  10.952 -2.1089 -1.5642  2.7389
  100OSM   H14C 9986   3.743   2.617  11.109  0.4580  1.6313 -0.1707
  100OSM    C13 9987   3.850   2.835  10.959  0.3760 -0.0412  0.4133
  100OSM   H13A 9988   3.846   2.865  11.063 -2.1184  0.1924  0.2836
  100OSM   H13B 9989   3.764   2.868  10.904  1.3452 -0.9081 -1.6764
  100OSM   H13C 9990   3.936   2.891  10.924 -1.8986  2.6261 -1.1021
  100OSM    C12 9991   3.874   2.658  10.787  0.0143 -0.1045 -0.2540
  100OSM   H12A 9992   3.942   2.721  10.733  0.5306 -1.3343 -1.0780
  100OSM   H12B 9993   3.773   2.679  10.754  0.0903  1.5569  0.5514
  100OSM    C11 9994   3.895   2.506  10.741 -0.3770 -0.1682  0.1674
  100OSM   H11A 9995   3.885   2.508  10.631  1.4280 -0.3591 -0.0183
  100OSM   H11B 9996   3.818   2.440  10.787 -0.3084  0.1536  0.7527
  100OSM      P 9997   4.093   2.327  10.741 -0.3118 -0.2408 -0.0465
  100OSM    O13 9998   4.179   2.299  10.853  0.5007 -0.2811  0.4572
  100OSM    O14 9999   3.991   2.224  10.700  0.0214  0.4198 -0.2926
  100OSM    O1110000   4.181   2.370  10.617  0.6324  0.0402  0.4786
  100OSM    O1210001   4.023   2.464  10.776 -0.5552 -0.0534 -0.5310
  100OSM    C1S10002   4.211   2.260  10.529 -0.0621 -0.4232 -0.9718
  100OSM    H1S10003   4.236   2.161  10.573  1.9790  1.0734  1.4170
  100OSM    H1T10004   4.311   2.280  10.483  0.3728 -0.2451  0.0376
  100OSM     NF10005   4.140   2.133  10.329  0.4189  0.1958  0.6459
  100OSM    HNF10006   4.180   2.140  10.238  0.8029 -2.2215  0.5920
  100OSM    C2S10007   4.103   2.243  10.413  0.6893  0.0888 -0.4726
  100OSM    H2S10008   4.005   2.222  10.461  1.5739  1.0616  1.8218
  100OSM    C3S10009   4.081   2.371  10.333 -0.4092 -0.0060  0.3460
  100OSM    H3S10010   4.175   2.390  10.277 -1.3519 -1.1733 -1.7085
  100OSM     O310011   4.067   2.492  10.405  0.0332 -0.7271 -0.1675
  100OSM    HO310012   4.083   2.464  10.495  1.0724  0.4505  0.0339
  100OSM    C4S10013   3.957   2.350  10.244 -0.0888 -0.8476  0.2419
  100OSM    H4S10014   3.863   2.327  10.297 -1.0838 -1.1763 -1.6319
  100OSM    C5S10015   3.960   2.351  10.111 -0.6734 -0.6361 -0.4167
  100OSM    H5S10016   4.055   2.362  10.056 -0.5616  3.6491  0.4195
  100OSM    C6S10017   3.844   2.329  10.019  0.2547 -0.1012  0.3365
  100OSM    H6S10018   3.756   2.289  10.074 -0.3882  0.9152  0.0502
  100OSM    H6T10019   3.856   2.271   9.925 -0.5596  1.6481 -0.8766
  100OSM    C7S10020   3.801   2.456   9.950 -0.2993 -0.3425  0.5630
  100OSM    H7S10021   3.806   2.538  10.025  1.3084  0.0676  0.0274
  100OSM    H7T10022   3.700   2.432   9.910 -1.4798 -0.9045  3.7865
  100OSM    C8S10023   3.887   2.510   9.830 -0.1729  0.4011 -0.1483
  100OSM    H8S10024   3.995   2.502   9.857 -0.4407 -1.0960  0.5751
  100OSM    H8T10025   3.874   2.619   9.821  2.4721  0.7982  0.2749
  100OSM    C9S10026   3.873   2.441   9.690  0.5324 -0.0630 -0.0094
  100OSM    H9S10027   3.767   2.428   9.661  0.8526 -3.0979 -0.0806
  100OSM    H9T10028   3.914   2.339   9.709 -0.0641  0.1247  2.3295
  100OSM   C10S10029   3.963   2.512   9.590 -0.3832  0.4113 -0.1775
  100OSM   H10S10030   4.072   2.502   9.613  0.0765  2.3309 -1.3589
  100OSM   H10T10031   3.946   2.621   9.599  0.6492  0.7700 -2.3042
  100OSM   C11S10032   3.954   2.471   9.437  0.1377 -0.4626 -0.2905
  100OSM   H11S10033   4.012   2.545   9.378 -3.2903  2.5902 -0.0034
  100OSM   H11T10034   3.848   2.488   9.409  0.2417  1.5512  0.4341
  100OSM   C12S10035   3.988   2.324   9.410 -0.1339 -0.3647  0.9961
  100OSM   H12S10036   3.916   2.248   9.448 -1.5418  1.7510  2.6477
  100OSM   H12T10037   4.078   2.294   9.468  0.7764  0.5468  0.0805
  100OSM   C13S10038   4.008   2.292   9.263  0.0373 -0.4504 -0.5434
  100OSM   H13S10039   4.065   2.197   9.257  1.4286  0.2800  0.8057
  100OSM   H13T10040   4.075   2.372   9.223  0.4905 -0.8327 -0.5460
  100OSM   C14S10041   3.883   2.271   9.178 -0.1179 -0.1011 -0.7365
  100OSM   H14S10042   3.813   2.357   9.183 -2.1966 -1.7950  0.6344
  100OSM   H14T10043   3.815   2.201   9.231  0.4854 -0.8195 -0.9057
  100OSM   C15S10044   3.904   2.241   9.030 -0.3255  0.2298 -0.3417
  100OSM   H15S10045   3.970   2.151   9.031 -0.8641 -0.1824  2.3833
  100OSM   H15T10046   3.966   2.320   8.983 -0.4990  1.5300  1.5503
  100OSM   C16S10047   3.773   2.223   8.956 -0.6566  0.1845 -0.3302
  100OSM   H16S10048   3.706   2.304   8.990  0.3865  1.2767 -0.8614
  100OSM   H16T10049   3.714   2.133   8.984  0.9604 -1.1709 -1.1558
  100OSM   C17S10050   3.802   2.239   8.808  0.1211 -0.3519 -0.3481
  100OSM   H17S10051   3.880   2.163   8.786 -0.7422 -2.1258  2.4244
  100OSM   H17T10052   3.837   2.339   8.774 -2.4293  1.1610  1.3050
  100OSM   C18S10053   3.683   2.201   8.725 -0.1864 -0.4778  0.3674
  100OSM   H18S10054   3.603   2.277   8.740 -0.1007  0.0593 -1.7352
  100OSM   H18T10055   3.645   2.101   8.753 -3.0954  0.4107 -0.2542
  100OSM   H18U10056   3.700   2.202   8.615  1.3521  1.3949  0.5819
  100OSM    C1F10057   4.136   2.003  10.366 -0.0403  0.5269 -0.4531
  100OSM     OF10058   4.087   1.971  10.474  0.0784  0.4487  0.3229
  100OSM    C2F10059   4.197   1.910  10.258  0.0471 -0.1797 -0.1179
  100OSM    H2F10060   4.301   1.944  10.241 -0.3875  0.6954 -1.0492
  100OSM    H2G10061   4.146   1.923  10.160 -0.2191 -0.7402 -0.0572
  100OSM    C3F10062   4.182   1.760  10.304  0.2070  0.0995 -0.2979
  100OSM    H3F10063   4.079   1.729  10.331  0.2934  0.7564  0.7712
  100OSM    H3G10064   4.231   1.757  10.403 -0.8147  1.7240  0.2663
  100OSM    C4F10065   4.248   1.670  10.193 -0.7021  0.1153  0.0470
  100OSM    H4F10066   4.280   1.581  10.250  0.3152  0.6054  0.2530
  100OSM    H4G10067   4.342   1.725  10.172  0.8188 -2.4998 -0.0763
  100OSM    C5F10068   4.162   1.624  10.077  0.8401 -0.3551  0.1986
  100OSM    H5F10069   4.103   1.711  10.042  0.1649 -0.3784  1.2553
  100OSM    H5G10070   4.087   1.552  10.115 -1.2323  0.9277 -1.3422
  100OSM    C6F10071   4.249   1.575   9.964 -0.0446 -0.5953 -0.5506
  100OSM    H6F10072   4.342   1.636   9.964 -1.2301  1.3280  2.6316
  100OSM    H6G10073   4.194   1.577   9.867  0.5962  0.3841 -0.9045
  100OSM    C7F10074   4.293   1.430   9.983 -0.4125 -0.4902 -0.3953
  100OSM    H7F10075   4.211   1.360   9.955 -2.2226  2.2642 -2.1537
  100OSM    H7G10076   4.332   1.423  10.087  0.1327  2.2607 -0.3930
  100OSM    C8F10077   4.416   1.396   9.899 -0.3419  0.1313  0.0700
  100OSM    H8F10078   4.491   1.476   9.917  0.5954 -0.7697  0.2465
  100OSM    H8G10079   4.386   1.387   9.793 -0.2889 -0.2793  0.0906
  100OSM    C9F10080   4.482   1.265   9.934 -0.5442  0.9652 -0.4127
  100OSM    H9F10081   4.451   1.235  10.036  0.6882  2.4546  0.4225
  100OSM   C10F10082   4.556   1.195   9.847  0.2941  0.1013 -0.1705
  100OSM   H10F10083   4.579   1.092   9.878 -0.3361  0.2378  0.7685
  100OSM   C11F10084   4.602   1.221   9.707 -0.6496 -0.1311  0.1820
  100OSM   H11F10085   4.710   1.198   9.708 -0.5991 -0.0098 -1.3840
  100OSM   H11G10086   4.579   1.329   9.695 -1.3254  0.0635  2.9234
  100OSM   C12F10087   4.546   1.131   9.593 -1.0286 -0.3116  1.0541
  100OSM   H12F10088   4.451   1.086   9.628 -0.1286 -0.5631  3.2511
  100OSM   H12G10089   4.627   1.057   9.574 -0.3159  0.8103 -0.3553
  100OSM   C13F10090   4.525   1.212   9.461 -0.8873  0.2019  0.2147
  100OSM   H13F10091   4.469   1.307   9.477 -0.4824  0.5391 -0.3410
  100OSM   H13G10092   4.459   1.154   9.393  0.0263  0.7218 -1.1255
  100OSM   C14F10093   4.668   1.242   9.398  0.0042 -0.3831 -0.2999
  100OSM   H14F10094   4.698   1.146   9.349 -0.9136 -1.1421  0.5990
  100OSM   H14G10095   4.738   1.271   9.479 -2.4657 -2.4997  2.7020
  100OSM   C15F10096   4.668   1.343   9.283 -0.3178 -0.8193  0.1733
  100OSM   H15F10097   4.612   1.430   9.324 -0.2072 -0.4634 -0.4299
  100OSM   H15G10098   4.606   1.312   9.196  2.5098 -1.8494 -1.5275
  100OSM   C16F10099   4.806   1.387   9.241  0.4420  0.6830 -0.0054
  100OSM   H16F10100   4.848   1.301   9.185  1.6007  1.8524 -0.9740
  100OSM   H16G10101   4.880   1.416   9.319  1.7999 -2.2361 -0.1453
  100OSM   C17F10102   4.805   1.498   9.139 -0.5078  0.7011 -0.7344
  100OSM   H17F10103   4.909   1.531   9.123 -0.1768  0.0564  0.0725
  100OSM   H17G10104   4.740   1.578   9.183  2.2170  2.0193  1.0285
  100OSM   C18F10105   4.752   1.472   9.003  0.2070 -0.1487  0.1077
  100OSM   H18F10106   4.653   1.426   9.016 -0.6228  2.3950  3.5613
  100OSM   H18G10107   4.811   1.404   8.937  0.1504  0.1133 -0.2168
  100OSM   H18H10108   4.748   1.565   8.942 -0.0067 -0.5268 -0.4580
  101OSM      N10109   6.451   1.426  11.230 -0.7258  0.4103 -0.5178
  101OSM    C1510110   6.579   1.382  11.308 -0.3177 -0.8305  0.8085
  101OSM   H15A10111   6.671   1.405  11.256  0.5154  0.0949  2.6425
  101OSM   H15B10112   6.586   1.275  11.316 -0.5636 -1.0689 -1.6557
  101OSM   H15C10113   6.580   1.441  11.398 -0.0049  2.0792 -1.0235
  101OSM    C1410114   6.429   1.324  11.128  0.0578 -0.0827 -0.5004
  101OSM   H14A10115   6.355   1.361  11.058 -1.2492 -1.9113 -0.1337
  101OSM   H14B10116   6.395   1.233  11.175  0.3460 -0.2429 -0.6021
  101OSM   H14C10117   6.519   1.318  11.069 -0.9597  2.6042 -2.4225
  101OSM    C1310118   6.328   1.432  11.315  0.2945 -0.1462  0.3576
  101OSM   H13A10119   6.254   1.461  11.242  1.1942 -0.7166 -0.7948
  101OSM   H13B10120   6.337   1.505  11.394 -1.6811 -1.0895  1.5029
  101OSM   H13C10121   6.302   1.334  11.354 -0.1480  0.6080  1.9989
  101OSM    C1210122   6.482   1.553  11.158  0.1937  0.2495  0.8597
  101OSM   H12A10123   6.512   1.625  11.233 -3.2185  0.8972  1.6765
  101OSM   H12B10124   6.387   1.598  11.135 -0.8779 -2.3215  0.0439
  101OSM    C1110125   6.569   1.547  11.033 -0.3267  0.3871 -0.0477
  101OSM   H11A10126   6.575   1.651  10.994 -2.6072  0.4683 -0.2606
  101OSM   H11B10127   6.522   1.484  10.954  1.7320  0.8844 -1.6919
  101OSM      P10128   6.790   1.437  10.958  0.3031  0.4080  0.2041
  101OSM    O1310129   6.935   1.464  10.989  0.3961 -0.3771 -0.1103
  101OSM    O1410130   6.746   1.294  10.946 -0.2604  0.6752  0.0904
  101OSM    O1110131   6.751   1.502  10.820 -0.6140  0.4470  0.4787
  101OSM    O1210132   6.700   1.508  11.068 -0.2216 -0.2331  0.6816
  101OSM    C1S10133   6.789   1.635  10.785 -0.3179  0.7906  0.1744
  101OSM    H1S10134   6.884   1.665  10.835  0.4106 -0.4967 -0.4098
  101OSM    H1T10135   6.713   1.710  10.815 -1.1641 -0.4847  1.3046
  101OSM     NF10136   6.858   1.758  10.598 -0.6630 -0.0420 -0.4197
  101OSM    HNF10137   6.795   1.816  10.547  0.2748  0.9549 -0.4547
  101OSM    C2S10138   6.812   1.624  10.635 -0.3562  0.0360  0.3783
  101OSM    H2S10139   6.895   1.556  10.608 -0.9539 -0.6561  0.2915
  101OSM    C3S10140   6.685   1.578  10.554  0.7104 -0.0592  0.3223
  101OSM    H3S10141   6.608   1.659  10.556 -0.6443 -1.3191  0.1467
  101OSM     O310142   6.617   1.460  10.608  0.8970 -0.2419 -0.0435
  101OSM    HO310143   6.663   1.449  10.691 -2.2485  0.5661  1.8981
  101OSM    C4S10144   6.730   1.552  10.411  0.7584 -0.9930  0.0007
  101OSM    H4S10145   6.719   1.641  10.348  1.9427 -1.5251 -0.9723
  101OSM    C5S10146   6.784   1.445  10.349 -0.8570 -0.2250  0.4631
  101OSM    H5S10147   6.799   1.346  10.394  0.4359  0.0787  0.7299
  101OSM    C6S10148   6.842   1.445  10.205 -0.2739 -0.1372 -0.1301
  101OSM    H6S10149   6.766   1.388  10.147  1.0005 -0.7421 -1.2210
  101OSM    H6T10150   6.929   1.376  10.198 -1.6428 -1.8404 -0.5611
  101OSM    C7S10151   6.863   1.585  10.136 -0.4420 -0.3501 -0.2874
  101OSM    H7S10152   6.890   1.660  10.214 -1.4223  0.8690 -1.1068
  101OSM    H7T10153   6.761   1.603  10.097 -0.6596  1.1316  0.9041
  101OSM    C8S10154   6.967   1.584  10.031  0.4926  0.2962  0.1259
  101OSM    H8S10155   6.958   1.503   9.955  1.4104  3.0181 -3.0373
  101OSM    H8T10156   7.071   1.576  10.067  2.0857  1.4934 -3.8711
  101OSM    C9S10157   6.959   1.719   9.962 -0.6429 -0.7426 -0.1562
  101OSM    H9S10158   7.009   1.796  10.025  1.3141 -1.3320 -0.9284
  101OSM    H9T10159   6.855   1.754   9.946 -1.1429 -2.4758 -0.7229
  101OSM   C10S10160   7.027   1.718   9.821 -0.0416 -0.5043  0.3798
  101OSM   H10S10161   7.119   1.656   9.825  1.0352  0.9140 -1.8118
  101OSM   H10T10162   7.049   1.826   9.810 -0.8840 -0.5424 -2.0786
  101OSM   C11S10163   6.926   1.674   9.710 -0.1174  0.0757  0.0632
  101OSM   H11S10164   6.824   1.715   9.726 -0.3833 -0.2814 -0.7213
  101OSM   H11T10165   6.926   1.563   9.718 -1.8329  0.0478  0.0114
  101OSM   C12S10166   6.986   1.712   9.575 -0.9737 -0.2161 -0.2935
  101OSM   H12S10167   7.089   1.669   9.579 -0.3921  1.1929  0.2394
  101OSM   H12T10168   6.992   1.823   9.579  1.0348 -0.3017 -0.2165
  101OSM   C13S10169   6.905   1.662   9.450  0.9644  0.4387 -0.2673
  101OSM   H13S10170   6.800   1.695   9.464  1.0136  0.1837  0.7608
  101OSM   H13T10171   6.904   1.552   9.465 -0.6156  0.6649  1.4909
  101OSM   C14S10172   6.963   1.701   9.315  0.5176 -0.2892  0.8494
  101OSM   H14S10173   7.071   1.706   9.341  1.0403  0.3403 -1.3588
  101OSM   H14T10174   6.921   1.802   9.293 -1.3334 -1.3216 -0.4896
  101OSM   C15S10175   6.934   1.600   9.206  0.3640 -0.0502 -0.2403
  101OSM   H15S10176   6.992   1.511   9.236  0.7979  0.6999  1.1477
  101OSM   H15T10177   6.992   1.634   9.118  1.8815 -0.9345  0.4053
  101OSM   C16S10178   6.783   1.570   9.184 -0.0454  0.1828 -0.0410
  101OSM   H16S10179   6.717   1.614   9.261 -0.2805  0.0712 -0.1793
  101OSM   H16T10180   6.776   1.459   9.193  1.3346  0.2916  2.7461
  101OSM   C17S10181   6.725   1.614   9.043 -0.6729 -0.6812  0.1151
  101OSM   H17S10182   6.614   1.606   9.043 -0.7144 -0.1191  0.3476
  101OSM   H17T10183   6.750   1.536   8.968  0.0682 -0.5380  0.2077
  101OSM   C18S10184   6.761   1.754   8.985  0.1970  0.1723 -0.2929
  101OSM   H18S10185   6.719   1.833   9.051 -0.7729 -1.4045  0.9951
  101OSM   H18T10186   6.711   1.771   8.888 -4.1140 -2.1750  1.3760
  101OSM   H18U10187   6.872   1.763   8.980  0.4050  1.1176  3.7738
  101OSM    C1F10188   6.979   1.801  10.621 -0.2764  0.0027 -0.8184
  101OSM     OF10189   7.071   1.733  10.669  0.3780 -0.5033  0.6077
  101OSM    C2F10190   6.999   1.935  10.562 -0.2826  0.7003 -0.4513
  101OSM    H2F10191   7.020   2.006  10.644  0.9004  1.5427 -1.4731
  101OSM    H2G10192   6.903   1.964  10.513 -1.4594 -2.0895  0.1063
  101OSM    C3F10193   7.112   1.929  10.460 -0.1845  0.4770 -1.0657
  101OSM    H3F10194   7.205   1.901  10.515 -1.1163 -1.3969 -0.3988
  101OSM    H3G10195   7.129   2.036  10.438  1.5988  0.6432  0.8972
  101OSM    C4F10196   7.090   1.842  10.335 -0.1430 -0.5339 -0.1762
  101OSM    H4F10197   7.003   1.884  10.279  0.5903  0.8021 -0.3547
  101OSM    H4G10198   7.083   1.738  10.373  3.8632  0.4116  3.5365
  101OSM    C5F10199   7.221   1.838  10.252  0.6049  0.9985 -0.3921
  101OSM    H5F10200   7.201   1.768  10.168  2.6148 -0.7144  0.5262
  101OSM    H5G10201   7.295   1.781  10.311 -0.8556 -1.3974 -0.7826
  101OSM    C6F10202   7.277   1.968  10.204  0.6883  0.4965  0.1059
  101OSM    H6F10203   7.210   2.019  10.131 -0.7825 -1.9733 -0.3448
  101OSM    H6G10204   7.283   2.040  10.288  0.8672  0.3758  0.1969
  101OSM    C7F10205   7.415   1.942  10.141  0.3628 -0.0246  0.1213
  101OSM    H7F10206   7.482   1.912  10.224  0.6070 -0.3107 -0.1769
  101OSM    H7G10207   7.454   2.036  10.097  0.4603 -0.2897 -0.3576
  101OSM    C8F10208   7.422   1.821  10.045  0.4075  0.5242 -0.0053
  101OSM    H8F10209   7.340   1.832   9.972 -1.4289  0.6455  2.0206
  101OSM    H8G10210   7.404   1.730  10.106  3.1449 -0.2231 -0.2735
  101OSM    C9F10211   7.559   1.802   9.991  0.3919  0.5150  0.4702
  101OSM    H9F10212   7.624   1.788  10.078 -1.0132 -0.4763  1.3953
  101OSM   C10F10213   7.603   1.821   9.865  0.2638 -0.5314 -0.3268
  101OSM   H10F10214   7.708   1.811   9.836 -0.0495  2.1309 -2.5490
  101OSM   C11F10215   7.520   1.875   9.748  0.3654 -0.1082 -0.3379
  101OSM   H11F10216   7.576   1.961   9.705 -0.5877 -0.0526 -1.5053
  101OSM   H11G10217   7.416   1.903   9.775  1.0739  1.1954  1.1079
  101OSM   C12F10218   7.514   1.783   9.630 -0.1519  0.6804 -0.3835
  101OSM   H12F10219   7.459   1.691   9.660 -0.1710  0.4130 -1.2240
  101OSM   H12G10220   7.618   1.753   9.605  0.1838 -1.7158  3.5654
  101OSM   C13F10221   7.444   1.847   9.512  0.0327  0.0079  0.1901
  101OSM   H13F10222   7.491   1.942   9.481 -0.5808 -0.2060 -1.4396
  101OSM   H13G10223   7.338   1.856   9.545 -0.3449 -0.8523 -0.7462
  101OSM   C14F10224   7.438   1.755   9.386 -0.2928 -0.1266 -0.5204
  101OSM   H14F10225   7.390   1.662   9.423 -0.0592  0.7086  1.9733
  101OSM   H14G10226   7.537   1.709   9.368  0.9586  1.4163  2.1951
  101OSM   C15F10227   7.368   1.805   9.264  0.0019  0.7441 -0.0843
  101OSM   H15F10228   7.428   1.893   9.233 -1.3976  0.8219 -2.6885
  101OSM   H15G10229   7.262   1.834   9.280 -0.5739 -3.0035  3.7586
  101OSM   C16F10230   7.352   1.711   9.139 -0.6170 -0.7053 -0.4084
  101OSM   H16F10231   7.325   1.771   9.050 -3.2262  0.6715  1.2491
  101OSM   H16G10232   7.275   1.634   9.157 -1.3612 -0.2399 -1.5630
  101OSM   C17F10233   7.486   1.640   9.092  0.2587 -0.0519  0.0309
  101OSM   H17F10234   7.574   1.704   9.114  0.5533  0.1811 -1.7655
  101OSM   H17G10235   7.484   1.614   8.984 -2.7083  0.8898 -0.1701
  101OSM   C18F10236   7.501   1.507   9.167  0.2510  0.1842 -0.9518
  101OSM   H18F10237   7.401   1.467   9.192  1.2597 -1.7064  0.1228
  101OSM   H18G10238   7.555   1.532   9.261  0.2524  0.8752 -1.1310
  101OSM   H18H10239   7.566   1.430   9.121  0.6513  0.1678 -0.3607
  102OSM      N10240   2.327   3.085  11.084  0.4135  0.3668 -0.3118
  102OSM    C1510241   2.311   3.180  11.190  0.1168  0.1314  0.0808
  102OSM   H15A10242   2.355   3.275  11.165  5.1558 -1.2364  3.1122
  102OSM   H15B10243   2.369   3.156  11.278 -1.3013  2.6677  1.7669
  102OSM   H15C10244   2.208   3.192  11.222  0.1470 -1.5870  0.8967
  102OSM    C1410245   2.479   3.082  11.037 -0.2767  0.1981  0.2811
  102OSM   H14A10246   2.545   3.058  11.119 -0.2888  0.2043  0.2917
  102OSM   H14B10247   2.504   3.180  11.000  0.0303 -0.2957 -0.8459
  102OSM   H14C10248   2.496   3.004  10.964 -0.1019  2.9517 -2.7282
  102OSM    C1310249   2.282   2.955  11.129 -0.0753 -0.3845  0.0033
  102OSM   H13A10250   2.180   2.963  11.164 -0.4753 -0.6990 -1.0757
  102OSM   H13B10251   2.337   2.943  11.221 -0.0792 -0.7380 -0.0417
  102OSM   H13C10252   2.298   2.866  11.070  1.4904 -1.7515  2.4226
  102OSM    C1210253   2.251   3.128  10.959 -0.0568 -0.4145  0.3539
  102OSM   H12A10254   2.148   3.102  10.977 -0.8193  0.2333 -2.7634
  102OSM   H12B10255   2.279   3.066  10.876  0.2007 -1.6959  1.3801
  102OSM    C1110256   2.260   3.272  10.902  0.3528 -0.4830 -0.1037
  102OSM   H11A10257   2.246   3.342  10.988  3.5757  1.8320 -1.3586
  102OSM   H11B10258   2.187   3.302  10.824  0.8225  3.2559  0.7816
  102OSM      P10259   2.435   3.243  10.709 -0.4630  0.0444 -0.1029
  102OSM    O1310260   2.571   3.289  10.675  0.1004 -0.3816  0.0032
  102OSM    O1410261   2.402   3.099  10.697 -0.1170 -0.4070 -0.1733
  102OSM    O1110262   2.354   3.329  10.609 -0.2599 -0.3776 -0.3062
  102OSM    O1210263   2.388   3.295  10.854  0.3446 -0.1871  0.2211
  102OSM    C1S10264   2.339   3.470  10.624 -0.0477  0.2360 -0.5071
  102OSM    H1S10265   2.439   3.509  10.650  0.1689  0.9723 -2.3595
  102OSM    H1T10266   2.266   3.490  10.705  2.0658  0.3953  1.3658
  102OSM     NF10267   2.334   3.673  10.498  0.4498  0.3746 -0.2978
  102OSM    HNF10268   2.272   3.744  10.531  0.9790 -0.0838  1.8160
  102OSM    C2S10269   2.289   3.540  10.495 -0.3842 -0.3300 -0.0073
  102OSM    H2S10270   2.337   3.491  10.408 -0.5279  1.7723 -1.3076
  102OSM    C3S10271   2.141   3.525  10.471  0.4301  0.6307  0.0348
  102OSM    H3S10272   2.089   3.576  10.555 -2.0302 -1.2357 -0.3095
  102OSM     O310273   2.103   3.388  10.473  0.4889 -0.1429 -0.2443
  102OSM    HO310274   2.178   3.351  10.519 -0.0583  1.3588  1.8969
  102OSM    C4S10275   2.102   3.600  10.348  0.2985 -0.8156 -0.2176
  102OSM    H4S10276   2.057   3.697  10.370  0.8388 -0.1318 -1.9992
  102OSM    C5S10277   2.096   3.558  10.222  0.3116 -0.9653  0.1993
  102OSM    H5S10278   2.108   3.452  10.197  0.8363 -0.3803 -2.2816
  102OSM    C6S10279   2.040   3.634  10.097 -0.2579  0.5139  0.4427
  102OSM    H6S10280   2.120   3.653  10.023  1.2219 -1.3709  1.5222
  102OSM    H6T10281   2.002   3.735  10.123  0.3637  0.9426 -0.3082
  102OSM    C7S10282   1.917   3.563  10.037 -0.2239 -0.1587  0.5063
  102OSM    H7S10283   1.834   3.573  10.110  0.2435  1.8043  0.8033
  102OSM    H7T10284   1.947   3.457  10.021  1.4445  0.3782 -0.0378
  102OSM    C8S10285   1.857   3.639   9.910  0.0012 -0.3932 -0.3889
  102OSM    H8S10286   1.925   3.624   9.824  0.4859 -3.5325  0.4844
  102OSM    H8T10287   1.843   3.748   9.927 -0.2398 -0.3075 -1.1230
  102OSM    C9S10288   1.722   3.582   9.872 -0.2714 -1.0625  0.3778
  102OSM    H9S10289   1.656   3.581   9.962 -1.1829 -0.8873 -0.2904
  102OSM    H9T10290   1.726   3.480   9.828  1.9245 -0.8978  0.1380
  102OSM   C10S10291   1.656   3.655   9.751 -0.8155  0.4009 -0.3430
  102OSM   H10S10292   1.644   3.762   9.779 -0.3503  0.4966 -0.5092
  102OSM   H10T10293   1.554   3.612   9.747  0.4480 -2.9637  2.0957
  102OSM   C11S10294   1.724   3.638   9.612  0.1679 -0.0259  0.6183
  102OSM   H11S10295   1.732   3.534   9.573  2.5271  0.3260  0.1403
  102OSM   H11T10296   1.828   3.670   9.631  0.8441  1.3839 -4.5909
  102OSM   C12S10297   1.663   3.742   9.512  0.1219  0.0903 -0.5966
  102OSM   H12S10298   1.683   3.836   9.567  1.4552  0.0246 -0.9584
  102OSM   H12T10299   1.553   3.732   9.498  0.2245  0.4731 -1.7383
  102OSM   C13S10300   1.721   3.767   9.374 -0.2735  0.0886  0.1678
  102OSM   H13S10301   1.832   3.760   9.375 -0.3203 -2.1643 -2.1241
  102OSM   H13T10302   1.696   3.865   9.328  1.3933  0.2940 -0.3270
  102OSM   C14S10303   1.692   3.654   9.280 -0.0401 -0.4194 -0.2129
  102OSM   H14S10304   1.581   3.655   9.272 -0.0844  0.7406  0.4589
  102OSM   H14T10305   1.717   3.556   9.325  0.4484 -1.0981 -1.9232
  102OSM   C15S10306   1.763   3.656   9.147 -0.7388 -0.0467  0.3326
  102OSM   H15S10307   1.872   3.676   9.156 -0.7105 -0.6107  1.2790
  102OSM   H15T10308   1.712   3.739   9.093 -0.3829  1.0348  1.6312
  102OSM   C16S10309   1.753   3.516   9.074 -0.1622  0.5584 -0.3220
  102OSM   H16S10310   1.790   3.444   9.149  0.5568  2.6250  1.3478
  102OSM   H16T10311   1.816   3.526   8.982  3.7417 -1.2464  2.0380
  102OSM   C17S10312   1.604   3.487   9.039  0.2445 -0.0604  0.8161
  102OSM   H17S10313   1.572   3.575   8.978  0.3005  0.6044  1.7381
  102OSM   H17T10314   1.552   3.471   9.135 -2.2330  0.0697 -0.4670
  102OSM   C18S10315   1.593   3.366   8.953 -0.6434 -0.3426 -0.1120
  102OSM   H18S10316   1.483   3.363   8.936 -1.2155  0.2257  3.1381
  102OSM   H18T10317   1.606   3.276   9.018 -0.8002  0.4996  1.1017
  102OSM   H18U10318   1.658   3.378   8.864 -0.4351  2.7389  0.3954
  102OSM    C1F10319   2.466   3.713  10.487 -0.2531 -0.0507  0.0353
  102OSM     OF10320   2.557   3.629  10.493  0.5407  0.0010  0.2432
  102OSM    C2F10321   2.491   3.866  10.501 -0.3840  0.4336  0.1350
  102OSM    H2F10322   2.599   3.890  10.499 -0.0646 -1.0851 -1.5969
  102OSM    H2G10323   2.460   3.888  10.606 -0.1797 -0.6781  0.4336
  102OSM    C3F10324   2.415   3.940  10.393 -0.1991  1.3432 -0.3736
  102OSM    H3F10325   2.447   4.046  10.402 -0.3894  1.5589 -2.0748
  102OSM    H3G10326   2.305   3.940  10.409 -0.0726 -0.2822  0.6486
  102OSM    C4F10327   2.452   3.901  10.252 -0.2879 -0.7424  0.0460
  102OSM    H4F10328   2.392   3.811  10.227  0.6735 -1.7426  1.2915
  102OSM    H4G10329   2.562   3.894  10.244 -0.4715 -1.9124 -1.7171
  102OSM    C5F10330   2.428   4.019  10.149 -0.7503  0.1733 -0.3005
  102OSM    H5F10331   2.510   4.094  10.148  0.5295 -1.1539  1.5707
  102OSM    H5G10332   2.334   4.066  10.186 -2.2637 -2.7860 -0.2420
  102OSM    C6F10333   2.401   3.961  10.009 -0.3592 -0.2718 -0.0892
  102OSM    H6F10334   2.316   3.890  10.007  0.5174 -1.3972  1.7096
  102OSM    H6G10335   2.488   3.897   9.981  0.3470  1.0173 -0.8646
  102OSM    C7F10336   2.386   4.079   9.897  0.4028  0.1239  0.3985
  102OSM    H7F10337   2.477   4.138   9.919  0.2546  0.2372  0.7175
  102OSM    H7G10338   2.299   4.144   9.923  0.9570  0.2487  1.9907
  102OSM    C8F10339   2.385   4.032   9.751  0.0501  0.5720 -0.3974
  102OSM    H8F10340   2.285   3.985   9.734  0.2577 -0.3178  0.7657
  102OSM    H8G10341   2.460   3.953   9.731  1.5480  1.9191 -0.1765
  102OSM    C9F10342   2.385   4.148   9.660  0.6568 -0.6344  0.2573
  102OSM    H9F10343   2.303   4.219   9.678  3.2236  1.8880  2.4390
  102OSM   C10F10344   2.463   4.171   9.558 -0.0753  0.5122 -0.4706
  102OSM   H10F10345   2.446   4.266   9.507 -1.1627  1.0592  0.8767
  102OSM   C11F10346   2.577   4.080   9.514 -0.4293 -0.3790 -0.4637
  102OSM   H11F10347   2.606   4.013   9.597  1.5342 -0.4174 -1.1736
  102OSM   H11G10348   2.667   4.141   9.491 -1.0732  1.5590  1.8762
  102OSM   C12F10349   2.548   4.004   9.389  0.0314 -0.1076 -0.6519
  102OSM   H12F10350   2.465   3.933   9.406 -0.4374 -0.2152 -3.1707
  102OSM   H12G10351   2.625   3.926   9.374  0.0857 -0.4690  1.3309
  102OSM   C13F10352   2.532   4.092   9.260 -0.2268  0.3455  0.1916
  102OSM   H13F10353   2.603   4.175   9.282  1.9574 -2.0193  2.4303
  102OSM   H13G10354   2.435   4.143   9.244  1.3367  3.3341 -0.1585
  102OSM   C14F10355   2.559   4.019   9.122 -0.4258  0.3516  0.0130
  102OSM   H14F10356   2.485   3.937   9.112  0.0441 -0.4372  2.5378
  102OSM   H14G10357   2.660   3.974   9.136 -1.1063 -0.9788  0.7441
  102OSM   C15F10358   2.547   4.119   9.010 -0.6149 -0.1600  0.3959
  102OSM   H15F10359   2.620   4.200   9.031  0.9347 -1.0219 -1.5476
  102OSM   H15G10360   2.447   4.166   9.003  0.2460  1.6633  0.1014
  102OSM   C16F10361   2.570   4.066   8.870 -0.2700 -0.2323  0.5356
  102OSM   H16F10362   2.512   3.972   8.853 -0.3647  0.4292 -3.0881
  102OSM   H16G10363   2.679   4.046   8.874 -0.2458  0.0604  1.7999
  102OSM   C17F10364   2.539   4.167   8.756 -0.4006  0.6976  0.3731
  102OSM   H17F10365   2.622   4.240   8.743  1.8305 -2.2470 -2.8679
  102OSM   H17G10366   2.448   4.225   8.784 -1.7781 -1.0700 -0.3882
  102OSM   C18F10367   2.521   4.100   8.622  0.5795  0.1244 -0.1203
  102OSM   H18F10368   2.416   4.067   8.607  1.0990 -0.5062 -2.6959
  102OSM   H18G10369   2.592   4.017   8.603 -1.3818 -1.7307  0.4118
  102OSM   H18H10370   2.530   4.174   8.539  0.0600  0.4094  0.0768
  103OSM      N10371   1.073   6.325  10.854 -0.0921  0.1518 -0.4098
  103OSM    C1510372   0.968   6.424  10.865  0.1072 -0.3207 -0.3060
  103OSM   H15A10373   0.882   6.374  10.907  0.2739 -0.5172 -0.1970
  103OSM   H15B10374   0.935   6.444  10.764 -3.0614 -2.8168  0.1681
  103OSM   H15C10375   0.999   6.513  10.917 -0.1375 -0.6793  0.4517
  103OSM    C1410376   1.098   6.267  10.990 -0.0763  0.2358  0.0368
  103OSM   H14A10377   1.003   6.238  11.032 -0.7075 -0.0215 -1.5544
  103OSM   H14B10378   1.131   6.346  11.055  0.6920  0.6567 -0.8527
  103OSM   H14C10379   1.170   6.188  11.004 -2.3329 -1.7285  0.7940
  103OSM    C1310380   1.024   6.215  10.773 -0.0704 -0.0891  0.5441
  103OSM   H13A10381   1.000   6.244  10.671 -1.1601  2.9239  1.6027
  103OSM   H13B10382   0.932   6.178  10.816  0.2275 -1.4618  0.0553
  103OSM   H13C10383   1.088   6.129  10.761  0.1525  0.2307 -0.7096
  103OSM    C1210384   1.195   6.390  10.797  0.8156 -0.0706  0.3033
  103OSM   H12A10385   1.177   6.430  10.698 -1.1126  0.8861  1.0148
  103OSM   H12B10386   1.274   6.319  10.776  1.4282  0.4032  0.9713
  103OSM    C1110387   1.266   6.492  10.882  0.1758 -0.6225 -0.5918
  103OSM   H11A10388   1.281   6.458  10.987  0.5996 -2.0361 -1.0977
  103OSM   H11B10389   1.197   6.579  10.885  1.3084  0.2801 -0.3022
  103OSM      P10390   1.413   6.613  10.699 -0.0054 -0.3133 -0.2942
  103OSM    O1310391   1.554   6.651  10.700  0.2142 -0.6361  0.0775
  103OSM    O1410392   1.354   6.544  10.579  0.0711 -0.2868 -0.2204
  103OSM    O1110393   1.321   6.739  10.720  0.2805  0.2412 -0.3774
  103OSM    O1210394   1.390   6.523  10.824 -0.2104  0.0325  0.6036
  103OSM    C1S10395   1.360   6.869  10.678  0.4752  0.0524 -0.0115
  103OSM    H1S10396   1.469   6.882  10.665  0.2914  0.1120 -1.5602
  103OSM    H1T10397   1.337   6.940  10.760 -0.2399  0.1948 -0.3287
  103OSM     NF10398   1.333   7.016  10.475  0.1355  0.1692 -0.0871
  103OSM    HNF10399   1.279   7.101  10.478  2.3453  1.6215 -0.5964
  103OSM    C2S10400   1.284   6.893  10.542  0.0762  0.1304  0.2717
  103OSM    H2S10401   1.312   6.818  10.465 -3.0169  0.8589 -1.6576
  103OSM    C3S10402   1.129   6.905  10.559  0.3421  0.6946  0.1846
  103OSM    H3S10403   1.103   6.995  10.621 -1.9676  0.2004 -0.0026
  103OSM     O310404   1.081   6.780  10.626 -0.3653  0.1566 -0.5083
  103OSM    HO310405   1.163   6.753  10.667 -0.6413  1.2301  0.7720
  103OSM    C4S10406   1.061   6.917  10.429  0.1521  0.4094  0.0124
  103OSM    H4S10407   1.079   6.831  10.363 -0.5919  0.5821 -0.4152
  103OSM    C5S10408   0.975   7.011  10.391  0.3603 -0.3337  0.3852
  103OSM    H5S10409   0.954   7.094  10.460  1.4898  2.1694 -2.1867
  103OSM    C6S10410   0.915   7.025  10.255  0.3200  0.8720  0.4700
  103OSM    H6S10411   0.880   7.129  10.239  0.7181  0.4959 -3.2623
  103OSM    H6T10412   0.821   6.967  10.252 -0.7549  2.6438 -1.7665
  103OSM    C7S10413   0.989   6.961  10.135  0.0996 -0.4653 -0.0312
  103OSM    H7S10414   1.009   6.853  10.153 -0.2016 -0.7119 -1.1726
  103OSM    H7T10415   1.091   7.005  10.135  0.9836 -2.4162  0.7713
  103OSM    C8S10416   0.908   6.993  10.005 -0.1777  0.5365  0.4241
  103OSM    H8S10417   0.891   7.102  10.005  1.4114  0.7937  0.8141
  103OSM    H8T10418   0.816   6.931  10.013  0.3371 -0.3491 -0.3260
  103OSM    C9S10419   0.985   6.942   9.876  0.5426  0.2299 -0.6115
  103OSM    H9S10420   1.028   6.842   9.900 -1.9334 -0.3671  1.6361
  103OSM    H9T10421   1.062   7.020   9.857  0.6591  0.5362  0.9965
  103OSM   C10S10422   0.895   6.946   9.749 -0.2294  0.6597  0.3377
  103OSM   H10S10423   0.853   7.049   9.746 -0.0508  0.7794  1.4516
  103OSM   H10T10424   0.803   6.884   9.758 -1.4852  2.6115  1.2488
  103OSM   C11S10425   0.962   6.921   9.622  0.0623  0.3630  0.3927
  103OSM   H11S10426   1.011   6.822   9.620 -1.9880 -0.6825  0.3424
  103OSM   H11T10427   1.040   7.000   9.624 -1.0086  1.4447 -0.0034
  103OSM   C12S10428   0.879   6.945   9.499  1.0638  0.6006  0.3997
  103OSM   H12S10429   0.824   7.042   9.496  2.8784  1.6326 -0.5814
  103OSM   H12T10430   0.797   6.870   9.493 -0.1856  1.9540  0.1330
  103OSM   C13S10431   0.963   6.926   9.373  0.2612 -0.3413 -0.1553
  103OSM   H13S10432   1.032   6.841   9.386  2.2633  1.2033 -0.4216
  103OSM   H13T10433   1.010   7.025   9.354 -0.4085 -0.0781 -0.4828
  103OSM   C14S10434   0.884   6.892   9.244 -0.5675  0.5393 -0.4433
  103OSM   H14S10435   0.852   6.786   9.242 -3.0145  1.2610 -1.0588
  103OSM   H14T10436   0.948   6.906   9.154 -0.9051  0.5967 -0.6754
  103OSM   C15S10437   0.754   6.969   9.199 -0.5506 -0.3648 -0.2153
  103OSM   H15S10438   0.778   7.076   9.213  0.5942 -0.6572  0.1445
  103OSM   H15T10439   0.668   6.934   9.259  0.3103 -2.8490 -0.3379
  103OSM   C16S10440   0.728   6.946   9.050  0.5338 -0.4964  0.2950
  103OSM   H16S10441   0.797   7.001   8.982  0.1889 -1.3756 -0.7926
  103OSM   H16T10442   0.635   7.000   9.021  2.0122  2.0775  0.1754
  103OSM   C17S10443   0.714   6.800   9.004 -0.2208 -0.1818 -0.0443
  103OSM   H17S10444   0.626   6.747   9.045  0.3134 -3.1157 -2.4930
  103OSM   H17T10445   0.808   6.746   9.026  0.4199  0.5837 -0.8504
  103OSM   C18S10446   0.677   6.785   8.859  0.1294  1.0233  0.6573
  103OSM   H18S10447   0.769   6.802   8.798  0.7408  0.4033  1.3863
  103OSM   H18T10448   0.596   6.856   8.834  0.7308  1.4741 -0.0422
  103OSM   H18U10449   0.639   6.682   8.842  0.6824  1.0947 -1.1368
  103OSM    C1F10450   1.456   7.031  10.434  0.0120 -0.5725 -0.1129
  103OSM     OF10451   1.519   6.931  10.417 -0.4749  0.7307  0.3173
  103OSM    C2F10452   1.511   7.174  10.416  0.3828  0.3204 -0.2386
  103OSM    H2F10453   1.513   7.225  10.515  1.3164 -1.0305  0.4552
  103OSM    H2G10454   1.447   7.216  10.335 -0.0420  1.4321  0.6488
  103OSM    C3F10455   1.657   7.164  10.361 -0.3101  0.7880  0.1671
  103OSM    H3F10456   1.648   7.089  10.280 -0.7298 -0.6976  1.5652
  103OSM    H3G10457   1.717   7.118  10.443 -0.8540 -1.9251 -0.9217
  103OSM    C4F10458   1.716   7.301  10.317  0.4392  0.4381 -0.0138
  103OSM    H4F10459   1.818   7.316  10.360  0.1044  0.7373  0.6894
  103OSM    H4G10460   1.655   7.384  10.358  3.3745  3.1395 -0.9316
  103OSM    C5F10461   1.740   7.323  10.166  0.5679 -0.0896 -0.2327
  103OSM    H5F10462   1.816   7.251  10.129  1.0473  0.4133 -0.2265
  103OSM    H5G10463   1.770   7.428  10.146 -2.7834  1.6324  3.1652
  103OSM    C6F10464   1.612   7.293  10.085  0.9635 -0.4108 -0.1444
  103OSM    H6F10465   1.539   7.369  10.120  1.4263  0.3248 -0.7441
  103OSM    H6G10466   1.586   7.188  10.111 -0.8143 -0.0406 -0.3696
  103OSM    C7F10467   1.638   7.304   9.939 -0.4235 -0.5388 -0.0619
  103OSM    H7F10468   1.720   7.232   9.917 -1.4147 -1.0361 -2.2584
  103OSM    H7G10469   1.683   7.406   9.932 -0.1936 -0.6098  0.3321
  103OSM    C8F10470   1.513   7.283   9.846  0.6587 -0.8493 -0.6353
  103OSM    H8F10471   1.547   7.299   9.742 -1.3197  4.3438 -0.6066
  103OSM    H8G10472   1.439   7.361   9.876  1.0267 -0.8356  0.2585
  103OSM    C9F10473   1.450   7.145   9.865 -0.6107 -0.3529  0.2403
  103OSM    H9F10474   1.488   7.079   9.943  0.1187 -0.4257 -0.1721
  103OSM   C10F10475   1.380   7.082   9.769  0.1248  0.3905  0.0545
  103OSM   H10F10476   1.329   6.986   9.785 -3.6438  1.7823 -2.7276
  103OSM   C11F10477   1.352   7.137   9.628 -0.6008 -0.9770 -0.3366
  103OSM   H11F10478   1.395   7.238   9.607 -0.1610 -1.4439 -1.7549
  103OSM   H11G10479   1.241   7.141   9.621 -0.7089 -3.6718 -0.5779
  103OSM   C12F10480   1.401   7.059   9.511 -0.3124 -0.2343 -0.5112
  103OSM   H12F10481   1.392   6.950   9.533 -3.6365  0.3468  1.3065
  103OSM   H12G10482   1.506   7.084   9.485 -0.2542  2.4262  2.0558
  103OSM   C13F10483   1.327   7.082   9.378  0.0136 -0.3513 -0.3744
  103OSM   H13F10484   1.318   7.189   9.350 -0.3235  0.0580  1.2268
  103OSM   H13G10485   1.221   7.052   9.392 -0.3388  0.6640 -0.8162
  103OSM   C14F10486   1.411   7.009   9.268 -0.1373 -0.1451  0.3124
  103OSM   H14F10487   1.427   6.902   9.293 -0.8266 -1.2075 -3.4605
  103OSM   H14G10488   1.501   7.069   9.243 -0.6789 -0.0530 -1.5295
  103OSM   C15F10489   1.335   7.005   9.138  0.4771  0.5538  0.1280
  103OSM   H15F10490   1.299   7.107   9.118 -0.8851  0.3703  1.5367
  103OSM   H15G10491   1.251   6.934   9.152 -0.0105  0.8904 -1.0237
  103OSM   C16F10492   1.434   6.964   9.023  0.5846  0.1514  0.4508
  103OSM   H16F10493   1.485   6.868   9.047 -0.3412 -0.7004 -0.8991
  103OSM   H16G10494   1.511   7.042   9.006  0.7939 -0.1371  0.0440
  103OSM   C17F10495   1.371   6.929   8.889 -0.0614 -0.0316  0.0707
  103OSM   H17F10496   1.297   7.001   8.850 -1.8359 -1.0488  1.4769
  103OSM   H17G10497   1.318   6.832   8.895 -0.6016  0.0700 -2.4424
  103OSM   C18F10498   1.485   6.912   8.788 -0.4303  0.2554 -0.2514
  103OSM   H18F10499   1.538   7.008   8.774 -0.4456  0.5616  1.7120
  103OSM   H18G10500   1.444   6.883   8.689 -0.5636  1.7042 -0.6305
  103OSM   H18H10501   1.557   6.835   8.824 -2.1468 -0.7511  1.1015
  104OSM      N10502   3.515   0.237  11.098 -0.6993 -0.8140 -0.2382
  104OSM    C1510503   3.649   0.192  11.053 -0.0630 -0.3427 -0.1360
  104OSM   H15A10504   3.669   0.229  10.953  0.4922  1.7925  0.7405
  104OSM   H15B10505   3.650   0.084  11.056  0.9580 -0.3146  1.2434
  104OSM   H15C10506   3.728   0.224  11.120 -1.2017 -1.2055  1.6392
  104OSM    C1410507   3.509   0.207  11.244 -0.1916 -0.1916  0.0839
  104OSM   H14A10508   3.428   0.256  11.296  0.9294  1.3155  0.4384
  104OSM   H14B10509   3.602   0.238  11.289 -0.4153 -0.4454  0.7374
  104OSM   H14C10510   3.503   0.101  11.265 -0.7992  0.2435  2.2325
  104OSM    C1310511   3.505   0.386  11.079  0.2983 -0.2983 -0.6355
  104OSM   H13A10512   3.418   0.437  11.116  1.8641  0.2379  2.4788
  104OSM   H13B10513   3.509   0.411  10.974 -0.5756  0.4601 -0.4973
  104OSM   H13C10514   3.583   0.432  11.138  0.8958 -1.7265 -0.2950
  104OSM    C1210515   3.409   0.161  11.025  0.2028  0.1544 -0.2904
  104OSM   H12A10516   3.314   0.189  11.068 -0.1531 -0.1453 -0.8837
  104OSM   H12B10517   3.424   0.059  11.059  0.3036  0.6284  1.1417
  104OSM    C1110518   3.414   0.159  10.869  0.1788  0.1473 -0.1282
  104OSM   H11A10519   3.341   0.088  10.825 -0.1047  0.6876 -0.5376
  104OSM   H11B10520   3.507   0.112  10.831 -1.0010 -2.0769 -0.3304
  104OSM      P10521   3.259   0.345  10.777  0.4518  0.1054  0.2325
  104OSM    O1310522   3.163   0.306  10.882  0.4708 -0.1473 -0.1721
  104OSM    O1410523   3.277   0.489  10.755 -0.5812  0.3032 -0.1226
  104OSM    O1110524   3.234   0.263  10.647  0.0493 -0.2535 -0.2376
  104OSM    O1210525   3.404   0.298  10.824  0.3285 -0.9738 -0.1440
  104OSM    C1S10526   3.139   0.305  10.551  0.0553  0.5022 -1.2763
  104OSM    H1S10527   3.135   0.416  10.537  4.0566  0.9124  0.1859
  104OSM    H1T10528   3.042   0.270  10.593  0.5471 -0.2913 -0.8009
  104OSM     NF10529   3.037   0.280  10.326 -0.4245  0.1784  0.3065
  104OSM    HNF10530   2.963   0.214  10.333  0.7899 -1.2283  0.0860
  104OSM    C2S10531   3.154   0.236  10.406  0.2179 -0.6958  0.3235
  104OSM    H2S10532   3.245   0.280  10.360 -0.1143 -0.9938 -0.6365
  104OSM    C3S10533   3.172   0.086  10.407  0.0717  0.0478  0.1218
  104OSM    H3S10534   3.087   0.036  10.459  0.4203 -1.5672 -0.8297
  104OSM     O310535   3.289   0.051  10.486 -0.5530 -0.2128 -0.1178
  104OSM    HO310536   3.297   0.123  10.549 -0.8305  2.0785 -2.5772
  104OSM    C4S10537   3.180   0.032  10.264 -0.7020  0.7490  0.1243
  104OSM    H4S10538   3.092  -0.024  10.230 -0.8570  1.4251 -0.5984
  104OSM    C5S10539   3.277   0.036  10.171  0.0633 -0.4049  0.1736
  104OSM    H5S10540   3.369   0.090  10.197  0.1859 -0.0507 -0.9905
  104OSM    C6S10541   3.257  -0.034  10.034 -0.3995 -0.3544 -0.5004
  104OSM    H6S10542   3.155  -0.077  10.024 -1.0750  1.2225 -0.6020
  104OSM    H6T10543   3.341  -0.105  10.020  1.7189  1.9090  0.2798
  104OSM    C7S10544   3.280   0.067   9.918 -0.2250  0.0201 -0.2096
  104OSM    H7S10545   3.387   0.096   9.925 -0.4983  1.0110 -0.0099
  104OSM    H7T10546   3.218   0.158   9.933 -0.2382 -0.5752  4.0576
  104OSM    C8S10547   3.263  -0.003   9.779  0.9615  0.5316 -0.3107
  104OSM    H8S10548   3.156  -0.034   9.777  0.6261  1.7025 -0.4498
  104OSM    H8T10549   3.316  -0.101   9.779 -1.4615 -0.8524 -0.3529
  104OSM    C9S10550   3.306   0.091   9.667 -0.5972 -0.0460  0.6877
  104OSM    H9S10551   3.408   0.134   9.681  0.5967 -2.2929 -0.8428
  104OSM    H9T10552   3.231   0.172   9.653  1.4411  1.5892 -1.3121
  104OSM   C10S10553   3.301   0.018   9.533  0.4275 -0.3909  0.5762
  104OSM   H10S10554   3.209  -0.045   9.534  1.5392 -2.0405  2.7025
  104OSM   H10T10555   3.388  -0.048   9.513 -0.8666 -1.3203 -2.3397
  104OSM   C11S10556   3.279   0.104   9.405 -0.2376 -0.0750  0.0139
  104OSM   H11S10557   3.363   0.172   9.381  0.8642 -0.6747  2.0234
  104OSM   H11T10558   3.188   0.164   9.425  0.2640  0.5103  0.5883
  104OSM   C12S10559   3.228   0.024   9.280  0.3633  0.9918  0.2000
  104OSM   H12S10560   3.128  -0.021   9.301  2.7806 -2.6418  4.8559
  104OSM   H12T10561   3.312  -0.048   9.268 -0.2636  0.5641 -1.7887
  104OSM   C13S10562   3.208   0.111   9.156 -0.0360 -0.2965  1.1271
  104OSM   H13S10563   3.297   0.172   9.131  0.1268 -0.8590  0.2932
  104OSM   H13T10564   3.126   0.178   9.189 -2.2062 -1.9484 -0.6783
  104OSM   C14S10565   3.149   0.017   9.048  0.5419 -0.8306  0.2233
  104OSM   H14S10566   3.062  -0.034   9.095 -1.7282 -0.1555 -3.0766
  104OSM   H14T10567   3.221  -0.064   9.021  2.3039  0.4878  0.9146
  104OSM   C15S10568   3.095   0.091   8.919 -0.5044 -0.1205 -0.1346
  104OSM   H15S10569   3.015   0.163   8.948 -1.2992 -1.3124  0.7297
  104OSM   H15T10570   3.058   0.010   8.852  1.1660 -1.0108  0.0051
  104OSM   C16S10571   3.204   0.160   8.841 -0.8254  0.0250  1.7779
  104OSM   H16S10572   3.247   0.238   8.907  0.6498 -0.1484  1.0584
  104OSM   H16T10573   3.151   0.218   8.762 -1.0096 -1.8245  0.5241
  104OSM   C17S10574   3.321   0.073   8.793  0.2462  0.0648 -0.1657
  104OSM   H17S10575   3.288  -0.002   8.719 -0.9459 -2.9884  3.3194
  104OSM   H17T10576   3.372   0.017   8.875  2.2014  1.1459 -0.5909
  104OSM   C18S10577   3.427   0.160   8.718 -0.0763 -0.1823  0.0751
  104OSM   H18S10578   3.502   0.091   8.675 -1.3953 -1.3090 -0.4451
  104OSM   H18T10579   3.478   0.223   8.794 -0.4567  1.2155 -0.8082
  104OSM   H18U10580   3.383   0.220   8.635 -0.2071  1.1611  1.0953
  104OSM    C1F10581   3.019   0.399  10.271  0.3633 -0.7952  0.6637
  104OSM     OF10582   3.091   0.493  10.308 -0.0648 -0.2947  0.1538
  104OSM    C2F10583   2.897   0.418  10.188  0.3577 -0.7059 -0.0843
  104OSM    H2F10584   2.891   0.521  10.148 -3.2259 -1.6005 -2.0941
  104OSM    H2G10585   2.808   0.396  10.251 -0.3677 -0.9608 -1.1835
  104OSM    C3F10586   2.877   0.312  10.074 -0.4017 -0.0035 -0.0260
  104OSM    H3F10587   2.908   0.212  10.110  0.5965 -0.1057 -1.1591
  104OSM    H3G10588   2.959   0.348  10.008 -0.2626  3.1782  1.7558
  104OSM    C4F10589   2.735   0.319  10.019  1.0815  0.3409  0.6787
  104OSM    H4F10590   2.710   0.413   9.967  0.2534 -0.1857  0.1235
  104OSM    H4G10591   2.674   0.311  10.112 -0.1140  0.5250 -0.0809
  104OSM    C5F10592   2.712   0.205   9.921  0.4355 -0.3717 -0.1133
  104OSM    H5F10593   2.608   0.214   9.883  0.3723  0.6751  0.2906
  104OSM    H5G10594   2.706   0.104   9.967  0.6867 -0.5926 -0.5631
  104OSM    C6F10595   2.805   0.197   9.805 -0.5642 -0.0195  0.3224
  104OSM    H6F10596   2.776   0.112   9.740 -0.2717 -0.7040  1.0759
  104OSM    H6G10597   2.903   0.168   9.848 -0.1303 -1.4703 -1.5864
  104OSM    C7F10598   2.806   0.324   9.721  0.7752 -0.6382 -0.3339
  104OSM    H7F10599   2.814   0.413   9.787  2.2404 -0.6943 -0.4062
  104OSM    H7G10600   2.702   0.337   9.685  0.5803 -0.2394  0.3817
  104OSM    C8F10601   2.917   0.344   9.619  0.1048 -0.0755  0.2565
  104OSM    H8F10602   3.010   0.334   9.679  0.1834 -0.9052 -0.0077
  104OSM    H8G10603   2.906   0.449   9.583  0.9737 -0.0112  0.1550
  104OSM    C9F10604   2.912   0.239   9.512  0.5398  0.5820  0.6186
  104OSM    H9F10605   2.961   0.145   9.540 -1.8295 -0.3384  1.7945
  104OSM   C10F10606   2.848   0.251   9.391  0.2141 -0.6326  0.8839
  104OSM   H10F10607   2.853   0.168   9.320  0.7453  0.6859 -0.6404
  104OSM   C11F10608   2.775   0.376   9.336  0.3701  0.9539  0.4286
  104OSM   H11F10609   2.799   0.462   9.402  1.0497  2.2230 -1.4063
  104OSM   H11G10610   2.668   0.348   9.337  0.3778  0.8723 -0.4252
  104OSM   C12F10611   2.797   0.415   9.186 -0.7900  0.0310  0.4128
  104OSM   H12F10612   2.908   0.418   9.190 -0.7920 -1.5785  3.4366
  104OSM   H12G10613   2.751   0.515   9.170  0.0725  0.2878 -0.5482
  104OSM   C13F10614   2.754   0.316   9.077  0.2536 -0.1794  0.0913
  104OSM   H13F10615   2.650   0.289   9.105  0.2763  2.5239  2.9841
  104OSM   H13G10616   2.815   0.226   9.098  0.1677 -0.1822  0.3294
  104OSM   C14F10617   2.774   0.366   8.937  0.3039  0.0670 -0.1141
  104OSM   H14F10618   2.773   0.280   8.867 -2.6152  2.2132 -2.8347
  104OSM   H14G10619   2.875   0.412   8.933  0.2672  0.1031 -0.6872
  104OSM   C15F10620   2.671   0.471   8.899  0.1954 -0.4882  0.1056
  104OSM   H15F10621   2.697   0.569   8.944  0.5392 -0.0825 -0.9719
  104OSM   H15G10622   2.576   0.428   8.937  0.2333 -0.7091 -0.0477
  104OSM   C16F10623   2.670   0.492   8.748 -0.8828  0.7828  0.1493
  104OSM   H16F10624   2.616   0.410   8.696 -2.9608  2.6160 -0.6692
  104OSM   H16G10625   2.776   0.496   8.717 -1.0896  0.8436 -0.5769
  104OSM   C17F10626   2.607   0.630   8.703 -0.4035 -0.0602 -0.4046
  104OSM   H17F10627   2.616   0.715   8.774 -0.6141  0.2762 -0.7802
  104OSM   H17G10628   2.498   0.620   8.687 -0.4240 -0.6472  0.0510
  104OSM   C18F10629   2.675   0.693   8.580  0.2884  0.2429  0.4971
  104OSM   H18F10630   2.656   0.618   8.501 -0.4482  1.8227 -0.8556
  104OSM   H18G10631   2.785   0.701   8.577  0.3406 -1.2393 -2.4777
  104OSM   H18H10632   2.618   0.787   8.561  1.7999  0.5019 -3.0325
  105OSM      N10633   5.899   2.635  11.170  0.2592 -0.2062  0.7051
  105OSM    C1510634   5.969   2.655  11.293  0.1899  0.1181 -0.0537
  105OSM   H15A10635   5.910   2.625  11.379 -1.5403  2.5268 -0.3346
  105OSM   H15B10636   5.995   2.759  11.307 -1.0404  0.2310  1.5626
  105OSM   H15C10637   6.059   2.596  11.296  0.5946  0.6682 -1.3581
  105OSM    C1410638   5.820   2.508  11.183  0.2926  0.1664  0.0324
  105OSM   H14A10639   5.885   2.427  11.214  2.3363  1.1720 -1.5477
  105OSM   H14B10640   5.779   2.480  11.087 -0.4945 -0.8476  0.6483
  105OSM   H14C10641   5.738   2.528  11.252 -0.4988 -0.4938 -0.7076
  105OSM    C1310642   5.807   2.758  11.140  1.0256 -0.0820  0.2431
  105OSM   H13A10643   5.750   2.736  11.051  0.3564  0.4270  0.5417
  105OSM   H13B10644   5.853   2.856  11.129 -0.9460  0.9836  1.2129
  105OSM   H13C10645   5.731   2.787  11.211 -0.8392 -1.1964 -1.2561
  105OSM    C1210646   5.996   2.618  11.055 -0.1056  0.3088  0.1444
  105OSM   H12A10647   6.054   2.529  11.073 -1.9554 -0.9563 -0.0307
  105OSM   H12B10648   6.069   2.698  11.056 -2.0505  2.1192  1.7483
  105OSM    C1110649   5.939   2.609  10.913  0.5384 -0.0082  0.1334
  105OSM   H11A10650   6.017   2.605  10.835  0.6920 -1.7125  0.3446
  105OSM   H11B10651   5.889   2.708  10.904  0.3694 -0.1285 -0.2560
  105OSM      P10652   5.898   2.363  10.840  0.1040 -0.0530 -0.4567
  105OSM    O1310653   6.021   2.312  10.901 -0.2761  0.2847  0.4499
  105OSM    O1410654   5.781   2.269  10.831  0.4285 -0.2469 -0.0262
  105OSM    O1110655   5.942   2.404  10.691 -0.3177 -0.3814 -0.0739
  105OSM    O1210656   5.843   2.496  10.898  0.3369  0.0864  0.5886
  105OSM    C1S10657   5.845   2.479  10.605  0.2326  0.2374  0.3617
  105OSM    H1S10658   5.838   2.583  10.643 -1.0740  0.5276 -0.6453
  105OSM    H1T10659   5.743   2.434  10.606  0.8227 -1.1577 -0.3361
  105OSM     NF10660   5.770   2.561  10.386  0.4135 -0.0702  0.0967
  105OSM    HNF10661   5.701   2.511  10.334  0.5232  2.7482 -2.8860
  105OSM    C2S10662   5.883   2.494  10.453  0.2944  0.5632  0.0443
  105OSM    H2S10663   5.976   2.550  10.431 -0.7153  1.8984 -0.8891
  105OSM    C3S10664   5.903   2.342  10.405 -0.3265 -0.1780  0.4073
  105OSM    H3S10665   5.822   2.283  10.453  1.4219 -0.3121  3.2532
  105OSM     O310666   6.022   2.283  10.452 -0.4475  0.2660  0.0412
  105OSM    HO310667   6.028   2.304  10.545 -0.9051 -1.1437  0.3949
  105OSM    C4S10668   5.908   2.349  10.257 -0.0965  0.2072 -0.9221
  105OSM    H4S10669   5.979   2.415  10.206 -0.5268 -0.2584 -2.1410
  105OSM    C5S10670   5.844   2.267  10.176  0.4439  0.6728  0.9986
  105OSM    H5S10671   5.776   2.190  10.216  1.1445 -0.3492  0.2312
  105OSM    C6S10672   5.859   2.262  10.028  0.0241  0.2746  0.7015
  105OSM    H6S10673   5.910   2.351   9.985  2.1493 -1.1439  0.2141
  105OSM    H6T10674   5.754   2.269   9.995  0.4154 -2.1968 -1.1847
  105OSM    C7S10675   5.918   2.134   9.965 -0.0936 -0.0752  0.2977
  105OSM    H7S10676   5.868   2.046  10.011 -0.0653 -0.8595 -1.1324
  105OSM    H7T10677   6.025   2.134   9.994 -0.4250 -0.9040  1.5645
  105OSM    C8S10678   5.896   2.126   9.815 -0.6585 -0.3207  0.3304
  105OSM    H8S10679   5.793   2.157   9.790 -1.4689  1.3364  5.1967
  105OSM    H8T10680   5.892   2.018   9.789  0.5388 -0.1811 -0.4907
  105OSM    C9S10681   6.007   2.194   9.731 -0.4256  0.0791 -0.3461
  105OSM    H9S10682   6.101   2.148   9.770  0.6244  0.9153 -1.8433
  105OSM    H9T10683   6.008   2.305   9.742 -1.5647  0.0293  0.2841
  105OSM   C10S10684   5.992   2.162   9.582 -0.7562 -0.5834  0.7621
  105OSM   H10S10685   5.996   2.052   9.568  1.0091 -0.5380  0.8617
  105OSM   H10T10686   6.081   2.205   9.531 -1.0726  0.2002  0.8655
  105OSM   C11S10687   5.863   2.210   9.521  0.1157 -0.3221  0.1931
  105OSM   H11S10688   5.865   2.321   9.527 -0.3166 -0.2814 -0.4531
  105OSM   H11T10689   5.778   2.169   9.581 -1.0639  2.5520  0.5497
  105OSM   C12S10690   5.839   2.172   9.376  0.3914 -0.0749 -0.0585
  105OSM   H12S10691   5.748   2.221   9.337  0.5111 -0.3667 -0.7021
  105OSM   H12T10692   5.813   2.065   9.361  1.2250 -0.0401 -1.8206
  105OSM   C13S10693   5.960   2.202   9.288 -0.3273 -0.2306  0.6604
  105OSM   H13S10694   6.038   2.126   9.311 -0.0392  0.0200  0.5259
  105OSM   H13T10695   5.995   2.305   9.312 -2.8725  1.6570 -3.2351
  105OSM   C14S10696   5.931   2.216   9.135 -0.0828 -0.3256 -0.3082
  105OSM   H14S10697   6.025   2.246   9.085  1.5610 -2.3634  1.5102
  105OSM   H14T10698   5.868   2.307   9.125  0.1910 -0.2527 -1.4682
  105OSM   C15S10699   5.858   2.105   9.067 -0.8483  0.9439 -0.3627
  105OSM   H15S10700   5.777   2.058   9.126 -0.8575  2.2256  0.6804
  105OSM   H15T10701   5.928   2.020   9.056  1.2583  2.2985  2.0122
  105OSM   C16S10702   5.785   2.138   8.936  0.5173  0.0195  0.3202
  105OSM   H16S10703   5.715   2.221   8.954  2.7789  2.2500 -0.7784
  105OSM   H16T10704   5.727   2.048   8.907 -2.3806  1.0813  2.6376
  105OSM   C17S10705   5.886   2.158   8.821 -0.6319 -0.2932  0.2861
  105OSM   H17S10706   5.954   2.072   8.803 -0.4868 -0.5380  1.9596
  105OSM   H17T10707   5.945   2.251   8.837  2.0781 -2.2764  2.0924
  105OSM   C18S10708   5.816   2.190   8.686 -0.4385  0.1686  0.1428
  105OSM   H18S10709   5.741   2.272   8.696  1.8765  2.3501  0.2645
  105OSM   H18T10710   5.782   2.090   8.654  0.3850  0.8730 -3.1488
  105OSM   H18U10711   5.887   2.216   8.605 -0.7359  0.0761 -0.1442
  105OSM    C1F10712   5.753   2.686  10.407  0.4865 -0.4657 -0.4835
  105OSM     OF10713   5.841   2.749  10.458 -0.3088 -0.9257  0.4348
  105OSM    C2F10714   5.636   2.760  10.365  0.6971  0.1393  0.7693
  105OSM    H2F10715   5.601   2.819  10.452  2.1693  0.5262  1.0999
  105OSM    H2G10716   5.559   2.683  10.342  0.2140  0.0690  2.6099
  105OSM    C3F10717   5.657   2.853  10.248 -0.6821  0.9359  0.5395
  105OSM    H3F10718   5.703   2.805  10.158 -1.8054  0.1389  0.3729
  105OSM    H3G10719   5.738   2.926  10.266 -0.4790  1.1718 -1.1981
  105OSM    C4F10720   5.523   2.910  10.200 -0.1238  0.3462 -0.3104
  105OSM    H4F10721   5.466   2.955  10.284 -0.5288  0.7766 -0.8152
  105OSM    H4G10722   5.461   2.820  10.179 -0.0087  0.5786 -1.6409
  105OSM    C5F10723   5.542   3.008  10.083 -0.3873 -0.3769  0.6086
  105OSM    H5F10724   5.631   3.074  10.092 -0.5025  0.1635 -1.8527
  105OSM    H5G10725   5.450   3.071  10.083 -0.2085 -0.0798 -1.4984
  105OSM    C6F10726   5.547   2.929   9.946  0.1619 -0.2919 -0.0460
  105OSM    H6F10727   5.456   2.868   9.932  0.1863 -0.6824  1.3783
  105OSM    H6G10728   5.630   2.856   9.937  1.6760  1.4430 -0.4763
  105OSM    C7F10729   5.547   3.035   9.832 -0.5218 -0.6045  0.0569
  105OSM    H7F10730   5.650   3.073   9.821 -0.3688 -0.8630  0.5944
  105OSM    H7G10731   5.487   3.125   9.856 -2.5675 -2.5102  2.4272
  105OSM    C8F10732   5.490   2.971   9.707  0.7365  0.5842 -0.2873
  105OSM    H8F10733   5.380   2.960   9.719  0.5670  1.1046 -1.3242
  105OSM    H8G10734   5.524   2.866   9.693  1.0485  0.4163  1.5721
  105OSM    C9F10735   5.518   3.060   9.594  0.8169 -0.2206  0.0231
  105OSM    H9F10736   5.460   3.153   9.599 -0.5432 -1.0615  0.1253
  105OSM   C10F10737   5.604   3.044   9.492 -0.0583  0.4157  0.2062
  105OSM   H10F10738   5.632   3.123   9.420  0.3388  1.0316  1.0342
  105OSM   C11F10739   5.689   2.924   9.455  0.1202 -0.2335 -0.2100
  105OSM   H11F10740   5.653   2.829   9.502  1.3139 -1.2265 -1.2776
  105OSM   H11G10741   5.790   2.945   9.497  1.3249 -3.0542 -1.5811
  105OSM   C12F10742   5.707   2.905   9.304  0.7746 -0.1185  0.8461
  105OSM   H12F10743   5.758   2.806   9.295  0.0752 -0.1200 -5.0454
  105OSM   H12G10744   5.769   2.986   9.261 -0.2275  0.4357  0.4189
  105OSM   C13F10745   5.570   2.898   9.229 -0.3444 -0.5250  0.1084
  105OSM   H13F10746   5.529   3.000   9.233  0.6533 -0.2102  2.9461
  105OSM   H13G10747   5.505   2.822   9.277 -0.4891  0.2552  1.1446
  105OSM   C14F10748   5.603   2.879   9.072  0.2927  0.3947 -0.8739
  105OSM   H14F10749   5.668   2.791   9.052  1.5366  0.5504  2.2877
  105OSM   H14G10750   5.666   2.964   9.036  0.3038 -0.0729 -1.9787
  105OSM   C15F10751   5.477   2.872   8.979 -0.2029 -0.5600  0.7315
  105OSM   H15F10752   5.398   2.939   9.017 -0.1823  0.0056 -0.2025
  105OSM   H15G10753   5.439   2.768   8.981  1.1718 -1.0630  2.1713
  105OSM   C16F10754   5.515   2.910   8.829  0.0567  0.3126  0.1632
  105OSM   H16F10755   5.438   2.866   8.761 -1.0484 -1.5013  2.4913
  105OSM   H16G10756   5.619   2.887   8.798 -0.1150  1.7830 -1.5553
  105OSM   C17F10757   5.507   3.059   8.807  0.1714 -0.4160 -0.2688
  105OSM   H17F10758   5.554   3.083   8.709  1.1365  1.0104  0.5123
  105OSM   H17G10759   5.559   3.109   8.892 -0.9595  1.0006 -0.3785
  105OSM   C18F10760   5.368   3.123   8.802  0.6048  0.0914  0.0071
  105OSM   H18F10761   5.319   3.119   8.902 -1.5897  0.2449 -1.0276
  105OSM   H18G10762   5.315   3.058   8.728 -0.8377  3.6616 -2.2298
  105OSM   H18H10763   5.352   3.231   8.782 -0.0496  0.4984  2.5772
  106OSM      N10764   4.382   2.631  10.739  0.3858 -0.6894 -0.2652
  106OSM    C1510765   4.488   2.735  10.765 -0.0362 -0.5024  1.7081
  106OSM   H15A10766   4.574   2.696  10.713  0.0355  2.1599 -0.3146
  106OSM   H15B10767   4.512   2.740  10.871 -1.4589 -0.6993  2.0561
  106OSM   H15C10768   4.457   2.831  10.727 -1.1988 -1.9042 -0.9701
  106OSM    C1410769   4.261   2.672  10.802  0.0017  0.1050  0.3583
  106OSM   H14A10770   4.225   2.769  10.773 -3.0519 -0.1693  2.9189
  106OSM   H14B10771   4.272   2.675  10.910  0.4339  0.8749  0.3004
  106OSM   H14C10772   4.178   2.610  10.773 -0.0710 -0.4182  1.6383
  106OSM    C1310773   4.358   2.612  10.587  0.0831 -0.0266 -0.8624
  106OSM   H13A10774   4.457   2.597  10.545  0.0482 -0.2188 -0.8773
  106OSM   H13B10775   4.312   2.696  10.537 -1.9323 -0.6715 -0.1659
  106OSM   H13C10776   4.301   2.523  10.565  0.1187 -0.3473  0.3311
  106OSM    C1210777   4.417   2.504  10.804 -0.8487  0.4607  0.2143
  106OSM   H12A10778   4.345   2.430  10.773  0.8414 -0.7976 -0.7982
  106OSM   H12B10779   4.422   2.524  10.910 -1.1593 -0.1488  0.3438
  106OSM    C1110780   4.551   2.435  10.763 -0.3238  0.4257  0.1493
  106OSM   H11A10781   4.576   2.361  10.842  1.8093 -0.1604 -1.0583
  106OSM   H11B10782   4.633   2.510  10.762  0.3906 -0.2855  2.4183
  106OSM      P10783   4.629   2.278  10.572  0.1736 -0.2177  0.1060
  106OSM    O1310784   4.688   2.189  10.677 -0.2490 -0.0566  0.2150
  106OSM    O1410785   4.568   2.214  10.457  0.1155 -0.3526  0.8015
  106OSM    O1110786   4.733   2.380  10.529 -0.3780 -0.1936 -0.3806
  106OSM    O1210787   4.521   2.366  10.635 -0.1339 -0.6700  0.1087
  106OSM    C1S10788   4.813   2.378  10.413 -0.9141  0.8058 -0.1032
  106OSM    H1S10789   4.822   2.272  10.380  1.4418  1.0554 -0.3729
  106OSM    H1T10790   4.917   2.412  10.430 -0.4880 -1.6560  2.6648
  106OSM     NF10791   4.829   2.442  10.177  0.0815  0.0973 -0.3813
  106OSM    HNF10792   4.911   2.498  10.170  1.0266 -1.2112 -0.1151
  106OSM    C2S10793   4.749   2.463  10.298 -0.3105  0.6343  0.4125
  106OSM    H2S10794   4.647   2.420  10.286  0.3869 -1.5149  1.9095
  106OSM    C3S10795   4.735   2.608  10.347  0.0243 -0.0640 -0.0348
  106OSM    H3S10796   4.837   2.653  10.341 -0.4606  0.6721 -4.4719
  106OSM     O310797   4.682   2.627  10.485 -0.1668  0.4035  0.1663
  106OSM    HO310798   4.677   2.535  10.511  0.4996  0.1732 -0.4933
  106OSM    C4S10799   4.651   2.688  10.251 -0.5790 -0.4223 -0.0480
  106OSM    H4S10800   4.545   2.659  10.245 -0.7506  0.2442 -0.2499
  106OSM    C5S10801   4.702   2.785  10.169 -0.5052  0.0221 -1.3993
  106OSM    H5S10802   4.811   2.787  10.163 -0.4113  0.2048  0.0873
  106OSM    C6S10803   4.625   2.861  10.064  0.2079 -0.4328 -0.2344
  106OSM    H6S10804   4.522   2.890  10.094  1.6191  1.7548  2.7398
  106OSM    H6T10805   4.620   2.798   9.973  2.5440 -0.7672 -0.1700
  106OSM    C7S10806   4.703   2.986  10.013 -0.4688 -0.3808  0.5956
  106OSM    H7S10807   4.799   2.957   9.964 -0.6570  2.7919 -1.8302
  106OSM    H7T10808   4.728   3.058  10.094 -0.9213  2.5582 -1.7720
  106OSM    C8S10809   4.618   3.054   9.908  0.6828  0.0185 -0.1138
  106OSM    H8S10810   4.610   2.980   9.826 -0.5911  0.0563 -0.0204
  106OSM    H8T10811   4.686   3.129   9.861 -0.2246  0.9538  0.0433
  106OSM    C9S10812   4.479   3.101   9.947 -0.1926  0.0405  0.9068
  106OSM    H9S10813   4.491   3.161  10.039 -1.0659 -1.6756  2.1721
  106OSM    H9T10814   4.414   3.013   9.966 -0.0883 -1.0431 -3.1544
  106OSM   C10S10815   4.408   3.193   9.850 -0.1331  0.3611 -0.9397
  106OSM   H10S10816   4.462   3.289   9.834  0.4287  0.1627 -0.2445
  106OSM   H10T10817   4.312   3.223   9.897 -0.4356  0.0175 -1.3260
  106OSM   C11S10818   4.376   3.124   9.716  0.1767 -0.6957 -0.9950
  106OSM   H11S10819   4.301   3.043   9.732 -0.0125 -0.0538  1.5170
  106OSM   H11T10820   4.477   3.088   9.687  0.8739 -0.9246  1.6055
  106OSM   C12S10821   4.332   3.231   9.611 -0.3885  0.5595 -0.3981
  106OSM   H12S10822   4.411   3.308   9.616 -2.9262  3.1304  1.9636
  106OSM   H12T10823   4.237   3.271   9.653 -0.6471 -0.6935  0.2562
  106OSM   C13S10824   4.316   3.163   9.475  0.1559 -0.5463  0.1877
  106OSM   H13S10825   4.254   3.072   9.487 -1.0219  0.3573  1.0681
  106OSM   H13T10826   4.412   3.126   9.433  0.7655 -1.1970  2.0715
  106OSM   C14S10827   4.260   3.260   9.369 -0.3861 -0.0359  0.3493
  106OSM   H14S10828   4.344   3.314   9.320  0.3581 -0.4132  1.1774
  106OSM   H14T10829   4.195   3.335   9.419 -1.4638 -0.2064 -0.7957
  106OSM   C15S10830   4.168   3.188   9.258 -0.0331 -0.2520  0.3502
  106OSM   H15S10831   4.074   3.156   9.307  0.2009 -0.7395  0.4804
  106OSM   H15T10832   4.229   3.101   9.226  0.4651  0.1732  0.1145
  106OSM   C16S10833   4.140   3.278   9.134 -0.4630  0.0318 -0.6129
  106OSM   H16S10834   4.238   3.315   9.098  0.0644  0.5630  1.3107
  106OSM   H16T10835   4.088   3.367   9.176  0.2568  0.2177 -0.1119
  106OSM   C17S10836   4.067   3.213   9.011  0.6694  0.8262  0.3826
  106OSM   H17S10837   3.982   3.145   9.036  2.9195 -2.0215  0.6132
  106OSM   H17T10838   4.142   3.134   8.988  0.6513  1.0119 -0.3144
  106OSM   C18S10839   4.059   3.310   8.890  0.6109 -1.2319 -0.2276
  106OSM   H18S10840   4.061   3.239   8.804 -0.3975 -0.6165 -0.7637
  106OSM   H18T10841   4.157   3.353   8.861  0.9328 -1.9183 -0.1740
  106OSM   H18U10842   3.975   3.383   8.887  0.9104 -0.8773 -0.0209
  106OSM    C1F10843   4.816   2.343  10.085 -0.2976  0.3881  0.5263
  106OSM     OF10844   4.730   2.259  10.099  0.2044  0.0835  0.6150
  106OSM    C2F10845   4.916   2.344   9.971  0.1751 -0.3253  0.7041
  106OSM    H2F10846   4.951   2.241   9.947 -1.5054 -0.6351 -0.5740
  106OSM    H2G10847   5.006   2.405   9.992  0.0309 -1.0568  3.5489
  106OSM    C3F10848   4.852   2.403   9.845 -0.2568  0.2716  0.4096
  106OSM    H3F10849   4.813   2.506   9.861 -0.9644  0.1306 -0.3479
  106OSM    H3G10850   4.756   2.352   9.820 -0.5473 -0.1744  2.3424
  106OSM    C4F10851   4.945   2.408   9.727 -0.0546 -0.6842  0.3415
  106OSM    H4F10852   4.960   2.307   9.683  0.4778 -0.7683  0.7124
  106OSM    H4G10853   5.043   2.458   9.742  0.3772 -0.4540 -2.9606
  106OSM    C5F10854   4.873   2.470   9.604  0.3587 -0.1211 -0.1399
  106OSM    H5F10855   4.831   2.569   9.630  1.1866 -0.0293  0.9067
  106OSM    H5G10856   4.782   2.410   9.584  1.7767 -1.9675 -1.2624
  106OSM    C6F10857   4.967   2.474   9.478  0.5519  0.4924 -0.4039
  106OSM    H6F10858   4.989   2.374   9.434  1.9276  0.9361 -0.7360
  106OSM    H6G10859   5.067   2.509   9.510  0.2940  0.5931  0.2961
  106OSM    C7F10860   4.885   2.550   9.368 -0.3553  0.3637 -1.0191
  106OSM    H7F10861   4.951   2.538   9.279  0.4233 -1.6588 -0.1989
  106OSM    H7G10862   4.887   2.658   9.395 -0.2038  0.0516  0.2263
  106OSM    C8F10863   4.739   2.503   9.339  0.6503  0.0902 -0.6480
  106OSM    H8F10864   4.683   2.572   9.272 -2.0446 -1.6549 -0.2812
  106OSM    H8G10865   4.676   2.518   9.430 -0.9824 -1.2822 -1.5116
  106OSM    C9F10866   4.732   2.359   9.285 -0.1185  0.3945 -0.1649
  106OSM    H9F10867   4.712   2.284   9.364  1.2086  0.3950  0.1802
  106OSM   C10F10868   4.743   2.321   9.154 -0.2176  0.1320 -0.1364
  106OSM   H10F10869   4.725   2.212   9.146 -2.0369  0.1674  2.7203
  106OSM   C11F10870   4.771   2.410   9.037 -0.0395 -0.4068 -0.0372
  106OSM   H11F10871   4.795   2.514   9.071  0.9552  0.3596 -2.9442
  106OSM   H11G10872   4.682   2.421   8.972 -0.5993 -0.3534  0.7245
  106OSM   C12F10873   4.875   2.356   8.944 -0.3417  0.7108  0.1603
  106OSM   H12F10874   4.972   2.335   8.994  0.3988 -1.3798 -2.0266
  106OSM   H12G10875   4.899   2.423   8.859 -0.0215  1.2719  0.6891
  106OSM   C13F10876   4.840   2.225   8.869 -0.5230  0.4489 -0.0101
  106OSM   H13F10877   4.816   2.143   8.940 -0.7933  1.6734  1.3529
  106OSM   H13G10878   4.936   2.198   8.820 -1.1369  2.6042 -2.4722
  106OSM   C14F10879   4.729   2.248   8.761 -0.0337  0.1388 -0.3952
  106OSM   H14F10880   4.758   2.332   8.695 -0.5943  1.0788  0.5447
  106OSM   H14G10881   4.629   2.246   8.810  0.4250 -0.6859  0.5204
  106OSM   C15F10882   4.725   2.133   8.665  0.1662  0.3272  0.2288
  106OSM   H15F10883   4.635   2.148   8.602 -0.2663 -2.3498  0.1471
  106OSM   H15G10884   4.728   2.038   8.723  2.1558 -0.2156 -0.7084
  106OSM   C16F10885   4.845   2.119   8.570 -0.7253  0.0777  0.4852
  106OSM   H16F10886   4.944   2.089   8.610 -0.1974  1.3889  0.1901
  106OSM   H16G10887   4.859   2.215   8.515  0.4978 -0.6085 -0.4418
  106OSM   C17F10888   4.802   2.008   8.469  0.0661 -0.8005  0.5621
  106OSM   H17F10889   4.703   2.035   8.426  0.1309 -1.9472 -0.3460
  106OSM   H17G10890   4.791   1.913   8.526 -0.6316  0.6267  2.8648
  106OSM   C18F10891   4.900   2.006   8.353 -0.2259 -0.3474 -0.2755
  106OSM   H18F10892   4.871   1.927   8.281  1.3406  0.2245 -1.5963
  106OSM   H18G10893   5.007   1.984   8.374 -0.4100 -0.2106  0.7862
  106OSM   H18H10894   4.902   2.103   8.298 -2.3364 -0.0508  0.1461
  107OSM      N10895   1.677   6.265  10.895  0.0949  0.2034  0.0887
  107OSM    C1510896   1.630   6.378  10.985 -0.1694 -0.0211  0.3498
  107OSM   H15A10897   1.647   6.356  11.090  0.4121 -0.1112  0.2358
  107OSM   H15B10898   1.524   6.393  10.970 -0.0067  1.1765  0.4113
  107OSM   H15C10899   1.684   6.469  10.967  1.7134 -1.2863 -0.5665
  107OSM    C1410900   1.672   6.302  10.747  0.1148  0.8668 -0.0818
  107OSM   H14A10901   1.574   6.341  10.726  0.3993  1.0969 -1.0071
  107OSM   H14B10902   1.696   6.212  10.691 -0.1468  1.1500 -0.6471
  107OSM   H14C10903   1.740   6.381  10.720  1.8020 -0.0142  1.4854
  107OSM    C1310904   1.827   6.245  10.929  0.0827 -0.0563 -0.0047
  107OSM   H13A10905   1.881   6.326  10.884 -3.0316  0.8766 -2.2651
  107OSM   H13B10906   1.869   6.161  10.876 -1.4909 -0.2126 -1.0353
  107OSM   H13C10907   1.847   6.236  11.035  1.2123  2.5536  0.0286
  107OSM    C1210908   1.594   6.136  10.924 -0.2072 -0.1398 -0.0078
  107OSM   H12A10909   1.614   6.109  11.027  2.6936  1.2186 -0.1613
  107OSM   H12B10910   1.634   6.063  10.856  1.7699  0.5159  0.4087
  107OSM    C1110911   1.436   6.139  10.907 -0.2156 -0.2975 -0.5588
  107OSM   H11A10912   1.391   6.225  10.961  0.6160 -1.5402  2.1972
  107OSM   H11B10913   1.395   6.050  10.960 -1.3211 -0.0140 -0.9257
  107OSM      P10914   1.398   6.014  10.682 -0.0028  0.2478 -0.6661
  107OSM    O1310915   1.527   5.935  10.675  1.0716 -0.1238 -0.2991
  107OSM    O1410916   1.284   5.934  10.721 -0.2885  0.2380 -0.0572
  107OSM    O1110917   1.364   6.064  10.535  0.1931 -0.4919 -0.0529
  107OSM    O1210918   1.415   6.144  10.765 -0.3605 -0.1550 -0.2682
  107OSM    C1S10919   1.440   6.177  10.488  0.2055  0.2164 -0.3312
  107OSM    H1S10920   1.550   6.160  10.491 -0.0798 -1.7227 -0.0915
  107OSM    H1T10921   1.424   6.264  10.555 -1.0109  0.1981 -0.5802
  107OSM     NF10922   1.510   6.313  10.296  0.3606  0.4414  0.0910
  107OSM    HNF10923   1.475   6.407  10.296 -0.1979  0.2327 -0.2039
  107OSM    C2S10924   1.415   6.212  10.336  0.3902  0.1483  0.4143
  107OSM    H2S10925   1.429   6.119  10.276 -0.7031 -0.9166  1.7797
  107OSM    C3S10926   1.271   6.249  10.319 -0.3139  0.0304 -0.2250
  107OSM    H3S10927   1.247   6.336  10.385 -1.0199 -0.9338  0.7979
  107OSM     O310928   1.167   6.162  10.363  0.3484 -0.1604 -0.2753
  107OSM    HO310929   1.205   6.111  10.435  1.6950  0.9181 -0.1966
  107OSM    C4S10930   1.253   6.288  10.173 -0.2288 -0.1029 -0.5190
  107OSM    H4S10931   1.291   6.389  10.148 -0.9964  0.6809  1.4275
  107OSM    C5S10932   1.194   6.221  10.075 -0.0911  0.5449 -0.8567
  107OSM    H5S10933   1.155   6.121  10.100  0.8575  0.7716  1.6755
  107OSM    C6S10934   1.173   6.262   9.931  0.6384 -0.4171  0.0090
  107OSM    H6S10935   1.195   6.370   9.920 -1.2327  0.1030  1.0374
  107OSM    H6T10936   1.063   6.245   9.919 -0.3209  2.9111  3.1888
  107OSM    C7S10937   1.244   6.166   9.830  0.0827 -0.0040  0.4758
  107OSM    H7S10938   1.222   6.058   9.846 -2.5270  0.0272 -2.5045
  107OSM    H7T10939   1.354   6.177   9.843  0.6736 -2.7526 -1.8102
  107OSM    C8S10940   1.213   6.205   9.682  0.0959 -0.1600 -0.4811
  107OSM    H8S10941   1.238   6.313   9.673 -0.7814  0.0794 -0.0313
  107OSM    H8T10942   1.104   6.183   9.677  0.1031 -0.3791  0.3217
  107OSM    C9S10943   1.297   6.132   9.577  0.4516 -0.3751  0.0875
  107OSM    H9S10944   1.305   6.028   9.615  0.6900 -0.3831  0.0170
  107OSM    H9T10945   1.400   6.174   9.571  0.4715 -0.4720 -0.2401
  107OSM   C10S10946   1.229   6.138   9.441 -0.1785  0.4823  0.2758
  107OSM   H10S10947   1.202   6.241   9.409  1.7976  0.8365 -0.2911
  107OSM   H10T10948   1.137   6.076   9.451  1.0372 -1.5832 -1.1246
  107OSM   C11S10949   1.311   6.075   9.327 -0.0182  0.2910  0.3043
  107OSM   H11S10950   1.335   5.966   9.333  1.7022  0.6426  0.2988
  107OSM   H11T10951   1.406   6.128   9.304 -0.1108 -0.8372 -2.9013
  107OSM   C12S10952   1.212   6.079   9.209  0.6018 -0.8528  0.5481
  107OSM   H12S10953   1.170   6.181   9.197  0.0498 -1.1398  0.0304
  107OSM   H12T10954   1.126   6.012   9.235  0.7772 -0.6067  1.8272
  107OSM   C13S10955   1.279   6.026   9.085  0.2053 -0.7444  0.6181
  107OSM   H13S10956   1.318   5.922   9.089  4.0312  0.6389  0.9665
  107OSM   H13T10957   1.370   6.086   9.063  0.3251 -1.9123 -2.3598
  107OSM   C14S10958   1.184   6.048   8.963 -0.5238 -0.1512 -0.1316
  107OSM   H14S10959   1.158   6.156   8.973  3.2272  0.8288 -0.3164
  107OSM   H14T10960   1.096   5.982   8.981 -0.1220 -0.2398  1.5972
  107OSM   C15S10961   1.251   6.032   8.827  0.5623  0.1565 -0.2537
  107OSM   H15S10962   1.308   5.936   8.823  0.1041 -0.1184 -0.1762
  107OSM   H15T10963   1.324   6.112   8.804 -0.7284  1.6767  0.8895
  107OSM   C16S10964   1.147   6.024   8.713  0.1492 -0.7038  0.0685
  107OSM   H16S10965   1.078   6.110   8.730  2.4211  1.0072  0.8223
  107OSM   H16T10966   1.089   5.932   8.735  1.8442 -2.2172 -1.6047
  107OSM   C17S10967   1.190   6.038   8.567 -0.0602  0.8025  0.0314
  107OSM   H17S10968   1.090   6.032   8.519  1.8936 -1.6592 -4.0727
  107OSM   H17T10969   1.250   5.954   8.525  0.9087  3.1217 -3.3754
  107OSM   C18S10970   1.259   6.166   8.527 -0.2645  0.8852  0.6191
  107OSM   H18S10971   1.198   6.257   8.545  0.1185  1.3732 -0.4705
  107OSM   H18T10972   1.290   6.163   8.420 -2.2455 -1.8075  0.0518
  107OSM   H18U10973   1.353   6.170   8.586 -0.3852 -1.2475  0.9959
  107OSM    C1F10974   1.641   6.296  10.279 -0.4908 -0.9266  0.0628
  107OSM     OF10975   1.689   6.188  10.307 -0.6554 -0.3475 -0.1699
  107OSM    C2F10976   1.731   6.409  10.218  0.8433  0.5551 -0.4209
  107OSM    H2F10977   1.718   6.495  10.286  1.6522  0.7689 -0.5399
  107OSM    H2G10978   1.688   6.433  10.118 -1.2499 -2.7732 -0.4157
  107OSM    C3F10979   1.869   6.355  10.199 -1.0389 -0.1178  0.7567
  107OSM    H3F10980   1.863   6.249  10.165  2.9383 -0.2099  0.0858
  107OSM    H3G10981   1.912   6.356  10.301 -1.1770 -0.7584  0.8273
  107OSM    C4F10982   1.959   6.434  10.096 -0.2414  0.0956  0.5892
  107OSM    H4F10983   1.967   6.540  10.127  2.0923 -0.0374  0.5156
  107OSM    H4G10984   1.907   6.435   9.998 -0.2812  0.9311  0.6173
  107OSM    C5F10985   2.099   6.380  10.063  0.1094 -0.1768  0.5351
  107OSM    H5F10986   2.164   6.389  10.153 -0.3971 -0.9589  0.9785
  107OSM    H5G10987   2.149   6.448   9.990  1.2431 -2.6039 -0.9986
  107OSM    C6F10988   2.098   6.229  10.017  0.5725 -0.2076 -0.5313
  107OSM    H6F10989   2.026   6.210   9.935 -0.1652  0.9257 -0.1644
  107OSM    H6G10990   2.046   6.172  10.098  0.3894 -0.9729 -1.1772
  107OSM    C7F10991   2.245   6.177  10.001  0.3616  0.4474  0.1352
  107OSM    H7F10992   2.236   6.067  10.017 -0.1501 -0.0295 -3.1936
  107OSM    H7G10993   2.298   6.224  10.086 -0.2578 -1.0346  1.3808
  107OSM    C8F10994   2.320   6.209   9.871  0.6104 -0.5452 -0.0439
  107OSM    H8F10995   2.407   6.140   9.878  0.6152 -0.5393 -0.0384
  107OSM    H8G10996   2.343   6.318   9.875  0.1448 -0.4230 -0.6673
  107OSM    C9F10997   2.243   6.154   9.745 -0.3910 -0.3726 -0.0425
  107OSM    H9F10998   2.278   6.053   9.721  0.8814 -0.2391  1.1878
  107OSM   C10F10999   2.142   6.210   9.674  0.0943  0.5215 -0.0799
  107OSM   H10F11000   2.102   6.154   9.589  1.0949  0.0298 -0.2282
  107OSM   C11F11001   2.078   6.344   9.691 -0.0908  0.2482  0.0826
  107OSM   H11F11002   2.075   6.380   9.796  0.1692  1.1762 -0.2217
  107OSM   H11G11003   1.971   6.343   9.660 -0.6828 -0.1422  2.0807
  107OSM   C12F11004   2.142   6.458   9.609 -0.3977  0.0235  0.8301
  107OSM   H12F11005   2.250   6.463   9.637  0.2598 -0.1138 -1.5994
  107OSM   H12G11006   2.096   6.557   9.632 -2.6850 -1.1605  1.4925
  107OSM   C13F11007   2.144   6.449   9.455  0.6535 -0.7553  0.2454
  107OSM   H13F11008   2.134   6.551   9.411 -1.4513 -1.0449  0.0097
  107OSM   H13G11009   2.066   6.386   9.408  2.2029 -1.3965 -1.5169
  107OSM   C14F11010   2.275   6.399   9.392 -0.2300  0.7308  0.3254
  107OSM   H14F11011   2.297   6.294   9.423  2.2383  1.1153  0.0457
  107OSM   H14G11012   2.356   6.461   9.437  0.1668 -0.7210  1.6619
  107OSM   C15F11013   2.278   6.410   9.241  0.2317 -0.0843  0.5799
  107OSM   H15F11014   2.380   6.392   9.201  0.2311 -1.6460  1.2533
  107OSM   H15G11015   2.260   6.519   9.223 -0.9734 -0.6025 -1.5303
  107OSM   C16F11016   2.178   6.321   9.153 -0.2529 -0.1784 -0.4263
  107OSM   H16F11017   2.079   6.343   9.200 -0.1872  1.6286 -1.0924
  107OSM   H16G11018   2.206   6.215   9.171 -1.7886 -0.8596 -1.9619
  107OSM   C17F11019   2.176   6.338   8.997  0.0904 -0.1777 -0.2067
  107OSM   H17F11020   2.131   6.436   8.969 -1.7003 -0.3572  1.8919
  107OSM   H17G11021   2.098   6.263   8.972  1.5005 -2.2235  1.3493
  107OSM   C18F11022   2.309   6.311   8.939 -0.8014  0.9965 -0.1528
  107OSM   H18F11023   2.320   6.348   8.834  3.8569  1.7688  0.4993
  107OSM   H18G11024   2.329   6.202   8.945  1.3101  1.4326  1.1229
  107OSM   H18H11025   2.390   6.362   8.995 -0.1351 -0.2813  0.0719
  108OSM      N11026   5.117   1.529  10.835 -0.2895  0.3193  0.2028
  108OSM    C1511027   5.159   1.571  10.694  0.0819  0.5012 -0.7184
  108OSM   H15A11028   5.218   1.498  10.641  0.0535 -0.5208  0.6229
  108OSM   H15B11029   5.208   1.667  10.691  0.6496  0.1976 -1.3247
  108OSM   H15C11030   5.069   1.578  10.634 -0.3094  4.9307  0.2473
  108OSM    C1411031   5.232   1.530  10.921  0.0848  0.6670 -0.0039
  108OSM   H14A11032   5.202   1.507  11.022  1.1644  0.0172  0.1801
  108OSM   H14B11033   5.273   1.629  10.935  1.6387 -0.2424  2.1920
  108OSM   H14C11034   5.305   1.457  10.887  0.7823  1.9080 -1.2434
  108OSM    C1311035   5.018   1.625  10.882  0.5518 -0.2649  0.4789
  108OSM   H13A11036   5.065   1.722  10.884  1.5861 -0.7525  0.4275
  108OSM   H13B11037   4.971   1.596  10.975  0.0791 -1.1458 -0.0281
  108OSM   H13C11038   4.930   1.632  10.820  1.6898  0.8443 -1.0353
  108OSM    C1211039   5.055   1.391  10.842  0.5106 -0.0933 -0.2579
  108OSM   H12A11040   4.964   1.390  10.785  1.8072 -4.0332 -2.4976
  108OSM   H12B11041   5.023   1.374  10.944  0.1542  0.0783 -0.3436
  108OSM    C1111042   5.136   1.271  10.776 -0.4529  0.3171  0.2028
  108OSM   H11A11043   5.085   1.173  10.792  0.1997  0.1007  0.9623
  108OSM   H11B11044   5.231   1.262  10.833 -0.1768  1.9673  0.0057
  108OSM      P11045   5.288   1.227  10.561 -0.0803 -0.3712  0.2151
  108OSM    O1311046   5.282   1.247  10.416 -0.3024 -0.4290 -0.1400
  108OSM    O1411047   5.415   1.277  10.627 -0.4772 -0.2731  0.2430
  108OSM    O1111048   5.270   1.075  10.581 -0.4035  0.6476 -0.1918
  108OSM    O1211049   5.153   1.283  10.634  0.0001 -0.7095 -0.2057
  108OSM    C1S11050   5.164   0.993  10.555 -0.3138 -0.1446  0.5981
  108OSM    H1S11051   5.067   1.044  10.569 -0.0933  0.1411  1.0765
  108OSM    H1T11052   5.176   0.897  10.610 -1.8666 -1.0724 -0.6140
  108OSM     NF11053   5.054   0.839  10.397  0.0488 -0.3836 -0.8722
  108OSM    HNF11054   5.072   0.741  10.411 -2.1354 -0.4079  2.4998
  108OSM    C2S11055   5.162   0.934  10.411 -0.5916 -0.3544  0.4689
  108OSM    H2S11056   5.143   1.024  10.348 -0.8295  0.0160  1.0645
  108OSM    C3S11057   5.299   0.869  10.379  0.3072 -0.3913 -0.0768
  108OSM    H3S11058   5.325   0.782  10.442  1.2052  0.6298  0.9811
  108OSM     O311059   5.419   0.952  10.392  0.2118 -0.1849  0.3035
  108OSM    HO311060   5.385   1.039  10.414 -1.3162  0.3072 -3.6737
  108OSM    C4S11061   5.285   0.827  10.235 -0.0502 -0.5686 -0.4077
  108OSM    H4S11062   5.287   0.903  10.155  1.0683 -0.7156 -0.5370
  108OSM    C5S11063   5.297   0.698  10.197  0.3530 -0.3441 -1.2324
  108OSM    H5S11064   5.302   0.631  10.284 -1.8330 -0.1333 -0.9285
  108OSM    C6S11065   5.290   0.640  10.061  0.1470 -0.8498 -0.0672
  108OSM    H6S11066   5.228   0.548  10.067  1.7974 -1.9348  1.0070
  108OSM    H6T11067   5.394   0.618  10.027  0.5796  0.4322  0.3966
  108OSM    C7S11068   5.233   0.720   9.940 -0.1905 -0.9244 -0.3627
  108OSM    H7S11069   5.287   0.811   9.907  2.1549 -1.3338  2.1645
  108OSM    H7T11070   5.132   0.758   9.966  0.0904  0.7009 -1.5845
  108OSM    C8S11071   5.216   0.611   9.828  0.5282  0.1778  1.0383
  108OSM    H8S11072   5.121   0.558   9.852  0.0590 -0.4518 -2.0291
  108OSM    H8T11073   5.301   0.544   9.853  0.1690  0.1922  2.3486
  108OSM    C9S11074   5.212   0.662   9.683 -0.0925  0.1928  0.3639
  108OSM    H9S11075   5.271   0.755   9.697 -0.9050  0.7575  0.0482
  108OSM    H9T11076   5.107   0.689   9.661  0.2488  1.1983 -0.0720
  108OSM   C10S11077   5.270   0.559   9.584 -0.3240 -0.4534  0.4153
  108OSM   H10S11078   5.217   0.462   9.580 -1.6467  0.2672  0.0293
  108OSM   H10T11079   5.370   0.527   9.620  0.0507 -0.1609 -0.3365
  108OSM   C11S11080   5.279   0.595   9.432 -0.4484  0.4422 -0.1155
  108OSM   H11S11081   5.301   0.500   9.379  1.1937 -0.0703  1.4172
  108OSM   H11T11082   5.363   0.665   9.414  2.0363 -2.4883 -0.1196
  108OSM   C12S11083   5.156   0.669   9.374  0.3282  0.0804 -0.7257
  108OSM   H12S11084   5.138   0.769   9.419 -5.1342 -0.8742 -0.4157
  108OSM   H12T11085   5.063   0.607   9.380  0.2593  0.4420  3.1015
  108OSM   C13S11086   5.162   0.681   9.221 -0.1503  0.1082  0.5151
  108OSM   H13S11087   5.175   0.585   9.167 -1.1274  0.2441  0.0345
  108OSM   H13T11088   5.254   0.741   9.201  0.8749 -1.7151 -0.3877
  108OSM   C14S11089   5.040   0.767   9.166  0.5451  0.1588  0.0926
  108OSM   H14S11090   5.028   0.868   9.211  2.3707  0.9727 -1.2092
  108OSM   H14T11091   4.946   0.712   9.186 -0.4160  1.0875 -1.7226
  108OSM   C15S11092   5.053   0.770   9.017  0.2580 -0.0932  0.7326
  108OSM   H15S11093   5.070   0.668   8.976 -1.4136 -0.8656  1.8822
  108OSM   H15T11094   5.140   0.832   8.987  0.7260 -0.5907  1.0721
  108OSM   C16S11095   4.928   0.831   8.953 -0.0090 -0.7044 -0.0314
  108OSM   H16S11096   4.845   0.759   8.969 -0.3674 -0.4305 -0.6597
  108OSM   H16T11097   4.938   0.845   8.844 -0.9875  1.1995  0.1252
  108OSM   C17S11098   4.888   0.961   9.012 -0.1842 -0.4023  0.2284
  108OSM   H17S11099   4.978   1.025   9.023 -0.0723 -0.4017 -0.7131
  108OSM   H17T11100   4.844   0.949   9.114 -0.9041  0.7244  0.0648
  108OSM   C18S11101   4.793   1.044   8.922 -0.2488 -0.4362  0.1563
  108OSM   H18S11102   4.853   1.086   8.839  1.1235  2.6965  2.6204
  108OSM   H18T11103   4.755   1.135   8.973 -0.3019 -0.2880 -0.1464
  108OSM   H18U11104   4.707   0.983   8.884  0.0153  0.0551 -1.2701
  108OSM    C1F11105   4.926   0.880  10.380  0.5202  0.5548  0.1006
  108OSM     OF11106   4.894   0.996  10.369 -0.0405  0.3956  0.7241
  108OSM    C2F11107   4.818   0.767  10.381  0.3449 -0.4320 -0.8225
  108OSM    H2F11108   4.771   0.779  10.481  2.0009 -1.7108  0.1331
  108OSM    H2G11109   4.856   0.664  10.363  3.2123 -0.0009  2.2785
  108OSM    C3F11110   4.708   0.787  10.275 -0.1285  0.0742  0.1042
  108OSM    H3F11111   4.637   0.870  10.298 -0.9341  0.5215 -3.6796
  108OSM    H3G11112   4.642   0.700  10.289  0.6159 -0.4520  0.3881
  108OSM    C4F11113   4.767   0.798  10.134  0.4329  0.3568  0.2798
  108OSM    H4F11114   4.835   0.711  10.119 -1.9353 -1.3513 -0.7546
  108OSM    H4G11115   4.820   0.896  10.121  1.3089 -0.3706 -1.8784
  108OSM    C5F11116   4.660   0.805  10.022 -0.2400  0.0353 -0.1431
  108OSM    H5F11117   4.596   0.893  10.047  0.6902  0.2109  1.6406
  108OSM    H5G11118   4.585   0.722  10.023 -1.1487  0.7526 -2.9380
  108OSM    C6F11119   4.725   0.830   9.885  0.2935  0.2437  0.0388
  108OSM    H6F11120   4.794   0.916   9.894 -0.1800  0.3084  3.5342
  108OSM    H6G11121   4.645   0.861   9.814  0.8161  0.7540 -0.3294
  108OSM    C7F11122   4.813   0.713   9.831  0.3082  0.2584  0.5354
  108OSM    H7F11123   4.808   0.620   9.893  1.2542 -1.0799 -1.3504
  108OSM    H7G11124   4.922   0.723   9.845  0.5559  0.1626 -1.2454
  108OSM    C8F11125   4.775   0.677   9.681  0.2843 -0.0413  0.0606
  108OSM    H8F11126   4.665   0.660   9.682  0.1023  1.0366  2.7365
  108OSM    H8G11127   4.838   0.588   9.663  2.4506  1.5195 -0.2040
  108OSM    C9F11128   4.802   0.785   9.587  0.3016  0.6512 -0.2697
  108OSM    H9F11129   4.877   0.857   9.623  2.5666 -1.3879 -0.8358
  108OSM   C10F11130   4.772   0.786   9.457  0.7131 -0.7392 -0.1786
  108OSM   H10F11131   4.809   0.875   9.402 -0.3212  0.0620  0.4125
  108OSM   C11F11132   4.696   0.678   9.378  0.7701 -0.0915 -0.6448
  108OSM   H11F11133   4.633   0.607   9.435  0.6698 -1.2408 -2.1642
  108OSM   H11G11134   4.782   0.619   9.340  0.6411  0.0537 -1.1754
  108OSM   C12F11135   4.632   0.736   9.251 -0.2835  0.6533  0.0709
  108OSM   H12F11136   4.576   0.652   9.204 -0.1807  0.1449  0.8459
  108OSM   H12G11137   4.699   0.774   9.171 -0.3322 -0.8912 -0.7229
  108OSM   C13F11138   4.526   0.838   9.285 -0.6759  0.3896  0.5983
  108OSM   H13F11139   4.578   0.913   9.348 -1.6677 -0.0323  1.9453
  108OSM   H13G11140   4.442   0.803   9.348 -0.3567  0.5399  1.1125
  108OSM   C14F11141   4.466   0.924   9.165  1.0173 -0.5898 -0.8898
  108OSM   H14F11142   4.552   0.973   9.115  0.9760  2.0712  1.5112
  108OSM   H14G11143   4.414   1.011   9.211  0.4954 -0.6063 -1.4432
  108OSM   C15F11144   4.389   0.831   9.076  0.0419 -0.3102  1.1561
  108OSM   H15F11145   4.326   0.769   9.143  0.7107  0.3348  2.4014
  108OSM   H15G11146   4.454   0.762   9.018 -0.1610 -0.3477  0.9746
  108OSM   C16F11147   4.299   0.907   8.981  0.1687  0.1812  1.0683
  108OSM   H16F11148   4.364   0.960   8.908 -0.6071  1.8669  1.5710
  108OSM   H16G11149   4.248   0.982   9.045  2.1865  2.2007  0.3738
  108OSM   C17F11150   4.199   0.817   8.909 -0.6283  0.4050 -0.2585
  108OSM   H17F11151   4.137   0.891   8.853 -1.1753  0.4074  0.3506
  108OSM   H17G11152   4.137   0.759   8.980  1.7622 -1.5961  0.2476
  108OSM   C18F11153   4.257   0.701   8.817 -0.1553 -0.1781  0.0841
  108OSM   H18F11154   4.343   0.652   8.868  0.6470  0.5694 -0.5315
  108OSM   H18G11155   4.303   0.734   8.722 -0.2255 -1.5452 -0.4237
  108OSM   H18H11156   4.182   0.623   8.794  0.5837 -0.4418 -1.4406
  109OSM      N11157   3.285   6.099  10.919 -0.8727  0.0596  0.6618
  109OSM    C1511158   3.309   6.171  10.787 -0.2236 -0.0790 -0.0423
  109OSM   H15A11159   3.354   6.269  10.794 -1.5325  0.6530 -1.4819
  109OSM   H15B11160   3.217   6.177  10.731  0.1314 -0.2899 -0.6612
  109OSM   H15C11161   3.375   6.114  10.724  1.2857  1.1907  0.3583
  109OSM    C1411162   3.313   5.950  10.920  0.3657  0.2112  0.0220
  109OSM   H14A11163   3.238   5.893  10.867  0.8738 -0.8209  0.4164
  109OSM   H14B11164   3.309   5.906  11.018  1.7445 -1.7261 -0.7616
  109OSM   H14C11165   3.408   5.942  10.869  0.9674  0.1500  1.1416
  109OSM    C1311166   3.386   6.148  11.017  0.5739 -0.1829  0.0442
  109OSM   H13A11167   3.376   6.255  11.026  1.6888  0.0702 -1.5902
  109OSM   H13B11168   3.486   6.114  10.998 -0.5196 -1.6471 -3.4481
  109OSM   H13C11169   3.354   6.116  11.115  0.2761  1.9775  0.6740
  109OSM    C1211170   3.141   6.123  10.963  0.2109 -0.2379 -0.2490
  109OSM   H12A11171   3.130   6.083  11.062 -1.1213  0.4953 -0.0935
  109OSM   H12B11172   3.080   6.053  10.908 -0.5419 -0.1435  0.4678
  109OSM    C1111173   3.078   6.262  10.963  0.2447 -0.0116 -0.1272
  109OSM   H11A11174   2.974   6.266  11.002  0.2194 -0.5023 -0.1315
  109OSM   H11B11175   3.076   6.293  10.857  0.1076 -0.2234 -0.1864
  109OSM      P11176   3.226   6.480  11.013 -0.1511 -0.0734 -0.7342
  109OSM    O1311177   3.126   6.594  11.023  0.1388  0.2515  0.0876
  109OSM    O1411178   3.351   6.491  11.090  0.7120 -0.4793  0.1874
  109OSM    O1111179   3.272   6.472  10.854 -0.0900 -0.2189 -0.1759
  109OSM    O1211180   3.157   6.345  11.050  0.1821  0.5034 -0.2154
  109OSM    C1S11181   3.376   6.560  10.801  0.3240  0.2600 -0.3783
  109OSM    H1S11182   3.475   6.524  10.838 -0.0217  0.8054  1.0931
  109OSM    H1T11183   3.365   6.666  10.833 -0.4005 -0.0454  0.4210
  109OSM     NF11184   3.464   6.673  10.599 -0.5294 -0.2604 -0.3444
  109OSM    HNF11185   3.416   6.752  10.563  1.2644 -0.3287 -2.9678
  109OSM    C2S11186   3.395   6.551  10.648  0.2600 -0.8743 -0.0620
  109OSM    H2S11187   3.466   6.466  10.639  0.2853 -0.9652  1.0211
  109OSM    C3S11188   3.270   6.520  10.556  0.5492 -0.0874 -0.4918
  109OSM    H3S11189   3.212   6.615  10.554 -1.1538 -1.1244 -1.9175
  109OSM     O311190   3.190   6.413  10.614 -0.7235  0.6253 -0.2174
  109OSM    HO311191   3.206   6.416  10.708 -2.7902  0.1687  0.1584
  109OSM    C4S11192   3.303   6.479  10.413 -0.3236 -0.1991  0.1017
  109OSM    H4S11193   3.254   6.544  10.339  2.9294  1.2239 -0.9053
  109OSM    C5S11194   3.373   6.368  10.375 -0.6384  0.4784 -0.1565
  109OSM    H5S11195   3.425   6.314  10.455 -1.8175 -0.8029 -0.2333
  109OSM    C6S11196   3.414   6.328  10.239  0.5633  0.7914  0.9616
  109OSM    H6S11197   3.340   6.257  10.197  2.0190 -1.1970  1.6661
  109OSM    H6T11198   3.514   6.280  10.228 -0.0666 -0.8981  2.3267
  109OSM    C7S11199   3.429   6.440  10.132  0.0196  0.2293  0.0538
  109OSM    H7S11200   3.500   6.520  10.164 -0.8859  1.5982 -1.2718
  109OSM    H7T11201   3.329   6.488  10.122  0.0489  0.6311  1.4682
  109OSM    C8S11202   3.473   6.382  10.004  0.4602  0.0863  0.4236
  109OSM    H8S11203   3.418   6.288   9.979 -0.4004  0.9549 -1.0283
  109OSM    H8T11204   3.579   6.349  10.009 -0.0266 -1.9073 -1.4734
  109OSM    C9S11205   3.464   6.484   9.894  0.1074 -0.1303  0.0124
  109OSM    H9S11206   3.520   6.576   9.924  0.1557  0.0917 -0.7443
  109OSM    H9T11207   3.358   6.512   9.876 -0.4349 -3.3092 -2.1543
  109OSM   C10S11208   3.514   6.433   9.758 -0.0684  0.3156 -0.8553
  109OSM   H10S11209   3.452   6.349   9.721 -0.7629  0.7529 -0.7010
  109OSM   H10T11210   3.620   6.401   9.768 -0.3613 -1.0704 -1.9753
  109OSM   C11S11211   3.517   6.538   9.648  0.7633 -0.8010 -0.1469
  109OSM   H11S11212   3.549   6.641   9.675  0.2983 -0.0498 -2.3073
  109OSM   H11T11213   3.415   6.560   9.608  0.8911  0.9431  0.4208
  109OSM   C12S11214   3.599   6.496   9.523 -0.2487 -0.1187  0.2419
  109OSM   H12S11215   3.606   6.385   9.523  0.1447 -0.0927  0.2448
  109OSM   H12T11216   3.704   6.526   9.540 -0.2408  0.4542 -0.8107
  109OSM   C13S11217   3.541   6.551   9.391  0.0135 -0.0922 -0.4678
  109OSM   H13S11218   3.544   6.661   9.381  0.6540 -0.0909 -0.2833
  109OSM   H13T11219   3.434   6.521   9.393 -0.2514  0.8416 -0.6337
  109OSM   C14S11220   3.597   6.491   9.258 -0.1887  0.2741 -0.6343
  109OSM   H14S11221   3.693   6.543   9.238  0.2052 -0.5502 -0.9040
  109OSM   H14T11222   3.531   6.517   9.173 -1.2371  0.5307  0.2427
  109OSM   C15S11223   3.634   6.344   9.261 -0.2038  0.5404 -0.1108
  109OSM   H15S11224   3.569   6.282   9.326 -2.4125  2.1709 -0.6983
  109OSM   H15T11225   3.735   6.337   9.308 -0.2387  1.8661  0.1844
  109OSM   C16S11226   3.656   6.282   9.115 -0.3248  0.2093 -0.2032
  109OSM   H16S11227   3.730   6.345   9.062 -0.8305  0.2884 -0.8119
  109OSM   H16T11228   3.560   6.299   9.061  0.2556  3.7824 -0.2493
  109OSM   C17S11229   3.720   6.146   9.128 -1.0942 -0.3106  0.2078
  109OSM   H17S11230   3.666   6.081   9.199 -0.4478 -0.6856  0.3659
  109OSM   H17T11231   3.827   6.156   9.156 -0.7954  1.0164 -1.3208
  109OSM   C18S11232   3.723   6.071   8.991 -0.0357  0.1338  0.4126
  109OSM   H18S11233   3.774   6.128   8.910 -2.4172  2.2274  0.3315
  109OSM   H18T11234   3.620   6.061   8.951 -0.6062  1.0840  1.6336
  109OSM   H18U11235   3.772   5.972   9.001 -1.7761 -0.7530  0.4044
  109OSM    C1F11236   3.588   6.706  10.631 -0.2131 -0.0240 -0.3405
  109OSM     OF11237   3.648   6.644  10.720 -0.6409 -0.6245 -0.0176
  109OSM    C2F11238   3.644   6.824  10.563 -0.6375 -0.0687  0.5874
  109OSM    H2F11239   3.729   6.866  10.621 -0.0811 -1.6046  0.9146
  109OSM    H2G11240   3.570   6.904  10.543 -0.0456  0.1874 -0.6362
  109OSM    C3F11241   3.694   6.782  10.420  0.1876 -0.9580 -0.0343
  109OSM    H3F11242   3.610   6.755  10.353 -1.1917  2.5843  0.2028
  109OSM    H3G11243   3.753   6.688  10.430  0.3703 -0.8168  0.2009
  109OSM    C4F11244   3.779   6.886  10.342 -0.1138 -0.3115  0.1809
  109OSM    H4F11245   3.872   6.916  10.394  0.9087 -2.0681 -0.6139
  109OSM    H4G11246   3.712   6.975  10.338  0.8241  0.3864 -0.3603
  109OSM    C5F11247   3.811   6.840  10.204 -0.4346  0.1929 -0.0636
  109OSM    H5F11248   3.862   6.741  10.208  0.1781  0.5453  1.0480
  109OSM    H5G11249   3.891   6.911  10.175  0.7178 -1.1003 -0.1217
  109OSM    C6F11250   3.699   6.844  10.103 -0.9048  0.0570  0.7679
  109OSM    H6F11251   3.677   6.950  10.079  2.0308  0.4962 -0.1261
  109OSM    H6G11252   3.604   6.799  10.140 -0.1666 -2.2029 -0.0091
  109OSM    C7F11253   3.740   6.778   9.972 -0.5576 -0.0070 -0.1287
  109OSM    H7F11254   3.647   6.770   9.912 -0.4485 -1.2147 -0.1537
  109OSM    H7G11255   3.763   6.673  10.000  0.6708 -0.1743 -1.6908
  109OSM    C8F11256   3.855   6.850   9.899  0.2002 -0.6947  0.3076
  109OSM    H8F11257   3.896   6.783   9.821 -0.5697 -1.1370  0.2780
  109OSM    H8G11258   3.937   6.866   9.972  0.1601  0.6739  0.0721
  109OSM    C9F11259   3.812   6.983   9.840  0.2054  0.2301  0.1070
  109OSM    H9F11260   3.816   7.075   9.900  0.4783  1.4640 -1.7485
  109OSM   C10F11261   3.784   7.011   9.707  0.6362 -0.2738  0.7643
  109OSM   H10F11262   3.752   7.113   9.684 -0.8579 -0.4575  1.9622
  109OSM   C11F11263   3.795   6.910   9.600  0.6283  0.0847  0.0581
  109OSM   H11F11264   3.694   6.895   9.558 -1.1076 -1.3013  4.4614
  109OSM   H11G11265   3.831   6.810   9.633  1.7334  0.8141  1.1236
  109OSM   C12F11266   3.901   6.937   9.491  0.1151 -0.1512 -0.1003
  109OSM   H12F11267   4.009   6.918   9.508  1.0615  4.5242 -0.0541
  109OSM   H12G11268   3.908   7.048   9.488  0.5624 -0.1902 -0.8508
  109OSM   C13F11269   3.860   6.886   9.351 -0.0132 -0.0781 -0.2212
  109OSM   H13F11270   3.765   6.940   9.331 -0.5990 -1.6168 -1.6850
  109OSM   H13G11271   3.831   6.780   9.368  0.8311 -0.2671  0.0553
  109OSM   C14F11272   3.965   6.898   9.245 -0.4390 -0.4675  0.6873
  109OSM   H14F11273   4.041   6.821   9.273 -0.5039 -1.2725 -1.2329
  109OSM   H14G11274   4.010   6.999   9.239 -2.4772  0.3449 -1.8823
  109OSM   C15F11275   3.921   6.884   9.102  0.2192  0.6884 -1.0876
  109OSM   H15F11276   3.993   6.893   9.017  1.6163  0.8307  0.1028
  109OSM   H15G11277   3.844   6.962   9.085  1.4740  2.3845  0.8643
  109OSM   C16F11278   3.837   6.760   9.079  0.1561 -0.6274 -0.5639
  109OSM   H16F11279   3.745   6.767   9.142  0.0737  0.2230 -0.7724
  109OSM   H16G11280   3.892   6.665   9.092 -0.2611 -0.9472 -1.1147
  109OSM   C17F11281   3.780   6.752   8.937  0.1502  0.5960 -0.5598
  109OSM   H17F11282   3.865   6.726   8.870  0.1902 -2.0886  0.5136
  109OSM   H17G11283   3.755   6.856   8.906 -0.4013  0.5100 -0.4189
  109OSM   C18F11284   3.654   6.668   8.913 -0.3061 -0.2285  0.4050
  109OSM   H18F11285   3.563   6.718   8.955  0.3874 -1.4837  3.5914
  109OSM   H18G11286   3.660   6.564   8.952 -0.4621 -0.7361 -0.9054
  109OSM   H18H11287   3.636   6.653   8.805  1.7019 -1.0758  0.1770
  110OSM      N11288   4.657   4.955  11.463  0.7413  0.0439  0.0948
  110OSM    C1511289   4.522   5.002  11.437  0.3432  0.2762  0.2283
  110OSM   H15A11290   4.448   4.949  11.494  1.6725 -0.5497  1.2295
  110OSM   H15B11291   4.507   4.990  11.331 -2.1553  3.4628  0.1643
  110OSM   H15C11292   4.507   5.103  11.471  1.2119 -0.0593  1.6680
  110OSM    C1411293   4.702   4.999  11.600  0.0241 -0.1935  0.1929
  110OSM   H14A11294   4.629   4.968  11.674 -0.5347  0.8417  0.0853
  110OSM   H14B11295   4.711   5.107  11.603 -0.4004 -0.1465 -0.1390
  110OSM   H14C11296   4.801   4.963  11.622  0.2125 -0.5292 -1.1661
  110OSM    C1311297   4.650   4.811  11.465  0.6891  0.0821 -0.2748
  110OSM   H13A11298   4.631   4.767  11.368  0.2524 -3.7870  1.4575
  110OSM   H13B11299   4.562   4.781  11.521  0.6320  2.2844  0.8768
  110OSM   H13C11300   4.732   4.772  11.523  1.1421 -0.8906 -1.5488
  110OSM    C1211301   4.766   4.992  11.372  0.6076 -0.3240  0.1491
  110OSM   H12A11302   4.851   4.926  11.383 -0.2383 -1.2456  1.2650
  110OSM   H12B11303   4.801   5.091  11.400 -0.0114  0.0880 -0.5103
  110OSM    C1111304   4.735   4.978  11.218 -0.2813  0.2132  0.2754
  110OSM   H11A11305   4.832   5.003  11.169 -1.4470  0.8087 -1.7534
  110OSM   H11B11306   4.664   5.056  11.184 -1.9692 -1.4123  0.0430
  110OSM      P11307   4.609   4.815  11.042  0.1563 -0.0521  0.0390
  110OSM    O1311308   4.635   4.679  10.992  0.2127 -0.3057  0.1287
  110OSM    O1411309   4.465   4.846  11.058  0.1703 -0.4369 -0.8460
  110OSM    O1111310   4.667   4.926  10.944  0.2396 -0.6579 -0.3773
  110OSM    O1211311   4.691   4.849  11.176 -0.2565  0.1363  0.1847
  110OSM    C1S11312   4.808   4.926  10.898 -0.5049 -0.2267  0.6012
  110OSM    H1S11313   4.859   4.827  10.899  0.4291  0.2562  1.0496
  110OSM    H1T11314   4.872   4.990  10.962 -0.4258 -0.5319  0.8324
  110OSM     NF11315   4.973   4.945  10.712  0.1755  0.4168 -0.5038
  110OSM    HNF11316   5.031   5.022  10.689 -1.2424  1.1748 -1.6379
  110OSM    C2S11317   4.826   4.968  10.752 -0.1838  0.4110  1.0567
  110OSM    H2S11318   4.758   4.909  10.687 -0.2822  2.5529 -0.8386
  110OSM    C3S11319   4.779   5.116  10.734  0.5931  0.5410 -0.5481
  110OSM    H3S11320   4.846   5.185  10.790  1.0915  1.0267 -1.7188
  110OSM     O311321   4.652   5.140  10.786  0.6427 -0.0812 -0.3528
  110OSM    HO311322   4.638   5.055  10.828 -2.6518  1.8456  2.7915
  110OSM    C4S11323   4.781   5.156  10.587 -0.2795 -0.9413  0.3639
  110OSM    H4S11324   4.788   5.073  10.515  1.4608 -0.8405  0.4092
  110OSM    C5S11325   4.782   5.278  10.537  0.1804 -1.1316  0.2164
  110OSM    H5S11326   4.777   5.360  10.611  1.3637 -0.4640 -0.4248
  110OSM    C6S11327   4.774   5.308  10.388 -0.2072 -0.3696 -0.2194
  110OSM    H6S11328   4.750   5.415  10.367  0.6373  0.2942  1.9966
  110OSM    H6T11329   4.693   5.253  10.336 -0.7207 -0.2532  0.4467
  110OSM    C7S11330   4.902   5.274  10.311 -0.2041  0.4474  0.1024
  110OSM    H7S11331   4.904   5.163  10.297 -0.0093  0.2291  1.7662
  110OSM    H7T11332   4.994   5.301  10.366  0.1915 -1.9600  0.7011
  110OSM    C8S11333   4.910   5.329  10.165  0.4767  0.0016  0.4204
  110OSM    H8S11334   5.010   5.300  10.128 -0.8808 -1.8451 -1.9236
  110OSM    H8T11335   4.917   5.439  10.173 -0.8144  0.1340 -0.1276
  110OSM    C9S11336   4.795   5.272  10.080 -0.1055 -0.1417  0.1067
  110OSM    H9S11337   4.710   5.323  10.128  0.2457  2.4713 -1.9133
  110OSM    H9T11338   4.781   5.162  10.087  1.6836 -0.4074 -0.1365
  110OSM   C10S11339   4.789   5.316   9.932 -1.1234 -0.2264  0.3268
  110OSM   H10S11340   4.779   5.426   9.926  0.3252 -0.0947  0.1555
  110OSM   H10T11341   4.699   5.257   9.902 -1.3505 -0.6616  1.8489
  110OSM   C11S11342   4.907   5.269   9.854  0.3075  0.1621 -0.7655
  110OSM   H11S11343   4.913   5.160   9.834  0.5019 -0.2405  1.3786
  110OSM   H11T11344   5.007   5.311   9.877  0.2011  0.5368 -0.9821
  110OSM   C12S11345   4.890   5.323   9.707 -0.1221  0.3993 -0.0431
  110OSM   H12S11346   4.974   5.276   9.650 -0.2780 -0.2543  0.2558
  110OSM   H12T11347   4.909   5.431   9.696 -0.0348  0.5778  1.6181
  110OSM   C13S11348   4.750   5.309   9.643 -0.1537  0.0964  0.2561
  110OSM   H13S11349   4.672   5.362   9.703  0.7417  0.9685  0.6600
  110OSM   H13T11350   4.717   5.203   9.643 -0.0774  0.0588 -1.7612
  110OSM   C14S11351   4.758   5.362   9.502  0.1190  0.1689  0.6573
  110OSM   H14S11352   4.834   5.302   9.447 -2.2054 -3.5731  1.3309
  110OSM   H14T11353   4.791   5.468   9.492 -0.9114  0.4443  0.1362
  110OSM   C15S11354   4.633   5.333   9.422 -0.4113 -1.0688 -0.0727
  110OSM   H15S11355   4.546   5.361   9.485 -0.5638 -0.6329 -0.4778
  110OSM   H15T11356   4.626   5.222   9.409  1.9381 -1.7090  3.4421
  110OSM   C16S11357   4.638   5.377   9.279 -0.6291  0.0749  1.0128
  110OSM   H16S11358   4.723   5.342   9.218 -0.3785  0.4677  1.1344
  110OSM   H16T11359   4.636   5.488   9.273 -1.4466 -0.0633 -2.5464
  110OSM   C17S11360   4.512   5.330   9.209  0.3000  0.2284  0.1133
  110OSM   H17S11361   4.422   5.360   9.266 -0.4243  1.5575 -1.6904
  110OSM   H17T11362   4.519   5.219   9.214 -1.5949  0.1795  2.8914
  110OSM   C18S11363   4.493   5.377   9.064  0.2009 -1.0685  0.7818
  110OSM   H18S11364   4.418   5.315   9.010  0.0744  3.0537 -4.1720
  110OSM   H18T11365   4.588   5.356   9.011  0.3354  0.9440  0.2061
  110OSM   H18U11366   4.456   5.481   9.051  2.7832 -0.2727 -0.5443
  110OSM    C1F11367   5.005   4.822  10.674 -0.3792  0.5101  0.6133
  110OSM     OF11368   4.938   4.719  10.696  0.0793 -0.0665  0.8791
  110OSM    C2F11369   5.135   4.817  10.596 -0.3352 -0.0766  0.3799
  110OSM    H2F11370   5.210   4.763  10.659  1.0689  0.5773 -0.6928
  110OSM    H2G11371   5.177   4.918  10.575  1.8794 -1.3415 -1.6209
  110OSM    C3F11372   5.096   4.735  10.470  0.5224 -0.6420  0.2730
  110OSM    H3F11373   5.049   4.636  10.488 -0.8658  0.1473  1.0830
  110OSM    H3G11374   5.186   4.712  10.410  0.4793 -0.5171  0.1586
  110OSM    C4F11375   5.004   4.822  10.376  0.4022 -0.0583 -0.6617
  110OSM    H4F11376   5.055   4.919  10.357  1.9221 -0.5941  0.5500
  110OSM    H4G11377   4.907   4.846  10.423  0.9506  0.5202  0.1983
  110OSM    C5F11378   4.976   4.750  10.239 -0.0688  0.2887  0.4531
  110OSM    H5F11379   4.942   4.648  10.268  0.7582 -0.5469 -1.4714
  110OSM    H5G11380   5.066   4.741  10.174  0.9778  0.4684  1.8369
  110OSM    C6F11381   4.865   4.818  10.156 -0.6224  0.0993  0.4025
  110OSM    H6F11382   4.901   4.920  10.131 -1.1902  0.2007 -0.0050
  110OSM    H6G11383   4.774   4.823  10.219  0.7488 -1.6299  2.5947
  110OSM    C7F11384   4.826   4.740  10.033 -0.6687  0.0618 -0.2088
  110OSM    H7F11385   4.813   4.636  10.069 -3.1684 -0.3508 -2.2182
  110OSM    H7G11386   4.912   4.730   9.963 -0.2969 -1.0415  0.3875
  110OSM    C8F11387   4.703   4.775   9.946 -0.4464 -0.4620  0.9248
  110OSM    H8F11388   4.625   4.790  10.023 -0.5292  1.0360  0.5519
  110OSM    H8G11389   4.673   4.687   9.885  2.2650  0.2672 -1.5850
  110OSM    C9F11390   4.722   4.900   9.864  0.2581  0.1428 -0.1500
  110OSM    H9F11391   4.713   4.992   9.924  1.7101 -0.1491  0.5332
  110OSM   C10F11392   4.754   4.913   9.729 -0.7951 -1.3344 -0.3352
  110OSM   H10F11393   4.776   5.013   9.689 -1.1480 -1.5329 -1.0465
  110OSM   C11F11394   4.763   4.801   9.634 -0.4847 -0.0475  0.5153
  110OSM   H11F11395   4.735   4.700   9.671 -2.8559  0.2398 -0.4459
  110OSM   H11G11396   4.864   4.791   9.588  0.2044  1.1205  1.7207
  110OSM   C12F11397   4.669   4.839   9.514 -0.4358  0.7412  0.5347
  110OSM   H12F11398   4.580   4.890   9.555 -2.5904 -1.9817 -0.6426
  110OSM   H12G11399   4.643   4.741   9.469  1.7011  0.0949  0.6405
  110OSM   C13F11400   4.737   4.943   9.420  0.2849  0.1524  0.3501
  110OSM   H13F11401   4.842   4.917   9.398 -0.2899 -1.6343 -0.4206
  110OSM   H13G11402   4.731   5.047   9.458 -1.0729  0.1553  0.1595
  110OSM   C14F11403   4.670   4.934   9.278  0.4712 -0.1754 -0.0243
  110OSM   H14F11404   4.579   4.998   9.272  1.3460  1.0416 -0.6897
  110OSM   H14G11405   4.636   4.830   9.264 -1.4386  0.2680  1.1451
  110OSM   C15F11406   4.765   4.981   9.171  0.3454 -0.2092 -0.1094
  110OSM   H15F11407   4.853   4.914   9.155 -0.7333 -1.6251 -0.1573
  110OSM   H15G11408   4.804   5.083   9.192  0.5838 -0.5168  0.9734
  110OSM   C16F11409   4.678   4.976   9.035  0.3883 -1.0276 -0.9372
  110OSM   H16F11410   4.577   5.023   9.041 -0.8089 -3.3978 -1.7965
  110OSM   H16G11411   4.660   4.871   9.001  2.0385 -1.2454 -1.1635
  110OSM   C17F11412   4.763   5.046   8.927  0.5486 -0.7677  0.8787
  110OSM   H17F11413   4.842   4.975   8.893  0.7158  0.4421 -1.3541
  110OSM   H17G11414   4.825   5.132   8.962 -0.2004  0.6869 -1.2505
  110OSM   C18F11415   4.676   5.082   8.800  0.2181  0.0504 -0.0105
  110OSM   H18F11416   4.633   5.182   8.820 -0.7977 -0.5472  0.8367
  110OSM   H18G11417   4.594   5.009   8.780  1.1002 -0.6413 -1.1312
  110OSM   H18H11418   4.734   5.101   8.707  1.7755  1.3791  1.2224
  111OSM      N11419   5.017   2.480  10.778 -0.1663  0.3141  0.2050
  111OSM    C1511420   4.933   2.377  10.845  0.1581 -0.3884 -0.1191
  111OSM   H15A11421   4.840   2.377  10.791 -0.4761 -1.6324  0.9467
  111OSM   H15B11422   4.913   2.404  10.948  1.4618 -1.3853  0.4137
  111OSM   H15C11423   4.975   2.279  10.830  0.5854 -0.2278  0.0058
  111OSM    C1411424   5.117   2.539  10.874  0.3224 -0.1351 -0.2262
  111OSM   H14A11425   5.059   2.576  10.958 -0.2025 -1.1962 -0.1026
  111OSM   H14B11426   5.170   2.618  10.823 -1.2080  1.1045  0.0637
  111OSM   H14C11427   5.176   2.462  10.923 -2.3479 -1.1837  1.4852
  111OSM    C1311428   5.092   2.417  10.669  1.0189  0.6269  0.0726
  111OSM   H13A11429   5.173   2.481  10.638 -0.1347  1.4908 -1.2041
  111OSM   H13B11430   5.028   2.391  10.587  1.8034  1.5322 -0.8305
  111OSM   H13C11431   5.141   2.325  10.701 -1.2213 -0.7389 -0.2998
  111OSM    C1211432   4.919   2.583  10.720  0.1800  0.0049  0.5203
  111OSM   H12A11433   4.850   2.609  10.799  0.7505  0.2886  0.9369
  111OSM   H12B11434   4.853   2.531  10.653  1.0771 -1.1947  0.5548
  111OSM    C1111435   4.982   2.710  10.656 -0.0829  0.1255 -1.1867
  111OSM   H11A11436   4.890   2.761  10.622 -1.5498 -0.9042  1.1032
  111OSM   H11B11437   5.041   2.685  10.565 -0.4478 -1.7022 -0.9449
  111OSM      P11438   5.176   2.877  10.737 -0.3036  0.3158 -0.1570
  111OSM    O1311439   5.155   2.999  10.819  0.1499  0.3089  0.2864
  111OSM    O1411440   5.304   2.811  10.771 -0.0447 -0.3859  0.8956
  111OSM    O1111441   5.180   2.913  10.585  0.6488  0.5152  0.1451
  111OSM    O1211442   5.054   2.784  10.760 -0.2517 -0.4834 -0.0832
  111OSM    C1S11443   5.085   3.008  10.535  0.2810  0.5249  0.4418
  111OSM    H1S11444   5.099   3.103  10.592  0.3198 -0.7093  2.5569
  111OSM    H1T11445   4.980   2.973  10.545  0.7200 -0.7772  0.4711
  111OSM     NF11446   5.060   3.164  10.345 -0.4072 -0.3874  0.3847
  111OSM    HNF11447   4.962   3.174  10.364  0.3124  2.0114  2.9976
  111OSM    C2S11448   5.119   3.045  10.387  0.3822  0.9474 -0.8776
  111OSM    H2S11449   5.228   3.066  10.380  0.9580 -1.4275  0.4144
  111OSM    C3S11450   5.079   2.935  10.290 -0.2232 -0.2922  0.2081
  111OSM    H3S11451   4.977   2.899  10.314  0.5450 -2.3098  0.5064
  111OSM     O311452   5.159   2.814  10.302  0.2359 -0.0347  0.4041
  111OSM    HO311453   5.217   2.826  10.378 -1.0956 -0.5539  1.5321
  111OSM    C4S11454   5.075   2.979  10.143  0.1321  0.2392 -0.3420
  111OSM    H4S11455   4.973   2.999  10.108 -0.2879 -1.3631 -0.1121
  111OSM    C5S11456   5.166   2.965  10.046 -0.3356 -0.5303 -0.3970
  111OSM    H5S11457   5.261   2.919  10.076 -0.5703  0.2147  1.5615
  111OSM    C6S11458   5.139   3.003   9.900  0.3932 -0.8032 -0.3919
  111OSM    H6S11459   5.232   3.038   9.850 -2.2438  0.3739 -4.7265
  111OSM    H6T11460   5.071   3.090   9.888  0.3516 -0.6943  0.5821
  111OSM    C7S11461   5.082   2.884   9.817  0.1951 -0.1059 -0.9855
  111OSM    H7S11462   4.989   2.851   9.868 -0.1754  0.5253 -1.2452
  111OSM    H7T11463   5.159   2.805   9.829 -0.2852 -0.3059  1.0954
  111OSM    C8S11464   5.056   2.914   9.669 -0.4557 -0.4470 -0.2634
  111OSM    H8S11465   5.053   2.811   9.628  0.1818 -1.6018  2.4684
  111OSM    H8T11466   5.136   2.970   9.616 -0.0417 -1.4352 -0.7102
  111OSM    C9S11467   4.925   2.987   9.644  0.5573 -0.8855  0.1842
  111OSM    H9S11468   4.941   3.091   9.679 -0.6051 -1.6240  3.0400
  111OSM    H9T11469   4.843   2.954   9.712  0.1693  1.6746  1.0226
  111OSM   C10S11470   4.884   2.975   9.495 -0.0357  0.6316 -0.7807
  111OSM   H10S11471   4.862   2.867   9.482 -2.1459  0.9643 -0.2700
  111OSM   H10T11472   4.973   3.005   9.436 -0.5567 -0.2846 -2.0644
  111OSM   C11S11473   4.757   3.068   9.467 -0.5656 -0.6483 -0.1100
  111OSM   H11S11474   4.797   3.172   9.473 -1.3842 -0.4041  1.3965
  111OSM   H11T11475   4.697   3.038   9.556 -1.6290  0.6808 -0.3597
  111OSM   C12S11476   4.698   3.056   9.326  0.6475 -0.5281 -0.0774
  111OSM   H12S11477   4.778   3.082   9.254  3.2100  0.3859  3.0051
  111OSM   H12T11478   4.614   3.128   9.319  0.4692 -0.6633  0.6495
  111OSM   C13S11479   4.634   2.917   9.290 -0.0074 -0.6544  0.1532
  111OSM   H13S11480   4.543   2.904   9.352 -0.1495 -0.2911  0.0236
  111OSM   H13T11481   4.704   2.835   9.315 -0.2613 -0.4212  1.6695
  111OSM   C14S11482   4.610   2.902   9.139  0.6108  0.6771  0.2372
  111OSM   H14S11483   4.576   2.799   9.115  1.3749  0.8525 -1.6783
  111OSM   H14T11484   4.703   2.935   9.088  0.2487 -1.5814 -1.9979
  111OSM   C15S11485   4.501   2.995   9.094 -0.0121 -0.3891 -0.4548
  111OSM   H15S11486   4.514   3.105   9.103 -0.9930 -0.3688  0.9016
  111OSM   H15T11487   4.413   2.980   9.160  0.0231 -3.1547 -0.9934
  111OSM   C16S11488   4.440   2.955   8.958 -0.0093  0.1772 -0.1902
  111OSM   H16S11489   4.329   2.962   8.960 -0.0855 -0.3412 -1.9759
  111OSM   H16T11490   4.472   2.849   8.944 -1.3853 -0.3524  0.5084
  111OSM   C17S11491   4.497   3.044   8.847  0.3354 -0.5200 -0.5902
  111OSM   H17S11492   4.460   2.997   8.753  0.3002 -1.6123 -0.0464
  111OSM   H17T11493   4.608   3.041   8.849  0.2945 -3.4301  1.0536
  111OSM   C18S11494   4.451   3.188   8.843 -0.6302  0.3751  0.1640
  111OSM   H18S11495   4.344   3.189   8.871 -1.0629 -0.3143 -1.4104
  111OSM   H18T11496   4.476   3.235   8.746  1.7354 -0.9857  0.0509
  111OSM   H18U11497   4.515   3.244   8.914  1.5143 -2.2970  0.4280
  111OSM    C1F11498   5.117   3.285  10.350 -1.0524  0.5998 -0.1983
  111OSM     OF11499   5.231   3.295  10.397  0.2747 -0.2909  0.7064
  111OSM    C2F11500   5.035   3.404  10.319  0.1169 -0.0947 -0.4296
  111OSM    H2F11501   5.036   3.459  10.416 -1.1518 -0.5977 -0.1289
  111OSM    H2G11502   4.932   3.368  10.298 -0.7444  2.2221 -0.3282
  111OSM    C3F11503   5.093   3.498  10.207  0.0673 -0.1975  0.3118
  111OSM    H3F11504   5.196   3.531  10.234  0.7270 -2.6289  0.9245
  111OSM    H3G11505   5.027   3.586  10.191 -0.1921 -0.5733 -0.6900
  111OSM    C4F11506   5.104   3.408  10.077  0.2662 -0.0992  0.3433
  111OSM    H4F11507   5.019   3.339  10.060  1.2870 -1.1584 -0.6031
  111OSM    H4G11508   5.182   3.333  10.104 -0.6907 -0.8245  1.0899
  111OSM    C5F11509   5.145   3.491   9.953 -0.1830 -0.5681 -0.2054
  111OSM    H5F11510   5.245   3.537   9.968 -0.8181  1.2790 -1.4358
  111OSM    H5G11511   5.085   3.584   9.943  2.8704  1.5081  0.2228
  111OSM    C6F11512   5.136   3.420   9.820  0.8165 -0.1684 -0.0909
  111OSM    H6F11513   5.032   3.384   9.806  0.7429 -0.4040  1.0234
  111OSM    H6G11514   5.215   3.342   9.821  0.3389 -0.6439  0.2452
  111OSM    C7F11515   5.173   3.517   9.702 -0.4662 -0.4651  0.4057
  111OSM    H7F11516   5.269   3.568   9.723 -1.1916  2.0933 -2.2170
  111OSM    H7G11517   5.093   3.594   9.696 -1.4685 -1.6206 -1.7399
  111OSM    C8F11518   5.215   3.434   9.577  0.0496 -0.2009  0.2510
  111OSM    H8F11519   5.296   3.371   9.621  0.3169 -0.4022 -0.5280
  111OSM    H8G11520   5.258   3.501   9.500 -0.0949 -0.7092 -0.2774
  111OSM    C9F11521   5.103   3.356   9.529  0.3464  0.4217  0.6907
  111OSM    H9F11522   5.010   3.373   9.585  1.6587  0.6233  2.8765
  111OSM   C10F11523   5.105   3.279   9.422 -0.7048  0.3907 -0.0093
  111OSM   H10F11524   5.019   3.213   9.404  0.6601 -1.6330  0.6986
  111OSM   C11F11525   5.231   3.254   9.337  0.2239  0.0921  0.2543
  111OSM   H11F11526   5.334   3.277   9.372  1.4128  1.2774 -3.8356
  111OSM   H11G11527   5.217   3.309   9.242 -0.6669 -0.5364  0.0201
  111OSM   C12F11528   5.232   3.108   9.293 -0.8240  0.1087  0.1990
  111OSM   H12F11529   5.207   3.033   9.369  2.0586 -0.9872  0.1365
  111OSM   H12G11530   5.335   3.098   9.253 -1.6769  2.0560 -2.7209
  111OSM   C13F11531   5.126   3.076   9.190  0.2424 -0.4044 -0.2799
  111OSM   H13F11532   5.161   3.136   9.103 -1.2106  1.0647  0.1207
  111OSM   H13G11533   5.024   3.112   9.212 -0.2950 -2.2716  0.3743
  111OSM   C14F11534   5.121   2.924   9.148  0.0123 -0.1849  0.2143
  111OSM   H14F11535   5.054   2.878   9.225  0.1320 -1.8073 -0.6422
  111OSM   H14G11536   5.215   2.866   9.153 -0.0045 -0.1872  0.5442
  111OSM   C15F11537   5.037   2.908   9.013  0.6870 -0.1975  0.3444
  111OSM   H15F11538   5.103   2.951   8.934  2.0666 -2.9339 -0.0466
  111OSM   H15G11539   4.939   2.961   9.015  1.6249  1.6321 -0.7899
  111OSM   C16F11540   5.015   2.760   8.968  0.6097  1.1487 -0.1656
  111OSM   H16F11541   4.945   2.760   8.882  0.6372  4.1512 -0.2550
  111OSM   H16G11542   4.976   2.710   9.059 -1.0436 -0.9961 -2.0013
  111OSM   C17F11543   5.141   2.681   8.928 -0.6197  0.0794 -0.1374
  111OSM   H17F11544   5.108   2.575   8.924 -1.4512  0.1750  2.6146
  111OSM   H17G11545   5.209   2.688   9.016 -1.5150 -0.5101  0.6106
  111OSM   C18F11546   5.198   2.718   8.796 -0.0036 -0.1702 -0.5622
  111OSM   H18F11547   5.281   2.649   8.770 -0.0049 -0.6696  0.7212
  111OSM   H18G11548   5.229   2.823   8.811  1.5446 -0.8659  1.4387
  111OSM   H18H11549   5.117   2.713   8.721  0.2921 -2.9346 -0.7748
  112OSM      N11550   5.700   0.982  10.711  0.3275 -0.1179 -0.4894
  112OSM    C1511551   5.723   1.004  10.854  0.1368  0.0793  0.1798
  112OSM   H15A11552   5.709   0.910  10.906 -0.8173 -1.0859 -2.0616
  112OSM   H15B11553   5.657   1.084  10.884 -0.6653 -0.1530 -0.9284
  112OSM   H15C11554   5.824   1.039  10.866 -0.2387  1.4819 -0.6785
  112OSM    C1411555   5.760   1.091  10.633 -0.1815 -0.0721  0.2655
  112OSM   H14A11556   5.717   1.190  10.641 -2.8481 -1.0902 -1.1080
  112OSM   H14B11557   5.766   1.067  10.528  1.6338  1.1284  0.0674
  112OSM   H14C11558   5.864   1.101  10.661  0.3116 -1.1838 -1.0890
  112OSM    C1311559   5.768   0.857  10.663  0.1296  0.2827  0.5426
  112OSM   H13A11560   5.713   0.774  10.705  1.3608 -0.1597  1.2786
  112OSM   H13B11561   5.870   0.860  10.696  0.9737  2.1940 -2.0921
  112OSM   H13C11562   5.769   0.832  10.558 -2.8297 -0.1752  0.5691
  112OSM    C1211563   5.546   0.979  10.681 -0.3196 -0.5348  1.2045
  112OSM   H12A11564   5.542   0.962  10.574  0.9633 -0.7467  1.1793
  112OSM   H12B11565   5.516   1.081  10.694 -2.3341 -0.4507 -3.1032
  112OSM    C1111566   5.461   0.875  10.753  0.3326 -0.1537  0.5406
  112OSM   H11A11567   5.352   0.886  10.735  0.2021  0.6849  1.8311
  112OSM   H11B11568   5.469   0.895  10.861  1.9248  2.3599 -0.0001
  112OSM      P11569   5.523   0.617  10.799  0.3271 -0.2473  0.1480
  112OSM    O1311570   5.658   0.615  10.846 -0.0237 -0.3139 -0.4021
  112OSM    O1411571   5.418   0.594  10.903 -0.9751 -0.2320  0.6432
  112OSM    O1111572   5.508   0.503  10.700  0.3932 -0.1746 -0.1014
  112OSM    O1211573   5.502   0.747  10.710  0.6718  0.8162 -0.1398
  112OSM    C1S11574   5.378   0.459  10.651  0.0415  1.0519  0.9392
  112OSM    H1S11575   5.297   0.533  10.670 -2.1513 -0.7090 -1.1749
  112OSM    H1T11576   5.361   0.359  10.695 -0.4248  0.9650  0.5667
  112OSM     NF11577   5.244   0.392  10.451  1.1647 -0.4027 -0.7290
  112OSM    HNF11578   5.224   0.296  10.433 -0.6512 -0.3805  0.9013
  112OSM    C2S11579   5.373   0.432  10.497  0.5497  0.2435  0.2539
  112OSM    H2S11580   5.391   0.533  10.454 -3.2160  0.5719 -0.7193
  112OSM    C3S11581   5.490   0.336  10.451  0.3725  0.2630 -0.3439
  112OSM    H3S11582   5.476   0.237  10.499  0.4473  0.5160  0.2061
  112OSM     O311583   5.618   0.393  10.482  0.1956 -0.0395 -1.0090
  112OSM    HO311584   5.603   0.454  10.555  0.7744 -1.2893  0.1850
  112OSM    C4S11585   5.487   0.328  10.302  0.5270 -0.1064  0.1497
  112OSM    H4S11586   5.506   0.425  10.255 -2.1457 -1.1227 -3.2360
  112OSM    C5S11587   5.458   0.220  10.227 -0.3778  0.5468 -0.1894
  112OSM    H5S11588   5.431   0.123  10.272  2.3544  1.3710  3.4095
  112OSM    C6S11589   5.447   0.210  10.075  0.0550 -0.0901 -0.6517
  112OSM    H6S11590   5.489   0.115  10.035 -2.1250 -1.6254  0.5433
  112OSM    H6T11591   5.517   0.286  10.035  0.4206  0.9211  1.7925
  112OSM    C7S11592   5.310   0.228   9.998  0.4229  0.4388  0.1826
  112OSM    H7S11593   5.259   0.324  10.022 -0.5879  0.2964 -1.3181
  112OSM    H7T11594   5.239   0.143  10.000 -0.4805  1.0722 -2.6146
  112OSM    C8S11595   5.329   0.251   9.845 -0.0794  0.0816  0.4230
  112OSM    H8S11596   5.416   0.307   9.803 -1.3967 -0.4107 -3.1424
  112OSM    H8T11597   5.233   0.298   9.815 -0.8087 -1.7412 -0.1356
  112OSM    C9S11598   5.337   0.115   9.772 -0.0920 -0.5078  0.2065
  112OSM    H9S11599   5.251   0.068   9.824 -1.0674  0.0328 -0.9208
  112OSM    H9T11600   5.434   0.066   9.796  1.5942  1.9050 -1.5053
  112OSM   C10S11601   5.300   0.131   9.626  0.2324 -0.5069 -0.1620
  112OSM   H10S11602   5.354   0.216   9.579 -0.9104 -0.4435 -1.4105
  112OSM   H10T11603   5.194   0.164   9.613  0.4039  0.4391  0.8067
  112OSM   C11S11604   5.320   0.003   9.534  0.2166  0.6784  0.1438
  112OSM   H11S11605   5.257  -0.069   9.590 -0.4790  0.0126 -1.4614
  112OSM   H11T11606   5.430  -0.009   9.534 -0.0163 -1.5806  0.7782
  112OSM   C12S11607   5.261   0.014   9.390  0.2074 -0.3906  0.1497
  112OSM   H12S11608   5.164   0.070   9.390  1.6788  2.2728  0.0519
  112OSM   H12T11609   5.242  -0.090   9.356  0.8244 -0.8340  1.1562
  112OSM   C13S11610   5.361   0.081   9.295 -0.7444  0.1135  0.9601
  112OSM   H13S11611   5.458   0.026   9.296 -0.8216 -0.0142  2.5759
  112OSM   H13T11612   5.392   0.180   9.335 -0.8761 -0.3239  2.1816
  112OSM   C14S11613   5.298   0.088   9.149 -0.0550  0.2057  0.9302
  112OSM   H14S11614   5.192   0.120   9.160 -1.0070 -2.5183  0.0297
  112OSM   H14T11615   5.292  -0.017   9.115 -1.5338  0.6303 -0.1728
  112OSM   C15S11616   5.381   0.169   9.050 -0.7070  0.3198 -1.0639
  112OSM   H15S11617   5.480   0.120   9.051 -1.4760 -1.2815 -1.6020
  112OSM   H15T11618   5.388   0.277   9.077 -0.1833 -0.5878  2.8041
  112OSM   C16S11619   5.339   0.173   8.905  0.1687  0.5266  0.6292
  112OSM   H16S11620   5.233   0.201   8.892  0.0941  0.8116  1.7530
  112OSM   H16T11621   5.364   0.075   8.859 -3.1277  0.4633 -1.1586
  112OSM   C17S11622   5.425   0.266   8.818  0.3592  0.2187  0.0053
  112OSM   H17S11623   5.528   0.225   8.823  0.3399 -0.0844 -1.7280
  112OSM   H17T11624   5.427   0.371   8.854  0.9158  0.2562 -0.1302
  112OSM   C18S11625   5.377   0.264   8.671  0.0522 -0.2826 -0.1726
  112OSM   H18S11626   5.353   0.158   8.645 -1.2950  0.5418 -2.4039
  112OSM   H18T11627   5.449   0.301   8.595  0.5112 -2.3517 -0.7711
  112OSM   H18U11628   5.284   0.322   8.654  0.4257 -0.0543 -1.4578
  112OSM    C1F11629   5.130   0.467  10.450  0.3889  0.0095 -0.0274
  112OSM     OF11630   5.143   0.590  10.473 -0.2846 -0.2107  0.2197
  112OSM    C2F11631   4.995   0.403  10.415  0.4222 -0.4942  0.1642
  112OSM    H2F11632   4.920   0.475  10.454 -0.0767 -1.9242  1.9820
  112OSM    H2G11633   4.980   0.320  10.488  1.7236 -0.7716  0.1267
  112OSM    C3F11634   4.978   0.378  10.265 -0.0520 -0.1364  0.5145
  112OSM    H3F11635   5.062   0.314  10.231 -2.1023 -1.2194 -2.7778
  112OSM    H3G11636   4.993   0.478  10.218 -4.2209  1.5167  2.4101
  112OSM    C4F11637   4.848   0.303  10.233 -0.6792  0.1147 -0.2877
  112OSM    H4F11638   4.771   0.377  10.264  1.0632  3.0143 -2.7053
  112OSM    H4G11639   4.841   0.213  10.298 -2.3328  0.5219  0.1416
  112OSM    C5F11640   4.836   0.258  10.089  0.3895 -0.2886 -0.3439
  112OSM    H5F11641   4.744   0.197  10.084 -0.3283  0.6215  1.3497
  112OSM    H5G11642   4.919   0.191  10.059 -0.4620 -1.0693 -0.9790
  112OSM    C6F11643   4.833   0.374   9.987  0.1973  0.0155  0.7302
  112OSM    H6F11644   4.933   0.386   9.941 -1.3217  1.1819 -2.4774
  112OSM    H6G11645   4.799   0.464  10.041 -1.5493 -0.2836  0.1669
  112OSM    C7F11646   4.736   0.347   9.871  0.0601 -0.2968  0.0283
  112OSM    H7F11647   4.703   0.439   9.820 -1.0826 -1.4533 -1.3669
  112OSM    H7G11648   4.644   0.305   9.916  0.9277  0.5844  2.7111
  112OSM    C8F11649   4.781   0.251   9.766  0.0161  0.1778  0.1016
  112OSM    H8F11650   4.806   0.154   9.815 -2.6361 -0.0792  1.0682
  112OSM    H8G11651   4.870   0.302   9.724  0.3037  1.6285  2.3756
  112OSM    C9F11652   4.673   0.223   9.663 -0.1938 -0.3242 -0.5903
  112OSM    H9F11653   4.583   0.173   9.703 -0.2460  0.5527  0.4256
  112OSM   C10F11654   4.676   0.252   9.531 -0.0254  0.3224 -0.3224
  112OSM   H10F11655   4.588   0.236   9.468  1.0622  2.3618 -2.4400
  112OSM   C11F11656   4.794   0.311   9.464 -0.1512 -0.1077  0.0487
  112OSM   H11F11657   4.876   0.247   9.503  1.5314  1.8322 -0.2483
  112OSM   H11G11658   4.817   0.414   9.499 -0.6366 -0.7753  2.4006
  112OSM   C12F11659   4.776   0.303   9.308  0.2316 -0.1013  0.3071
  112OSM   H12F11660   4.699   0.382   9.297  0.1744  0.3321  3.4599
  112OSM   H12G11661   4.738   0.203   9.277  0.2865  0.2045 -0.7768
  112OSM   C13F11662   4.915   0.325   9.235  0.1939  0.1731 -0.1698
  112OSM   H13F11663   4.975   0.238   9.268  0.3686  0.8739  1.4132
  112OSM   H13G11664   4.963   0.418   9.273  1.9176 -0.5427 -0.5308
  112OSM   C14F11665   4.902   0.303   9.080 -0.2519 -0.5647 -0.4231
  112OSM   H14F11666   4.842   0.214   9.050 -0.0007 -0.1123 -2.3841
  112OSM   H14G11667   5.006   0.276   9.049 -0.5269 -0.6514 -1.2799
  112OSM   C15F11668   4.856   0.423   9.002 -0.1082  0.0631  0.0783
  112OSM   H15F11669   4.926   0.507   9.023  1.0199 -0.6880 -0.6467
  112OSM   H15G11670   4.759   0.455   9.046 -0.1670 -0.5345  0.3861
  112OSM   C16F11671   4.849   0.417   8.850 -0.2856  0.2295 -0.0242
  112OSM   H16F11672   4.784   0.333   8.818  0.3401 -0.2445 -0.0487
  112OSM   H16G11673   4.949   0.399   8.805  0.2930 -1.5883  1.9167
  112OSM   C17F11674   4.791   0.546   8.791  0.3276 -0.1661  0.0046
  112OSM   H17F11675   4.856   0.633   8.814  0.3372 -0.1000 -0.2682
  112OSM   H17G11676   4.701   0.556   8.856 -0.3077 -1.2722 -0.6904
  112OSM   C18F11677   4.764   0.550   8.642 -0.4859  0.3344 -0.1979
  112OSM   H18F11678   4.733   0.447   8.613 -0.3578  0.0493  0.6849
  112OSM   H18G11679   4.860   0.564   8.589  0.1562 -0.0524  0.8579
  112OSM   H18H11680   4.681   0.619   8.613  0.2682  1.5128  0.3940
  113OSM      N11681   5.254   6.733  11.117  0.6045  0.0149 -0.3350
  113OSM    C1511682   5.326   6.630  11.038 -0.6706  0.1398 -0.3155
  113OSM   H15A11683   5.425   6.614  11.077 -0.5454  0.2405 -0.5966
  113OSM   H15B11684   5.344   6.672  10.940 -1.9035  0.7539 -0.2926
  113OSM   H15C11685   5.269   6.538  11.033  2.0473 -1.5765 -0.7164
  113OSM    C1411686   5.114   6.740  11.075  0.0210 -0.0836  0.0304
  113OSM   H14A11687   5.051   6.781  11.152 -0.7230 -0.7029 -0.2408
  113OSM   H14B11688   5.078   6.638  11.065 -0.0315 -0.2537  1.7290
  113OSM   H14C11689   5.113   6.789  10.979  0.0975 -2.4451 -1.2287
  113OSM    C1311690   5.243   6.689  11.258 -0.3902 -0.3413 -0.0794
  113OSM   H13A11691   5.184   6.598  11.263  0.1482 -0.7218 -0.5177
  113OSM   H13B11692   5.196   6.768  11.314  0.2129 -2.3781  3.4621
  113OSM   H13C11693   5.335   6.672  11.311 -1.0191  2.8753  2.1840
  113OSM    C1211694   5.323   6.867  11.101 -0.1013 -0.6505 -0.2912
  113OSM   H12A11695   5.267   6.950  11.142  1.6703  1.2564 -1.5854
  113OSM   H12B11696   5.325   6.887  10.995 -0.9660  0.7257 -0.0583
  113OSM    C1111697   5.464   6.891  11.145  0.3370 -0.4460  0.1277
  113OSM   H11A11698   5.485   6.843  11.243  0.3299 -0.2947  0.2034
  113OSM   H11B11699   5.490   6.999  11.146 -0.3576 -0.2438  3.9835
  113OSM      P11700   5.602   6.918  10.929 -0.3263 -0.3871  0.2373
  113OSM    O1311701   5.486   6.966  10.848  0.4637 -0.2732  0.3496
  113OSM    O1411702   5.702   7.022  10.971  0.0029 -0.0450 -0.6506
  113OSM    O1111703   5.684   6.820  10.840 -0.1260 -0.2721  0.0108
  113OSM    O1211704   5.554   6.835  11.057  0.1338 -0.5412  0.5118
  113OSM    C1S11705   5.626   6.728  10.746 -0.3186  0.1615  0.5902
  113OSM    H1S11706   5.515   6.730  10.755 -0.2896 -2.3807  2.0133
  113OSM    H1T11707   5.662   6.624  10.763  1.2498  0.4567 -0.7690
  113OSM     NF11708   5.586   6.681  10.510  0.0855  0.0198 -0.0440
  113OSM    HNF11709   5.646   6.619  10.459 -0.8537  0.1870 -1.3464
  113OSM    C2S11710   5.650   6.776  10.598  0.7542  0.0865  0.0608
  113OSM    H2S11711   5.602   6.872  10.570 -1.3341 -1.2448 -1.0986
  113OSM    C3S11712   5.798   6.789  10.567  0.1580  0.0415 -0.0476
  113OSM    H3S11713   5.839   6.687  10.585  0.3083 -0.0104 -0.6696
  113OSM     O311714   5.868   6.875  10.661 -0.2550 -0.1886  0.1367
  113OSM    HO311715   5.808   6.892  10.734 -0.3893  0.0778 -0.0346
  113OSM    C4S11716   5.826   6.819  10.418  0.7592  0.1506 -0.4335
  113OSM    H4S11717   5.849   6.735  10.352  0.6500  0.7466 -1.2407
  113OSM    C5S11718   5.831   6.937  10.366  0.1022  0.5312  0.6079
  113OSM    H5S11719   5.810   7.019  10.436  0.4657  1.3870 -0.2797
  113OSM    C6S11720   5.860   6.971  10.218 -0.3946  0.2431 -0.0548
  113OSM    H6S11721   5.968   6.975  10.191 -0.4458 -0.8148 -0.4330
  113OSM    H6T11722   5.822   7.074  10.201 -0.7204 -0.2953 -2.7650
  113OSM    C7S11723   5.793   6.875  10.118  0.1866 -0.5372 -0.6409
  113OSM    H7S11724   5.685   6.875  10.145  0.3994  2.7642  0.4074
  113OSM    H7T11725   5.831   6.772  10.132 -1.1662 -0.7760  1.4405
  113OSM    C8S11726   5.802   6.908   9.973 -0.2865 -0.4364 -0.5505
  113OSM    H8S11727   5.908   6.928   9.947 -1.0871  1.2719 -2.6037
  113OSM    H8T11728   5.740   6.999   9.959 -0.7874 -0.2609  2.4869
  113OSM    C9S11729   5.762   6.785   9.890 -0.0498  0.4485 -0.2082
  113OSM    H9S11730   5.656   6.752   9.901  0.2133 -0.8231 -1.2999
  113OSM    H9T11731   5.817   6.694   9.921 -0.3731 -0.0422 -1.0386
  113OSM   C10S11732   5.797   6.812   9.739 -0.4075  0.2737  0.5762
  113OSM   H10S11733   5.907   6.801   9.730 -0.2890  2.9589 -1.8971
  113OSM   H10T11734   5.767   6.910   9.697  0.2729  1.3053  2.4499
  113OSM   C11S11735   5.726   6.696   9.657  0.5780  0.0989 -0.1339
  113OSM   H11S11736   5.620   6.727   9.654  0.8433  0.9415 -1.7848
  113OSM   H11T11737   5.723   6.608   9.724 -0.5367 -0.1339 -0.4911
  113OSM   C12S11738   5.796   6.665   9.523  0.2382  0.0197 -0.1305
  113OSM   H12S11739   5.758   6.581   9.462  3.4929 -0.5574 -1.4618
  113OSM   H12T11740   5.898   6.624   9.538 -1.5102 -4.6726 -0.2779
  113OSM   C13S11741   5.772   6.784   9.426  0.4696 -1.1928  0.7960
  113OSM   H13S11742   5.844   6.862   9.459  0.1620 -1.5190  2.2593
  113OSM   H13T11743   5.668   6.823   9.418  1.2931  0.3903 -3.1632
  113OSM   C14S11744   5.805   6.747   9.277 -0.3873  0.1716 -0.1785
  113OSM   H14S11745   5.723   6.683   9.237  0.0111  0.8605 -2.1801
  113OSM   H14T11746   5.901   6.692   9.268  1.3097  2.9302  0.8422
  113OSM   C15S11747   5.797   6.878   9.189 -0.7007  0.2095 -0.6703
  113OSM   H15S11748   5.870   6.951   9.229 -2.0632  1.0106  0.3783
  113OSM   H15T11749   5.692   6.913   9.188 -0.7837  0.0012 -3.1271
  113OSM   C16S11750   5.842   6.852   9.045  0.0709  0.0892  0.0530
  113OSM   H16S11751   5.775   6.769   9.015  0.0734 -0.0909  0.5376
  113OSM   H16T11752   5.945   6.812   9.038  0.3657  1.0192 -0.9963
  113OSM   C17S11753   5.818   6.980   8.962  0.5290  0.1349 -0.3561
  113OSM   H17S11754   5.901   7.052   8.976  1.2947 -0.3937 -2.0263
  113OSM   H17T11755   5.722   7.023   8.998 -0.7166 -1.5329 -1.5786
  113OSM   C18S11756   5.822   6.952   8.808  0.3839 -0.1340 -0.3604
  113OSM   H18S11757   5.754   6.867   8.784  0.4857 -0.3129 -0.0159
  113OSM   H18T11758   5.928   6.919   8.802  0.4544 -0.4043  1.9813
  113OSM   H18U11759   5.797   7.043   8.749  0.6911  0.5154  0.5059
  113OSM    C1F11760   5.451   6.665  10.503 -0.0047  0.4092  0.0084
  113OSM     OF11761   5.366   6.729  10.564 -0.3620 -0.1432 -0.2423
  113OSM    C2F11762   5.405   6.544  10.420  0.5032  0.9591  0.5938
  113OSM    H2F11763   5.294   6.555  10.417  0.7445  3.2144 -2.7862
  113OSM    H2G11764   5.443   6.450  10.465  2.2533  1.4991  0.2815
  113OSM    C3F11765   5.460   6.568  10.280  0.0719 -0.4183 -0.2385
  113OSM    H3F11766   5.567   6.538  10.275  0.7723  1.8036  0.9391
  113OSM    H3G11767   5.453   6.676  10.254 -0.2871 -0.5084 -0.5182
  113OSM    C4F11768   5.381   6.492  10.171 -0.1274  0.5588 -0.8085
  113OSM    H4F11769   5.279   6.536  10.173  0.2986  1.5587 -0.3367
  113OSM    H4G11770   5.383   6.385  10.201  2.7246  0.8701  0.3040
  113OSM    C5F11771   5.448   6.520  10.030 -0.1471 -0.1889 -0.4951
  113OSM    H5F11772   5.551   6.478  10.037 -0.7436 -1.5794  0.1525
  113OSM    H5G11773   5.449   6.630  10.013  0.6234 -0.0025  0.7369
  113OSM    C6F11774   5.375   6.454   9.906 -0.2737  0.8265 -0.4717
  113OSM    H6F11775   5.275   6.502   9.909  0.2706  1.9396  2.0172
  113OSM    H6G11776   5.363   6.344   9.911 -0.7907  0.9218  0.7389
  113OSM    C7F11777   5.448   6.482   9.777  0.6821  0.7288 -0.8988
  113OSM    H7F11778   5.546   6.430   9.765  0.3496 -0.2472  0.5837
  113OSM    H7G11779   5.459   6.591   9.753  1.8521  0.9153  0.4501
  113OSM    C8F11780   5.369   6.441   9.654  0.6148  0.0692  0.1181
  113OSM    H8F11781   5.262   6.469   9.671  0.0622 -0.0567 -3.0099
  113OSM    H8G11782   5.361   6.332   9.670  0.8709 -0.1581 -1.2904
  113OSM    C9F11783   5.428   6.475   9.519 -0.3254 -0.5533 -0.0064
  113OSM    H9F11784   5.490   6.565   9.518 -1.1077 -0.0015 -2.4317
  113OSM   C10F11785   5.401   6.426   9.397 -0.2673  0.2455 -0.7365
  113OSM   H10F11786   5.440   6.477   9.308 -0.1070 -1.4498 -1.6708
  113OSM   C11F11787   5.305   6.322   9.362 -0.1865 -0.0089 -0.0550
  113OSM   H11F11788   5.266   6.265   9.449  0.1754  1.0366  0.7914
  113OSM   H11G11789   5.362   6.250   9.299 -0.7270 -1.6179  1.2581
  113OSM   C12F11790   5.186   6.358   9.275 -0.4459 -0.0509  0.0586
  113OSM   H12F11791   5.232   6.412   9.190 -1.5167  0.1132 -0.4191
  113OSM   H12G11792   5.111   6.416   9.332 -2.6283 -0.8508 -1.9318
  113OSM   C13F11793   5.120   6.229   9.222 -0.4712 -0.1898  0.2349
  113OSM   H13F11794   5.079   6.178   9.312  0.2254  0.7497  1.1059
  113OSM   H13G11795   5.196   6.164   9.173 -0.2964 -1.3757  2.0173
  113OSM   C14F11796   5.006   6.257   9.130 -0.0631 -0.0584  0.4007
  113OSM   H14F11797   4.927   6.310   9.187  1.7894  0.7400  2.2930
  113OSM   H14G11798   4.964   6.159   9.101  1.1385 -0.6605  0.6466
  113OSM   C15F11799   5.034   6.332   8.999 -0.4550  0.0090  0.0868
  113OSM   H15F11800   5.072   6.434   9.021 -1.2413  0.4487 -0.5580
  113OSM   H15G11801   4.933   6.352   8.957  0.0315  0.8068 -0.7120
  113OSM   C16F11802   5.121   6.261   8.898 -0.2329  0.3232  0.4183
  113OSM   H16F11803   5.223   6.256   8.944 -1.0353  0.1911  2.2465
  113OSM   H16G11804   5.125   6.313   8.800  0.9521 -1.4418 -0.4849
  113OSM   C17F11805   5.082   6.111   8.867  0.2051  0.9951  0.2455
  113OSM   H17F11806   5.103   6.054   8.960  0.5575  1.3810  0.4077
  113OSM   H17G11807   5.140   6.066   8.784 -0.3102  0.9573 -0.0907
  113OSM   C18F11808   4.935   6.089   8.836 -0.6422  0.4158 -0.2719
  113OSM   H18F11809   4.915   5.983   8.808  4.1281 -0.7150  0.1191
  113OSM   H18G11810   4.887   6.155   8.760  2.0866 -1.3794 -3.7193
  113OSM   H18H11811   4.874   6.104   8.927 -1.0534 -1.7460 -0.1593
  114OSM      N11812   5.971   5.052  11.608 -0.3294  0.0505 -0.0537
  114OSM    C1511813   6.075   5.123  11.683  0.1291 -0.0260  0.1071
  114OSM   H15A11814   6.038   5.206  11.742  0.2350 -0.2563  0.5041
  114OSM   H15B11815   6.148   5.165  11.616  0.5924 -0.5815  0.2653
  114OSM   H15C11816   6.135   5.059  11.745 -0.0999  0.5832  0.9769
  114OSM    C1411817   6.028   4.919  11.558 -0.2005 -0.3960  0.1830
  114OSM   H14A11818   5.975   4.890  11.469 -1.8989  1.9812  0.3826
  114OSM   H14B11819   6.011   4.842  11.632  1.0463 -0.0674  0.8283
  114OSM   H14C11820   6.133   4.923  11.533 -0.6062  1.0509 -1.4034
  114OSM    C1311821   5.860   5.017  11.696 -0.0530  0.1602 -0.0531
  114OSM   H13A11822   5.891   4.980  11.792 -0.1383 -2.7726 -1.0898
  114OSM   H13B11823   5.783   4.960  11.645  1.1593  0.2286 -2.0197
  114OSM   H13C11824   5.801   5.102  11.727 -2.4601 -1.4900  0.0578
  114OSM    C1211825   5.921   5.127  11.487  0.0799 -1.0094 -0.2440
  114OSM   H12A11826   5.875   5.220  11.517  2.6917  0.7506 -1.4964
  114OSM   H12B11827   5.845   5.066  11.441  0.2187 -1.0346 -0.4380
  114OSM    C1111828   6.031   5.183  11.394 -0.6862 -0.8094 -0.2050
  114OSM   H11A11829   5.973   5.234  11.315 -0.0865  0.2227  0.0171
  114OSM   H11B11830   6.101   5.109  11.349  0.0652 -0.3489  0.2057
  114OSM      P11831   6.053   5.423  11.491 -0.0678 -0.3100 -0.0467
  114OSM    O1311832   5.929   5.420  11.577  0.0720  0.1383 -0.5406
  114OSM    O1411833   6.158   5.512  11.540  0.6580  0.2901 -1.0969
  114OSM    O1111834   6.006   5.471  11.343 -0.1859  0.0981  0.0457
  114OSM    O1211835   6.115   5.288  11.453 -0.3784  0.7228 -0.1188
  114OSM    C1S11836   6.096   5.481  11.233 -0.0922  0.4694  0.3848
  114OSM    H1S11837   6.168   5.396  11.230 -2.0642 -1.2497  0.7678
  114OSM    H1T11838   6.163   5.570  11.233 -0.0239  0.4208 -0.1910
  114OSM     NF11839   6.151   5.493  11.003  0.3251 -0.0076 -0.0032
  114OSM    HNF11840   6.194   5.581  10.986  0.0948  0.4166  1.5433
  114OSM    C2S11841   6.038   5.488  11.091 -0.8272 -0.0294 -0.0110
  114OSM    H2S11842   5.980   5.397  11.067 -3.5479  1.4043  0.9096
  114OSM    C3S11843   5.950   5.619  11.078 -0.6312 -0.1618  0.7934
  114OSM    H3S11844   6.020   5.705  11.090 -1.1087  0.4815 -0.8670
  114OSM     O311845   5.847   5.630  11.176 -0.0541 -0.3745  0.0440
  114OSM    HO311846   5.877   5.582  11.253 -0.8321  0.4400  0.8731
  114OSM    C4S11847   5.891   5.637  10.937  0.3610  0.3775 -0.2811
  114OSM    H4S11848   5.811   5.563  10.918 -0.2819  1.2114 -0.8491
  114OSM    C5S11849   5.928   5.721  10.839  0.7541 -0.6661 -0.4451
  114OSM    H5S11850   6.016   5.786  10.851 -0.3828  1.1263 -1.4515
  114OSM    C6S11851   5.866   5.747  10.699  0.0247  0.3734  0.8780
  114OSM    H6S11852   5.946   5.768  10.625 -0.7268  0.2310  0.0232
  114OSM    H6T11853   5.805   5.840  10.690  0.2682  0.4423 -0.1544
  114OSM    C7S11854   5.778   5.628  10.647 -0.4789 -0.0961  0.0347
  114OSM    H7S11855   5.693   5.619  10.718 -2.2295  2.6899 -1.6070
  114OSM    H7T11856   5.848   5.543  10.655  0.5301  0.8605  1.7823
  114OSM    C8S11857   5.719   5.638  10.507  0.2972 -0.6718  1.3758
  114OSM    H8S11858   5.789   5.663  10.425 -1.0253 -1.3309  0.0107
  114OSM    H8T11859   5.649   5.724  10.498  3.2786  1.5221 -2.2691
  114OSM    C9S11860   5.636   5.511  10.474 -0.1773 -0.2555 -1.0604
  114OSM    H9S11861   5.577   5.491  10.566  1.1835  0.5094  0.0036
  114OSM    H9T11862   5.707   5.425  10.476 -0.8570 -0.8055  0.7934
  114OSM   C10S11863   5.558   5.509  10.350 -0.3751 -0.2460 -0.6993
  114OSM   H10S11864   5.524   5.613  10.333  0.6008  0.0231 -1.0551
  114OSM   H10T11865   5.466   5.448  10.358 -1.1284  0.9596 -0.1242
  114OSM   C11S11866   5.642   5.480  10.226 -0.1751 -0.4595 -0.3704
  114OSM   H11S11867   5.672   5.374  10.242  2.0697  0.6101  3.2169
  114OSM   H11T11868   5.734   5.541  10.240 -2.0336  3.0567 -2.7774
  114OSM   C12S11869   5.552   5.490  10.100  0.0070 -0.5908 -0.0339
  114OSM   H12S11870   5.534   5.599  10.090  3.4434 -0.0438 -1.2661
  114OSM   H12T11871   5.459   5.434  10.119  1.0612 -1.2157  3.6713
  114OSM   C13S11872   5.637   5.436   9.989  0.2228  0.4737  0.5380
  114OSM   H13S11873   5.742   5.469   9.997  0.4115  0.4008 -1.3887
  114OSM   H13T11874   5.607   5.490   9.897  0.5468  0.5434  0.4730
  114OSM   C14S11875   5.622   5.286   9.972  0.3794 -0.0606  0.3013
  114OSM   H14S11876   5.521   5.247   9.948  1.5607 -1.5343 -2.5743
  114OSM   H14T11877   5.649   5.234  10.066 -0.3874 -2.4433 -0.7690
  114OSM   C15S11878   5.714   5.225   9.858  0.3928 -0.2474  0.4119
  114OSM   H15S11879   5.733   5.119   9.884 -0.4309 -0.6138 -0.4373
  114OSM   H15T11880   5.816   5.266   9.866 -0.2236  1.8301 -1.8204
  114OSM   C16S11881   5.652   5.237   9.715 -0.1737  0.2354 -0.4254
  114OSM   H16S11882   5.632   5.344   9.691 -1.6319 -0.0283 -0.4663
  114OSM   H16T11883   5.558   5.181   9.700  0.0999 -1.0159  2.2935
  114OSM   C17S11884   5.758   5.196   9.601 -0.0133  0.3595 -0.2802
  114OSM   H17S11885   5.777   5.087   9.609  0.1728  0.6492  4.9952
  114OSM   H17T11886   5.858   5.236   9.628  0.2487  1.1590 -2.3660
  114OSM   C18S11887   5.708   5.231   9.462 -0.7138 -0.0664  0.1987
  114OSM   H18S11888   5.760   5.166   9.389  0.8126 -1.6119  2.5576
  114OSM   H18T11889   5.723   5.338   9.437 -0.7050 -0.0171  0.4120
  114OSM   H18U11890   5.602   5.210   9.437 -0.8048 -1.6747  1.7713
  114OSM    C1F11891   6.206   5.374  10.955 -0.1232 -0.8034  0.3644
  114OSM     OF11892   6.152   5.267  10.983 -0.3299  1.1600 -0.4699
  114OSM    C2F11893   6.326   5.383  10.855  0.3311  0.0446 -0.5468
  114OSM    H2F11894   6.421   5.363  10.909 -0.6110  0.3256  1.2480
  114OSM    H2G11895   6.335   5.483  10.807 -0.2960 -1.0758 -3.0953
  114OSM    C3F11896   6.303   5.293  10.732  0.5219  0.1885 -0.2283
  114OSM    H3F11897   6.312   5.182  10.739  1.3565  0.2600 -0.1807
  114OSM    H3G11898   6.394   5.313  10.672  0.5233 -0.3460 -0.4126
  114OSM    C4F11899   6.177   5.335  10.662  0.8041  0.1179  0.2833
  114OSM    H4F11900   6.145   5.441  10.671  0.7833  0.1096  0.3072
  114OSM    H4G11901   6.096   5.287  10.721 -0.0821 -0.0144 -1.0123
  114OSM    C5F11902   6.159   5.296  10.513 -0.3652  0.8478 -0.8195
  114OSM    H5F11903   6.190   5.190  10.504  0.5118  0.9460  0.8863
  114OSM    H5G11904   6.221   5.361  10.447  0.2786 -0.0359 -1.1065
  114OSM    C6F11905   6.012   5.308  10.468  0.8149 -0.2425 -0.7108
  114OSM    H6F11906   5.998   5.410  10.428  2.3732  0.9698  1.7359
  114OSM    H6G11907   5.946   5.297  10.557 -0.7750 -0.0647 -1.8475
  114OSM    C7F11908   5.954   5.209  10.367  1.0603 -0.5211 -0.5784
  114OSM    H7F11909   5.848   5.239  10.356  1.3262  0.3671 -0.7256
  114OSM    H7G11910   5.969   5.105  10.404 -0.5648  0.0825  1.8987
  114OSM    C8F11911   6.020   5.199  10.227 -0.1661 -0.2668  0.0912
  114OSM    H8F11912   6.123   5.159  10.217  0.2706  0.1421  2.5712
  114OSM    H8G11913   6.028   5.300  10.181  2.4782 -1.2557 -1.7935
  114OSM    C9F11914   5.946   5.115  10.133  0.1067 -0.1251 -1.2940
  114OSM    H9F11915   5.840   5.102  10.157  0.8700  0.5278  2.8338
  114OSM   C10F11916   5.991   5.057  10.020  0.2880  0.4925  0.5332
  114OSM   H10F11917   5.923   4.986   9.970 -0.9445  0.7579  1.8061
  114OSM   C11F11918   6.130   5.070   9.962 -0.3049  0.2783 -0.5765
  114OSM   H11F11919   6.201   5.001  10.013  0.5033  1.2855 -0.3127
  114OSM   H11G11920   6.157   5.176   9.984  1.2896 -0.5739  1.8930
  114OSM   C12F11921   6.132   5.048   9.807 -0.0386  0.4723 -0.1670
  114OSM   H12F11922   6.227   5.097   9.777  1.6922 -2.2876  0.5874
  114OSM   H12G11923   6.047   5.106   9.765  1.5611  4.3458  1.6965
  114OSM   C13F11924   6.115   4.908   9.756 -0.3977  0.0814  0.3551
  114OSM   H13F11925   6.014   4.863   9.770 -1.5855  2.4737 -0.3009
  114OSM   H13G11926   6.189   4.844   9.809 -0.4614  0.1166  0.4861
  114OSM   C14F11927   6.165   4.905   9.607  1.2245  0.1343  0.4497
  114OSM   H14F11928   6.204   4.804   9.586  1.4169 -0.0678  1.7057
  114OSM   H14G11929   6.252   4.973   9.597 -1.1868  2.9931 -1.9090
  114OSM   C15F11930   6.052   4.959   9.511  0.2864 -0.2630  0.1011
  114OSM   H15F11931   6.084   4.988   9.409  2.3638 -2.2179  0.1564
  114OSM   H15G11932   6.011   5.051   9.557  0.3866 -0.8972  1.4914
  114OSM   C16F11933   5.931   4.866   9.483 -0.2166  0.1858  0.1720
  114OSM   H16F11934   5.860   4.914   9.413 -1.1565 -1.1916  0.1632
  114OSM   H16G11935   5.876   4.836   9.575  1.7669  0.0295  1.3502
  114OSM   C17F11936   5.982   4.754   9.396  0.7274 -0.7787  0.2207
  114OSM   H17F11937   6.041   4.688   9.463  0.6626 -0.6631  0.3907
  114OSM   H17G11938   6.046   4.794   9.315 -0.0685  0.7414  0.3386
  114OSM   C18F11939   5.881   4.669   9.320  0.8983 -0.5474 -0.1793
  114OSM   H18F11940   5.838   4.732   9.240  1.7085  1.3297  0.8134
  114OSM   H18G11941   5.797   4.628   9.380  1.7738 -2.2440 -0.0957
  114OSM   H18H11942   5.942   4.588   9.276  0.4842 -1.7181  1.3512
  115OSM      N11943   0.771   3.218   5.899 -0.2480 -0.3849  0.0742
  115OSM    C1511944   0.676   3.294   5.804 -0.6367 -0.1076  0.1869
  115OSM   H15A11945   0.602   3.334   5.872 -0.1552  1.3751 -0.1300
  115OSM   H15B11946   0.633   3.230   5.728  0.4166 -1.9433  1.1041
  115OSM   H15C11947   0.727   3.375   5.754  0.7654 -1.7337 -1.0912
  115OSM    C1411948   0.849   3.117   5.824 -0.4242 -0.1039 -0.2389
  115OSM   H14A11949   0.776   3.053   5.776 -0.7527  0.8037 -0.9774
  115OSM   H14B11950   0.909   3.055   5.888  1.5788 -2.4700 -4.2192
  115OSM   H14C11951   0.908   3.148   5.739  1.3324 -0.1285  0.9569
  115OSM    C1311952   0.870   3.314   5.958 -0.1639 -0.2829  0.3193
  115OSM   H13A11953   0.933   3.263   6.029 -1.5824 -0.5357  1.4092
  115OSM   H13B11954   0.820   3.388   6.018  1.0677  0.5872  0.2959
  115OSM   H13C11955   0.940   3.344   5.881 -1.2103  1.3317 -0.0245
  115OSM    C1211956   0.690   3.159   6.011 -0.2096 -0.0329 -0.3806
  115OSM   H12A11957   0.607   3.107   5.966 -0.1477 -1.2914  0.9129
  115OSM   H12B11958   0.634   3.237   6.061  0.0434  2.1022 -3.2906
  115OSM    C1111959   0.754   3.056   6.110  0.6193  0.0084  0.3665
  115OSM   H11A11960   0.679   3.042   6.191  0.8044 -0.2788  0.4908
  115OSM   H11B11961   0.843   3.104   6.157  1.3450  0.6419 -1.6260
  115OSM      P11962   0.887   2.826   6.117 -0.2137  0.1422 -0.3294
  115OSM    O1311963   0.831   2.694   6.084  0.9005  0.6427 -0.3956
  115OSM    O1411964   1.028   2.854   6.085 -0.5071  0.1368 -0.3075
  115OSM    O1111965   0.851   2.870   6.266  0.0956  0.1474 -0.2103
  115OSM    O1211966   0.800   2.936   6.043 -0.2181 -0.1922 -0.4651
  115OSM    C1S11967   0.936   2.804   6.361 -0.3054  0.7576  0.5740
  115OSM    H1S11968   1.038   2.843   6.344 -0.9682  2.5541  0.6035
  115OSM    H1T11969   0.932   2.694   6.347 -0.6206  0.6404  1.5322
  115OSM     NF11970   0.992   2.795   6.596  0.4504 -0.3243  0.6895
  115OSM    HNF11971   0.974   2.702   6.628  1.4577 -0.2437  1.5146
  115OSM    C2S11972   0.895   2.854   6.499  0.1921  0.0837 -0.3872
  115OSM    H2S11973   0.908   2.964   6.496  0.4714  0.0224 -2.1600
  115OSM    C3S11974   0.741   2.817   6.537  0.0803  0.7202 -0.4209
  115OSM    H3S11975   0.733   2.707   6.545  0.0789  0.8469  1.5821
  115OSM     O311976   0.637   2.855   6.442  0.6786 -0.0124  0.1896
  115OSM    HO311977   0.686   2.861   6.359  1.9279 -3.4719  0.5930
  115OSM    C4S11978   0.715   2.879   6.673  0.4167 -0.0446 -0.2359
  115OSM    H4S11979   0.703   2.988   6.685  3.6738  0.2052  1.3225
  115OSM    C5S11980   0.710   2.803   6.787  0.3756  0.2690  0.2700
  115OSM    H5S11981   0.731   2.697   6.764 -0.2774  0.4888 -1.3464
  115OSM    C6S11982   0.690   2.842   6.928  0.3733  0.0565  0.6165
  115OSM    H6S11983   0.593   2.806   6.968  0.7340  0.0378  1.4903
  115OSM    H6T11984   0.685   2.953   6.927 -0.2706  0.0234 -0.5241
  115OSM    C7S11985   0.811   2.809   7.012  0.3198  0.8784  0.7155
  115OSM    H7S11986   0.905   2.854   6.972 -0.3761  1.8094  0.0909
  115OSM    H7T11987   0.802   2.699   7.008 -1.4982  0.9902  1.4815
  115OSM    C8S11988   0.787   2.859   7.151  0.4692  0.5784 -0.5755
  115OSM    H8S11989   0.687   2.821   7.182  1.9632 -2.1502  1.0653
  115OSM    H8T11990   0.783   2.970   7.161  1.2081  0.5640 -0.0531
  115OSM    C9S11991   0.888   2.810   7.250  0.4265  0.0782 -0.0937
  115OSM    H9S11992   0.992   2.844   7.232  1.0580 -0.8900  1.6381
  115OSM    H9T11993   0.887   2.699   7.242 -0.3093 -0.0072  1.1419
  115OSM   C10S11994   0.857   2.851   7.391 -0.1464 -0.2911 -0.8952
  115OSM   H10S11995   0.767   2.792   7.419 -1.1166  1.8095  0.5141
  115OSM   H10T11996   0.826   2.957   7.398  0.5894 -0.1620  0.6607
  115OSM   C11S11997   0.975   2.819   7.485  0.5860  0.4699 -0.0714
  115OSM   H11S11998   1.041   2.909   7.486 -0.2340  1.0721  0.5339
  115OSM   H11T11999   1.029   2.727   7.453 -1.2511 -0.4832 -0.4964
  115OSM   C12S12000   0.924   2.792   7.630 -0.0236 -0.2989 -0.7918
  115OSM   H12S12001   0.839   2.721   7.620  1.0244 -1.7776  0.5699
  115OSM   H12T12002   0.875   2.885   7.667 -1.2574 -1.3308  0.2386
  115OSM   C13S12003   1.028   2.732   7.729 -0.2706 -0.3849  0.2243
  115OSM   H13S12004   1.117   2.797   7.717 -0.6716 -0.2253 -2.2815
  115OSM   H13T12005   1.073   2.636   7.695  3.2740  0.5295  2.1292
  115OSM   C14S12006   0.976   2.718   7.869 -0.0417 -0.1611  0.3512
  115OSM   H14S12007   1.057   2.664   7.923  0.8066  0.1746 -0.5744
  115OSM   H14T12008   0.881   2.659   7.866 -0.5628  0.7286 -1.9860
  115OSM   C15S12009   0.950   2.853   7.939  0.7541  0.0329 -0.3460
  115OSM   H15S12010   0.865   2.908   7.893 -0.2210 -0.8266  0.4009
  115OSM   H15T12011   1.035   2.923   7.925 -1.3830  2.7371 -0.2983
  115OSM   C16S12012   0.933   2.839   8.088 -0.4582 -0.1413  0.5157
  115OSM   H16S12013   0.912   2.941   8.125 -0.8971 -0.6341  1.6229
  115OSM   H16T12014   1.026   2.811   8.141 -0.1000 -0.7699 -0.4260
  115OSM   C17S12015   0.823   2.742   8.150 -0.2831  0.4051 -0.0169
  115OSM   H17S12016   0.854   2.722   8.255 -4.0977  2.2542  1.5682
  115OSM   H17T12017   0.834   2.640   8.106  2.4203 -0.3914  2.3574
  115OSM   C18S12018   0.677   2.788   8.141 -0.2708 -0.1188  0.3786
  115OSM   H18S12019   0.653   2.833   8.043  0.1254  0.8023  0.7037
  115OSM   H18T12020   0.647   2.871   8.209 -2.9733 -1.7171  1.2297
  115OSM   H18U12021   0.609   2.705   8.171  1.6034 -1.6111  0.6123
  115OSM    C1F12022   1.112   2.844   6.601 -0.1941 -0.4064 -0.5016
  115OSM     OF12023   1.137   2.955   6.553  0.3618 -0.3348  0.1974
  115OSM    C2F12024   1.226   2.769   6.676 -0.2954  0.8347 -0.3899
  115OSM    H2F12025   1.293   2.732   6.595 -1.8027 -0.5091 -1.0459
  115OSM    H2G12026   1.167   2.704   6.744 -0.9482  0.4118 -1.3430
  115OSM    C3F12027   1.290   2.870   6.774 -0.1010  0.6845 -0.0835
  115OSM    H3F12028   1.217   2.923   6.838  0.7865  1.0397  0.6556
  115OSM    H3G12029   1.356   2.937   6.716 -0.2547 -1.0222 -2.2712
  115OSM    C4F12030   1.394   2.803   6.867  0.3503  0.4492 -0.4400
  115OSM    H4F12031   1.452   2.878   6.925  3.4618  0.6275 -3.5790
  115OSM    H4G12032   1.465   2.752   6.798  1.1878 -2.0075  2.1079
  115OSM    C5F12033   1.340   2.696   6.964  0.1584  0.2563 -0.0874
  115OSM    H5F12034   1.425   2.649   7.020 -2.4663 -1.3820  2.6791
  115OSM    H5G12035   1.307   2.612   6.900  0.2413  2.8614 -3.6893
  115OSM    C6F12036   1.236   2.742   7.064  0.0180  0.0014  0.0883
  115OSM    H6F12037   1.207   2.660   7.134 -1.7423  0.3254 -0.2542
  115OSM    H6G12038   1.149   2.777   7.006  0.6474  0.6420 -0.4765
  115OSM    C7F12039   1.285   2.862   7.144 -0.4181 -0.0683  0.6045
  115OSM    H7F12040   1.210   2.896   7.219  1.8339  0.8307  2.5132
  115OSM    H7G12041   1.312   2.942   7.072  1.1521 -0.5610  0.6153
  115OSM    C8F12042   1.414   2.830   7.232  0.1895  0.2330 -0.2396
  115OSM    H8F12043   1.498   2.810   7.163 -0.3795 -0.4618 -0.7406
  115OSM    H8G12044   1.393   2.740   7.293 -0.1791 -0.5565 -1.5229
  115OSM    C9F12045   1.440   2.950   7.328 -0.9628  0.3648  0.4486
  115OSM    H9F12046   1.442   3.049   7.279 -1.7118  0.4254  0.5338
  115OSM   C10F12047   1.441   2.943   7.461  0.3122  0.2666  0.1017
  115OSM   H10F12048   1.456   3.030   7.526  1.3001 -2.0623  3.0746
  115OSM   C11F12049   1.405   2.824   7.544 -0.4047  0.2636  0.2564
  115OSM   H11F12050   1.324   2.760   7.503  1.7288 -2.3689  0.0283
  115OSM   H11G12051   1.363   2.866   7.638 -2.4406  0.5647 -0.7599
  115OSM   C12F12052   1.528   2.740   7.577 -0.2461  0.0471 -0.1163
  115OSM   H12F12053   1.544   2.694   7.477 -1.4080 -0.7760  0.0585
  115OSM   H12G12054   1.502   2.651   7.638  1.0930 -0.9427 -0.9373
  115OSM   C13F12055   1.645   2.817   7.645 -0.1549  0.7302 -0.2039
  115OSM   H13F12056   1.670   2.906   7.583  0.4414  1.0760  0.5350
  115OSM   H13G12057   1.722   2.737   7.642 -2.0003 -1.0765 -2.3769
  115OSM   C14F12058   1.612   2.859   7.792 -0.7372  0.2611 -1.0307
  115OSM   H14F12059   1.592   2.771   7.857 -2.0256  1.7748  0.6592
  115OSM   H14G12060   1.521   2.921   7.781 -0.6022  0.7219  0.3822
  115OSM   C15F12061   1.733   2.935   7.855 -0.3126 -0.0639  0.0288
  115OSM   H15F12062   1.753   3.024   7.792 -1.4227  1.7979  2.2048
  115OSM   H15G12063   1.818   2.864   7.848 -0.6033 -0.4619  0.5692
  115OSM   C16F12064   1.705   2.974   8.002  0.4659  0.0197  0.2722
  115OSM   H16F12065   1.596   2.972   8.023  0.0620 -1.2678 -1.7769
  115OSM   H16G12066   1.747   3.075   8.025 -0.0154 -0.1031  1.7833
  115OSM   C17F12067   1.768   2.877   8.106  0.1277 -0.2221 -0.2548
  115OSM   H17F12068   1.876   2.885   8.079  0.0026  2.0965 -0.1075
  115OSM   H17G12069   1.726   2.775   8.095  2.5204 -1.2287 -0.5199
  115OSM   C18F12070   1.753   2.913   8.251  0.4786  0.0875  0.5848
  115OSM   H18F12071   1.818   2.847   8.312  0.9360 -1.2038 -1.2616
  115OSM   H18G12072   1.647   2.890   8.277 -0.5422  2.8703 -0.9356
  115OSM   H18H12073   1.777   3.020   8.266 -0.0153  0.3367 -0.3629
  116OSM      N12074   6.544   6.703   6.423 -0.5654 -0.4600  0.2509
  116OSM    C1512075   6.417   6.732   6.342 -0.8903  0.1566 -0.1088
  116OSM   H15A12076   6.418   6.832   6.302  1.2501 -0.5560 -2.0021
  116OSM   H15B12077   6.324   6.708   6.390 -1.5205 -1.2442 -1.9605
  116OSM   H15C12078   6.412   6.674   6.251  0.6384  0.2292 -0.2629
  116OSM    C1412079   6.540   6.801   6.538 -0.3574  0.2136 -0.4818
  116OSM   H14A12080   6.460   6.774   6.605 -0.5431 -0.9013 -1.1369
  116OSM   H14B12081   6.535   6.901   6.498 -2.8911  0.2984 -0.0367
  116OSM   H14C12082   6.630   6.785   6.596  0.3225  2.4221 -0.8647
  116OSM    C1312083   6.538   6.563   6.472 -0.2028 -0.2270 -0.4534
  116OSM   H13A12084   6.445   6.558   6.528 -0.5821  0.3583 -1.0181
  116OSM   H13B12085   6.626   6.545   6.532  1.6745 -1.3137 -3.4426
  116OSM   H13C12086   6.529   6.495   6.388  0.8186 -1.5764  0.5111
  116OSM    C1212087   6.667   6.729   6.340  0.1559 -0.3772 -0.4968
  116OSM   H12A12088   6.676   6.832   6.309 -0.8663  0.5744  2.2233
  116OSM   H12B12089   6.658   6.671   6.249  1.6591 -1.8347  0.2440
  116OSM    C1112090   6.800   6.718   6.419 -0.1087  0.8889  0.5719
  116OSM   H11A12091   6.820   6.610   6.435  2.5695  1.3650  0.6795
  116OSM   H11B12092   6.802   6.776   6.514 -2.5077  1.2653  0.4269
  116OSM      P12093   6.964   6.919   6.323  0.0880 -0.3731  0.3188
  116OSM    O1312094   7.108   6.907   6.270  0.1536  0.0211 -0.0400
  116OSM    O1412095   6.879   7.014   6.249  0.0260 -0.2077 -0.1015
  116OSM    O1112096   6.964   6.972   6.479 -0.0694  0.1341  0.2289
  116OSM    O1212097   6.897   6.774   6.324 -0.4548 -0.1320 -0.1518
  116OSM    C1S12098   7.051   6.910   6.580  0.3409  0.0191 -0.4871
  116OSM    H1S12099   7.158   6.932   6.559  0.0733  1.0745 -0.7757
  116OSM    H1T12100   7.030   6.801   6.583 -0.7942  0.1891 -1.8438
  116OSM     NF12101   7.126   6.898   6.810  0.0187  0.6818  0.0242
  116OSM    HNF12102   7.096   6.807   6.836 -0.9133  1.1966  0.8069
  116OSM    C2S12103   7.027   6.965   6.723  0.6572 -0.3105 -0.4399
  116OSM    H2S12104   7.033   7.074   6.705 -0.5805 -0.3200 -0.9144
  116OSM    C3S12105   6.878   6.937   6.768 -0.1175 -0.1292  0.7199
  116OSM    H3S12106   6.865   6.826   6.764 -0.0159 -0.1453  0.8627
  116OSM     O312107   6.787   6.994   6.671  1.1139 -0.2498  0.4736
  116OSM    HO312108   6.850   7.025   6.606  1.4218  2.4525  2.0096
  116OSM    C4S12109   6.859   6.984   6.908 -0.3468 -0.3020 -0.5885
  116OSM    H4S12110   6.920   6.930   6.982 -1.8130  0.0016  0.8538
  116OSM    C5S12111   6.796   7.095   6.954  0.2028  0.5310 -0.6231
  116OSM    H5S12112   6.731   7.156   6.889 -0.3803  0.1360 -0.4060
  116OSM    C6S12113   6.776   7.129   7.100  0.1858 -0.2389 -0.3774
  116OSM    H6S12114   6.670   7.130   7.132  0.5544  0.0018  0.9089
  116OSM    H6T12115   6.814   7.230   7.128 -2.0892  0.8477 -1.1132
  116OSM    C7S12116   6.869   7.042   7.187 -0.7964 -0.4469 -0.0255
  116OSM    H7S12117   6.970   7.057   7.142  0.3727  1.2874  2.9868
  116OSM    H7T12118   6.841   6.934   7.190 -1.4267 -0.2618  1.1470
  116OSM    C8S12119   6.893   7.103   7.325 -0.3944 -0.1818  0.1850
  116OSM    H8S12120   6.794   7.073   7.365  0.1555 -2.2494  0.0439
  116OSM    H8T12121   6.906   7.213   7.325  0.8661 -0.3215 -0.0237
  116OSM    C9S12122   7.026   7.045   7.386  0.1486 -0.3935 -0.0557
  116OSM    H9S12123   7.109   7.102   7.340  1.0418 -0.3422  1.5896
  116OSM    H9T12124   7.027   6.936   7.361  2.5447 -0.8551  1.9056
  116OSM   C10S12125   7.045   7.079   7.535 -0.2629  0.0233  0.3638
  116OSM   H10S12126   7.052   7.187   7.557 -0.4854 -0.1557  1.3602
  116OSM   H10T12127   7.147   7.038   7.556 -0.4087 -0.8925 -0.6613
  116OSM   C11S12128   6.955   6.996   7.627  0.0497 -0.0854  0.6318
  116OSM   H11S12129   6.950   6.890   7.595 -1.7947  0.2647 -0.2903
  116OSM   H11T12130   6.851   7.036   7.616 -0.9105 -2.7046 -0.2227
  116OSM   C12S12131   6.986   7.005   7.781  0.2616  0.6204 -0.2476
  116OSM   H12S12132   6.987   7.111   7.813 -0.8867  0.5749 -0.0599
  116OSM   H12T12133   7.093   6.974   7.788 -0.4797 -1.9271  0.3824
  116OSM   C13S12134   6.901   6.922   7.877 -0.3784  0.0473 -0.4511
  116OSM   H13S12135   6.893   6.814   7.849 -0.8882  0.5963 -2.5115
  116OSM   H13T12136   6.799   6.966   7.875 -0.6287 -0.5318 -0.6278
  116OSM   C14S12137   6.951   6.924   8.025  0.2581  0.2045  0.6247
  116OSM   H14S12138   6.943   7.031   8.055 -3.0737 -0.0573  0.9492
  116OSM   H14T12139   7.057   6.893   8.015  0.7630  2.6845 -2.2808
  116OSM   C15S12140   6.883   6.840   8.122 -0.3660  0.3224 -0.1263
  116OSM   H15S12141   6.911   6.734   8.103  1.0115  0.7467 -0.5909
  116OSM   H15T12142   6.776   6.865   8.133 -0.1473  0.5465  1.5810
  116OSM   C16S12143   6.918   6.869   8.270 -0.6951  0.4713 -1.2214
  116OSM   H16S12144   6.914   6.978   8.293  1.6278  0.6254 -1.4645
  116OSM   H16T12145   7.024   6.837   8.271 -0.5024  1.0092 -2.5797
  116OSM   C17S12146   6.838   6.800   8.387  0.1398 -0.6340  0.3555
  116OSM   H17S12147   6.841   6.691   8.369  0.9182 -0.5250 -0.1529
  116OSM   H17T12148   6.728   6.815   8.379  0.0573  1.4839  4.2759
  116OSM   C18S12149   6.864   6.860   8.526  0.1889 -0.5479  0.1776
  116OSM   H18S12150   6.844   6.968   8.543 -3.0207 -1.4095  2.2790
  116OSM   H18T12151   6.967   6.827   8.551  1.7887  1.7556 -3.0064
  116OSM   H18U12152   6.791   6.805   8.590  0.8961 -1.4789  0.2001
  116OSM    C1F12153   7.254   6.930   6.830 -0.0006 -0.0573 -0.5816
  116OSM     OF12154   7.290   7.043   6.809  0.3273  0.3521 -0.2884
  116OSM    C2F12155   7.346   6.827   6.875 -0.0341  0.4832  0.4445
  116OSM    H2F12156   7.420   6.810   6.794 -2.3106 -0.2178 -1.5504
  116OSM    H2G12157   7.284   6.735   6.885 -0.1349  0.4370 -0.5881
  116OSM    C3F12158   7.411   6.857   7.016  0.1393  0.5609  0.3952
  116OSM    H3F12159   7.463   6.955   7.004  0.0645  0.2687 -2.7084
  116OSM    H3G12160   7.489   6.782   7.041 -0.3815 -0.1422 -0.0769
  116OSM    C4F12161   7.311   6.854   7.143 -0.1257  0.2705  0.5179
  116OSM    H4F12162   7.226   6.924   7.130  0.4363  0.8111 -0.3124
  116OSM    H4G12163   7.366   6.899   7.228 -0.7192 -1.0443  1.6042
  116OSM    C5F12164   7.271   6.716   7.171  0.3891  0.5756 -0.2166
  116OSM    H5F12165   7.355   6.647   7.193  0.3342  0.7207  0.4378
  116OSM    H5G12166   7.226   6.668   7.081  0.0260 -0.1569  0.3401
  116OSM    C6F12167   7.163   6.711   7.282  0.1568  0.8141  0.0002
  116OSM    H6F12168   7.120   6.612   7.310 -2.2188  2.3304  1.9889
  116OSM    H6G12169   7.085   6.779   7.240  0.4590  0.7623 -0.6467
  116OSM    C7F12170   7.205   6.784   7.413 -0.2385 -0.0564  0.0831
  116OSM    H7F12171   7.110   6.777   7.470  0.5368  2.6559  1.7874
  116OSM    H7G12172   7.250   6.882   7.385  1.8376 -1.6506 -2.3875
  116OSM    C8F12173   7.312   6.712   7.493 -0.3174  0.0547 -0.0356
  116OSM    H8F12174   7.341   6.775   7.580 -1.3895  0.4055  0.0759
  116OSM    H8G12175   7.400   6.717   7.425  0.7126  1.1637  1.3310
  116OSM    C9F12176   7.294   6.564   7.514 -0.0099 -0.2838  0.4939
  116OSM    H9F12177   7.251   6.497   7.438  0.7113 -1.2969  0.9731
  116OSM   C10F12178   7.316   6.502   7.628 -1.1367 -0.3211  0.4165
  116OSM   H10F12179   7.286   6.396   7.627 -0.8582 -0.3979  0.2435
  116OSM   C11F12180   7.375   6.549   7.757 -0.4661 -0.5350  0.6226
  116OSM   H11F12181   7.428   6.647   7.753 -2.0576  0.3663  1.0790
  116OSM   H11G12182   7.446   6.471   7.792 -0.0965 -0.2125  0.5920
  116OSM   C12F12183   7.265   6.571   7.867  0.2322  0.2150  0.2323
  116OSM   H12F12184   7.183   6.499   7.849  0.6879  0.6306 -4.1451
  116OSM   H12G12185   7.232   6.677   7.864 -0.3310  0.0559  0.8724
  116OSM   C13F12186   7.323   6.550   8.011  0.3076  0.7407 -0.2922
  116OSM   H13F12187   7.424   6.597   8.014  2.6966 -4.1760  0.1464
  116OSM   H13G12188   7.357   6.446   8.027  1.0325  1.3069  2.0513
  116OSM   C14F12189   7.234   6.595   8.127  0.3456  0.2087 -0.7728
  116OSM   H14F12190   7.144   6.530   8.123  1.2192 -1.3150  2.4498
  116OSM   H14G12191   7.192   6.698   8.121  1.1811  0.5648 -0.5433
  116OSM   C15F12192   7.306   6.580   8.263 -0.1727 -0.1959 -0.6295
  116OSM   H15F12193   7.352   6.678   8.291  0.3269 -0.5305 -0.2805
  116OSM   H15G12194   7.379   6.498   8.277  2.3217  1.9471 -0.7949
  116OSM   C16F12195   7.199   6.553   8.382 -0.1919 -0.9409 -0.3702
  116OSM   H16F12196   7.127   6.635   8.364 -0.1387 -0.6908  0.5001
  116OSM   H16G12197   7.250   6.565   8.480 -2.6100 -0.8423  0.9334
  116OSM   C17F12198   7.123   6.420   8.376 -0.0924 -0.5185  0.4243
  116OSM   H17F12199   7.189   6.337   8.408 -3.1604 -2.7790  1.1361
  116OSM   H17G12200   7.091   6.403   8.271 -0.5402 -1.4840  0.7126
  116OSM   C18F12201   6.999   6.437   8.467 -0.4635  0.4384 -0.8905
  116OSM   H18F12202   6.952   6.337   8.473 -1.7286  0.9108 -2.4188
  116OSM   H18G12203   6.923   6.498   8.413 -2.1099 -2.4531 -1.9396
  116OSM   H18H12204   7.028   6.478   8.566 -1.0686 -0.3611 -0.3836
  117OSM      N12205   6.195   1.746   6.322 -0.0230  0.4539 -0.0841
  117OSM    C1512206   6.295   1.633   6.321  0.1410 -0.7399  0.4443
  117OSM   H15A12207   6.251   1.555   6.381  2.2858 -2.2167  0.1486
  117OSM   H15B12208   6.391   1.672   6.351  0.4745 -0.0933 -1.3542
  117OSM   H15C12209   6.317   1.597   6.221 -3.5747  0.3954 -0.8445
  117OSM    C1412210   6.252   1.864   6.252  0.5736  0.4792  0.0564
  117OSM   H14A12211   6.340   1.899   6.303  1.9770  0.3756 -2.2060
  117OSM   H14B12212   6.171   1.936   6.257 -0.2061 -0.3642 -0.0930
  117OSM   H14C12213   6.279   1.837   6.151  1.6392  0.8383  0.2400
  117OSM    C1312214   6.067   1.700   6.252 -0.1764 -0.4837  0.4583
  117OSM   H13A12215   5.994   1.778   6.266  0.5905  0.2506  0.3740
  117OSM   H13B12216   6.030   1.606   6.290 -0.1205 -2.2771 -3.6923
  117OSM   H13C12217   6.078   1.683   6.146  2.1262 -1.4616  0.8147
  117OSM    C1212218   6.163   1.790   6.463 -0.0074  0.1678  0.2904
  117OSM   H12A12219   6.257   1.801   6.514  0.2333  1.3327 -0.4097
  117OSM   H12B12220   6.122   1.717   6.532  0.6706 -0.1596  0.3520
  117OSM    C1112221   6.081   1.923   6.494  0.0279  0.2479  0.1415
  117OSM   H11A12222   6.151   1.998   6.452  1.2759  0.0847  1.8932
  117OSM   H11B12223   6.065   1.933   6.603 -2.5521 -0.3329 -0.1444
  117OSM      P12224   5.876   2.062   6.404  0.3389  0.0469 -0.3729
  117OSM    O1312225   5.961   2.156   6.325  0.8974 -0.5069  0.1734
  117OSM    O1412226   5.739   2.043   6.351  0.6619  0.1576  0.5493
  117OSM    O1112227   5.866   2.106   6.561  0.0056  0.5324  0.2899
  117OSM    O1212228   5.960   1.926   6.412  0.4526  0.0131 -0.5694
  117OSM    C1S12229   5.796   2.031   6.655  0.6077  0.4987  0.1382
  117OSM    H1S12230   5.855   1.945   6.693  0.6013  0.2103 -0.5010
  117OSM    H1T12231   5.704   1.993   6.606  0.1076  4.4043 -2.1794
  117OSM     NF12232   5.670   2.017   6.852 -0.3662 -0.3023 -1.0197
  117OSM    HNF12233   5.573   2.040   6.856 -0.6706 -1.6755 -0.1805
  117OSM    C2S12234   5.761   2.104   6.780  0.0802 -1.1817 -0.2211
  117OSM    H2S12235   5.852   2.126   6.840  0.4121 -0.7476 -0.8764
  117OSM    C3S12236   5.692   2.243   6.752 -0.5095  0.4155 -0.0401
  117OSM    H3S12237   5.593   2.224   6.707  0.1813 -1.9533 -0.6123
  117OSM     O312238   5.759   2.324   6.656  0.4443 -0.2123  0.0818
  117OSM    HO312239   5.836   2.271   6.634 -0.2497 -0.8429 -0.8651
  117OSM    C4S12240   5.667   2.315   6.878  0.1525  0.5446  0.5116
  117OSM    H4S12241   5.567   2.289   6.916 -0.2996 -0.5847 -1.4210
  117OSM    C5S12242   5.743   2.396   6.952 -0.0211 -0.0697  0.2176
  117OSM    H5S12243   5.846   2.409   6.915 -0.5452  0.4874 -1.0928
  117OSM    C6S12244   5.719   2.470   7.083  0.2039  0.9155 -0.0486
  117OSM    H6S12245   5.709   2.578   7.057  0.3716  1.0590  0.4734
  117OSM    H6T12246   5.811   2.471   7.146 -1.1610 -0.3903  2.0316
  117OSM    C7S12247   5.597   2.416   7.155 -0.5201 -0.2680  0.3095
  117OSM    H7S12248   5.511   2.438   7.087  0.4812  0.2418 -0.8118
  117OSM    H7T12249   5.581   2.479   7.244  1.1684  0.5119  0.0768
  117OSM    C8S12250   5.603   2.269   7.191 -0.0844 -0.5693 -0.1133
  117OSM    H8S12251   5.684   2.254   7.266  0.4424  1.1045 -0.3114
  117OSM    H8T12252   5.639   2.206   7.106  1.2791 -0.3258  0.2650
  117OSM    C9S12253   5.466   2.219   7.239 -0.4686  0.1908 -0.3699
  117OSM    H9S12254   5.404   2.211   7.148 -2.0551 -0.8998  0.7760
  117OSM    H9T12255   5.418   2.299   7.298  1.4727 -1.1292  3.2135
  117OSM   C10S12256   5.476   2.090   7.323 -0.0923 -0.4473  0.1883
  117OSM   H10S12257   5.555   2.097   7.400 -0.7218  1.7084  0.6774
  117OSM   H10T12258   5.494   2.011   7.246 -1.0080 -0.8688  0.4074
  117OSM   C11S12259   5.347   2.040   7.388 -0.2980  0.7621  0.1206
  117OSM   H11S12260   5.268   2.026   7.311  0.2947 -0.5493 -0.2757
  117OSM   H11T12261   5.321   2.102   7.476 -0.2676  1.5650 -0.4339
  117OSM   C12S12262   5.369   1.893   7.432  1.0700 -0.2453  0.1873
  117OSM   H12S12263   5.479   1.888   7.442  1.1511  0.4203 -0.3696
  117OSM   H12T12264   5.349   1.818   7.353  0.5333  0.7037 -0.5809
  117OSM   C13S12265   5.295   1.857   7.566  0.5687 -0.3094  0.2295
  117OSM   H13S12266   5.325   1.927   7.647  0.2438  1.1051 -0.8571
  117OSM   H13T12267   5.324   1.754   7.597 -0.8788  0.2423  3.7356
  117OSM   C14S12268   5.143   1.856   7.561 -0.1208  0.4949  0.2232
  117OSM   H14S12269   5.125   1.762   7.506  1.1943  0.9382 -0.9979
  117OSM   H14T12270   5.100   1.939   7.502 -1.7585 -1.6774 -1.6854
  117OSM   C15S12271   5.070   1.854   7.693 -0.2527 -0.7113  0.0819
  117OSM   H15S12272   4.961   1.869   7.677  0.5235  0.5582 -4.7596
  117OSM   H15T12273   5.098   1.939   7.759 -3.1423  0.6081 -0.3339
  117OSM   C16S12274   5.093   1.723   7.773 -0.6361 -0.4003 -0.5811
  117OSM   H16S12275   5.190   1.735   7.826 -0.1713  0.3806 -1.5964
  117OSM   H16T12276   5.098   1.634   7.705  0.9555 -0.9663  0.2574
  117OSM   C17S12277   4.986   1.684   7.881 -0.1540  0.0674 -0.0743
  117OSM   H17S12278   5.005   1.582   7.921  0.5453  0.0583 -0.4302
  117OSM   H17T12279   4.884   1.679   7.837 -0.2197  0.2795  0.0573
  117OSM   C18S12280   4.976   1.793   7.998 -0.7330  0.1055  0.1920
  117OSM   H18S12281   5.081   1.820   8.022  0.5932 -3.8294 -0.8240
  117OSM   H18T12282   4.933   1.754   8.093 -1.2200  0.4913  0.1305
  117OSM   H18U12283   4.916   1.879   7.960  1.1140  1.0701 -0.5847
  117OSM    C1F12284   5.711   1.914   6.908  0.2617 -0.1614 -0.2190
  117OSM     OF12285   5.831   1.898   6.932  0.2755 -0.2413 -0.0608
  117OSM    C2F12286   5.618   1.807   6.947  0.1105 -0.4587 -0.3460
  117OSM    H2F12287   5.602   1.737   6.862 -2.7884  0.6371 -0.7782
  117OSM    H2G12288   5.519   1.852   6.970  0.9431  1.8744 -1.1433
  117OSM    C3F12289   5.658   1.715   7.066 -0.6594  0.2830 -0.0822
  117OSM    H3F12290   5.672   1.782   7.154  1.8013 -0.5617  0.1945
  117OSM    H3G12291   5.750   1.655   7.047 -1.8547 -1.0420 -1.7978
  117OSM    C4F12292   5.554   1.610   7.104 -0.5691  0.3763 -0.2861
  117OSM    H4F12293   5.548   1.538   7.020  1.4745  1.7579 -1.6552
  117OSM    H4G12294   5.454   1.647   7.134  1.0323  1.5818  4.0030
  117OSM    C5F12295   5.601   1.525   7.229  0.6341 -0.0344 -0.2536
  117OSM    H5F12296   5.601   1.586   7.322 -0.5234  0.6516 -0.6970
  117OSM    H5G12297   5.706   1.497   7.207  0.8169  0.0786  0.4594
  117OSM    C6F12298   5.510   1.402   7.258 -0.2413 -0.6794  0.0733
  117OSM    H6F12299   5.508   1.340   7.166 -1.4232  0.4284 -0.6691
  117OSM    H6G12300   5.412   1.453   7.272  0.4111  0.3903  0.7488
  117OSM    C7F12301   5.545   1.311   7.375  0.2817  0.2618  0.1702
  117OSM    H7F12302   5.653   1.284   7.369  0.4677  0.5226  2.0195
  117OSM    H7G12303   5.474   1.227   7.362  0.1537  0.1309  1.6581
  117OSM    C8F12304   5.525   1.372   7.516  0.2746  0.9355  0.3024
  117OSM    H8F12305   5.597   1.456   7.525  1.2649 -0.0550  2.0353
  117OSM    H8G12306   5.559   1.301   7.595  2.5281  1.7384  0.1116
  117OSM    C9F12307   5.394   1.426   7.553  0.1802 -0.3935 -0.2096
  117OSM    H9F12308   5.360   1.513   7.495 -0.3903 -0.2052  0.4018
  117OSM   C10F12309   5.320   1.390   7.662  0.0423  0.3948  0.5200
  117OSM   H10F12310   5.226   1.441   7.684 -0.4642  0.5181 -1.7586
  117OSM   C11F12311   5.354   1.270   7.757 -0.4106 -0.2993 -0.0010
  117OSM   H11F12312   5.419   1.192   7.713  1.2405 -0.1700  2.1586
  117OSM   H11G12313   5.253   1.227   7.777 -0.2071 -1.3625 -1.1347
  117OSM   C12F12314   5.427   1.319   7.883 -0.3174  0.2384  0.3027
  117OSM   H12F12315   5.379   1.409   7.927 -0.3919 -0.7334  2.2673
  117OSM   H12G12316   5.522   1.349   7.834 -1.0241  1.5357 -0.2948
  117OSM   C13F12317   5.450   1.202   7.979  0.5412  0.4630 -0.5055
  117OSM   H13F12318   5.496   1.255   8.065  0.1842  2.2842 -1.4053
  117OSM   H13G12319   5.530   1.134   7.942 -1.1177 -1.6911 -0.2420
  117OSM   C14F12320   5.314   1.140   8.031  0.1097  0.2980  0.0753
  117OSM   H14F12321   5.333   1.045   8.084  0.0435 -0.6566 -1.5914
  117OSM   H14G12322   5.246   1.122   7.945  2.2740  0.0372 -1.6296
  117OSM   C15F12323   5.236   1.224   8.122 -0.1913 -0.7173 -0.5503
  117OSM   H15F12324   5.209   1.313   8.062  1.1414  0.7146  0.8994
  117OSM   H15G12325   5.299   1.267   8.203  0.5757 -0.8585 -1.0679
  117OSM   C16F12326   5.104   1.171   8.188  0.1767  0.6774 -0.0490
  117OSM   H16F12327   5.129   1.083   8.251 -0.2692  0.7035  0.1675
  117OSM   H16G12328   5.021   1.147   8.118 -0.4867  0.1937  0.8884
  117OSM   C17F12329   5.033   1.282   8.270  0.3868 -0.4444  0.4771
  117OSM   H17F12330   4.951   1.235   8.327 -0.0970  0.8923  0.8934
  117OSM   H17G12331   5.117   1.310   8.338  0.5204 -1.2997  0.6664
  117OSM   C18F12332   4.984   1.405   8.190 -0.5698 -0.2115  0.3979
  117OSM   H18F12333   4.968   1.497   8.250 -1.2766 -0.8991  1.2701
  117OSM   H18G12334   4.903   1.389   8.116 -1.9235  1.9131  1.3672
  117OSM   H18H12335   5.069   1.450   8.135 -0.8441 -1.4594 -1.0893
  118OSM      N12336   1.526   4.975   6.154 -0.1375  0.2795 -0.6374
  118OSM    C1512337   1.550   5.124   6.156  0.5517 -0.5569  0.1399
  118OSM   H15A12338   1.655   5.148   6.168 -0.1084  3.0849 -1.0178
  118OSM   H15B12339   1.506   5.171   6.242  2.3899 -2.0992  1.9681
  118OSM   H15C12340   1.507   5.190   6.083  1.7085  0.0407 -0.0107
  118OSM    C1412341   1.587   4.910   6.033 -0.7852  0.3830 -0.7260
  118OSM   H14A12342   1.692   4.933   6.023 -0.4926  0.6777  2.5149
  118OSM   H14B12343   1.556   4.950   5.937  1.5473 -0.2512 -1.7923
  118OSM   H14C12344   1.573   4.803   6.040 -3.1563  0.6766 -0.5934
  118OSM    C1312345   1.598   4.932   6.281 -0.6598  0.1618  0.8434
  118OSM   H13A12346   1.621   4.828   6.270 -1.5203  0.0188  0.3878
  118OSM   H13B12347   1.540   4.951   6.371  2.0371 -0.9883  2.9066
  118OSM   H13C12348   1.691   4.985   6.296 -0.9111  1.6151 -2.3807
  118OSM    C1212349   1.377   4.930   6.156  0.4355 -0.3226 -0.1626
  118OSM   H12A12350   1.352   4.926   6.051 -2.3106  2.5925  0.2926
  118OSM   H12B12351   1.315   5.007   6.200 -0.0133 -0.6691 -0.1911
  118OSM    C1112352   1.329   4.797   6.212 -0.9210 -0.2498  0.0634
  118OSM   H11A12353   1.222   4.803   6.182 -1.0430  2.6382  0.9996
  118OSM   H11B12354   1.341   4.800   6.322  1.9603 -3.1585 -0.0878
  118OSM      P12355   1.472   4.582   6.220 -0.3258  0.1986  0.2197
  118OSM    O1312356   1.444   4.440   6.173  0.2241 -0.4600 -0.2124
  118OSM    O1412357   1.610   4.630   6.202 -0.2689  0.4446  0.1879
  118OSM    O1112358   1.433   4.598   6.364 -0.0410  0.0366  0.2802
  118OSM    O1212359   1.387   4.688   6.146  0.0392 -0.1214  0.3202
  118OSM    C1S12360   1.510   4.548   6.473  0.7412 -0.4354  0.1888
  118OSM    H1S12361   1.610   4.595   6.463 -0.2052  1.4338 -0.7993
  118OSM    H1T12362   1.517   4.437   6.480 -0.7585 -0.4216  2.1853
  118OSM     NF12363   1.547   4.576   6.716  0.2015 -0.5286  0.1852
  118OSM    HNF12364   1.547   4.486   6.759 -2.5933 -0.4688  0.4436
  118OSM    C2S12365   1.447   4.590   6.611 -0.4490 -0.5259  0.9326
  118OSM    H2S12366   1.414   4.694   6.591  1.1267 -0.4270 -1.3831
  118OSM    C3S12367   1.328   4.499   6.643  0.2146 -0.5194 -0.1886
  118OSM    H3S12368   1.371   4.396   6.647  0.5717 -0.3013  2.3706
  118OSM     O312369   1.227   4.489   6.543 -0.1130 -0.6686  0.4733
  118OSM    HO312370   1.267   4.519   6.460 -1.9956  2.4804  0.6333
  118OSM    C4S12371   1.260   4.535   6.771  0.1739 -0.6376 -0.1588
  118OSM    H4S12372   1.238   4.641   6.790 -2.6268 -1.4027  1.1817
  118OSM    C5S12373   1.212   4.447   6.855  0.6031 -0.1553  0.3068
  118OSM    H5S12374   1.215   4.338   6.835 -0.8746 -0.3124  0.8989
  118OSM    C6S12375   1.146   4.491   6.987 -0.4884  0.1417  0.2361
  118OSM    H6S12376   1.104   4.593   6.972 -1.4441 -0.5074 -1.6778
  118OSM    H6T12377   1.227   4.484   7.062  1.9799 -2.4466 -2.5494
  118OSM    C7S12378   1.023   4.391   7.019  0.1569 -0.1857 -0.2251
  118OSM    H7S12379   1.070   4.291   7.024 -0.3540 -0.6359 -3.6276
  118OSM    H7T12380   0.950   4.389   6.936  1.0342 -0.0075 -0.9998
  118OSM    C8S12381   0.950   4.412   7.156 -0.1947  0.0647  0.0572
  118OSM    H8S12382   0.877   4.329   7.151 -1.4561  0.9937  2.5031
  118OSM    H8T12383   0.883   4.500   7.165  0.5687  0.9804 -2.4634
  118OSM    C9S12384   1.040   4.403   7.270 -0.3469  0.0433  0.0971
  118OSM    H9S12385   1.107   4.491   7.284 -0.6682  0.3683 -0.4004
  118OSM    H9T12386   1.106   4.314   7.261 -2.0092 -1.0188 -2.1342
  118OSM   C10S12387   0.956   4.387   7.393 -0.3598 -0.3114  0.0949
  118OSM   H10S12388   0.886   4.302   7.376 -0.8163 -0.4671  2.5709
  118OSM   H10T12389   0.885   4.470   7.412 -2.1293 -1.4855 -1.1521
  118OSM   C11S12390   1.032   4.364   7.523  0.2955 -0.7086 -0.4228
  118OSM   H11S12391   1.104   4.448   7.534  0.3143 -0.8594  0.6878
  118OSM   H11T12392   1.076   4.263   7.536 -0.0668 -0.5410  2.4724
  118OSM   C12S12393   0.941   4.389   7.645 -0.1540  0.0032  0.9673
  118OSM   H12S12394   0.872   4.475   7.632  0.1739  0.1315  0.0860
  118OSM   H12T12395   0.997   4.420   7.736  0.0832 -0.3656  0.9472
  118OSM   C13S12396   0.855   4.272   7.681  0.4966 -0.0022 -0.1044
  118OSM   H13S12397   0.905   4.173   7.676  0.1395 -0.1171 -1.4558
  118OSM   H13T12398   0.770   4.275   7.610 -0.4033  2.0322  1.0035
  118OSM   C14S12399   0.794   4.275   7.825 -0.9539  0.0213 -0.1959
  118OSM   H14S12400   0.728   4.188   7.846  0.0040 -0.8297 -0.6580
  118OSM   H14T12401   0.739   4.370   7.846  1.0150  1.4364 -1.2750
  118OSM   C15S12402   0.907   4.276   7.938  0.4623  0.2913 -1.0338
  118OSM   H15S12403   0.943   4.380   7.942  0.3187  0.3181 -0.3933
  118OSM   H15T12404   0.988   4.210   7.900  2.1771  0.7956  1.6605
  118OSM   C16S12405   0.867   4.229   8.079  0.1321  0.3406 -0.2490
  118OSM   H16S12406   0.848   4.119   8.077 -0.2769  0.3564  1.4933
  118OSM   H16T12407   0.770   4.267   8.116  1.1108  1.9539  0.7148
  118OSM   C17S12408   0.977   4.247   8.184 -0.1231 -0.9207 -0.7973
  118OSM   H17S12409   1.019   4.350   8.185 -0.2080 -0.8964  0.4064
  118OSM   H17T12410   1.061   4.182   8.152  0.2421  0.2662 -2.3641
  118OSM   C18S12411   0.928   4.201   8.326  0.4462 -0.4591 -0.5274
  118OSM   H18S12412   0.840   4.261   8.359  1.6352  1.4267 -0.7064
  118OSM   H18T12413   1.009   4.211   8.401 -0.5381 -2.1436  0.7785
  118OSM   H18U12414   0.903   4.094   8.341  0.0366 -0.4449 -1.1132
  118OSM    C1F12415   1.644   4.658   6.734  0.1632 -0.2847  0.1170
  118OSM     OF12416   1.648   4.759   6.664 -0.4827  0.2698  0.4801
  118OSM    C2F12417   1.747   4.615   6.831  0.1062  0.2985  0.3718
  118OSM    H2F12418   1.805   4.527   6.796  1.0835 -0.1092  2.9482
  118OSM    H2G12419   1.691   4.580   6.920 -0.4441 -0.3494 -0.2201
  118OSM    C3F12420   1.851   4.722   6.883 -0.0941  0.3432  0.0063
  118OSM    H3F12421   1.790   4.814   6.896  0.9422  0.8863  0.9844
  118OSM    H3G12422   1.915   4.746   6.795 -1.6570  0.4787 -1.1262
  118OSM    C4F12423   1.932   4.676   7.006 -0.5945 -0.1910 -0.0550
  118OSM    H4F12424   2.021   4.739   7.029 -2.3777  1.5210  2.3760
  118OSM    H4G12425   1.972   4.574   6.986 -0.2962  0.2449 -1.8190
  118OSM    C5F12426   1.855   4.677   7.131 -0.0899  0.2466 -0.0050
  118OSM    H5F12427   1.772   4.605   7.116 -0.0037  0.1169  0.1438
  118OSM    H5G12428   1.814   4.779   7.144 -0.7585 -0.1328  0.9878
  118OSM    C6F12429   1.935   4.633   7.254  0.4946 -1.1223 -0.2826
  118OSM    H6F12430   2.022   4.703   7.254  0.2385 -0.7736  2.6003
  118OSM    H6G12431   1.981   4.532   7.250  1.3250 -0.7680  0.2273
  118OSM    C7F12432   1.862   4.638   7.390  0.5492 -0.1848  1.1768
  118OSM    H7F12433   1.772   4.573   7.381  0.2480  0.5055 -1.1701
  118OSM    H7G12434   1.824   4.738   7.419 -0.7810  0.2857 -1.9695
  118OSM    C8F12435   1.953   4.590   7.512 -0.0447  0.5655  0.0996
  118OSM    H8F12436   2.055   4.635   7.502  1.2958 -2.4527 -0.2537
  118OSM    H8G12437   1.972   4.486   7.479  2.2832  1.0695 -0.3134
  118OSM    C9F12438   1.896   4.605   7.652 -0.1604 -0.0585 -0.2946
  118OSM    H9F12439   1.787   4.617   7.645 -0.5720 -3.4263 -0.7299
  118OSM   C10F12440   1.961   4.619   7.773  0.5341  0.6335  0.3690
  118OSM   H10F12441   1.906   4.626   7.868 -0.4502  1.0069 -0.2136
  118OSM   C11F12442   2.104   4.623   7.801  1.3717 -0.0733  0.7399
  118OSM   H11F12443   2.130   4.722   7.845  1.1884  0.1283  0.3976
  118OSM   H11G12444   2.160   4.620   7.705  0.7087 -0.4199  0.3647
  118OSM   C12F12445   2.164   4.517   7.900 -0.7054  0.0554  1.1722
  118OSM   H12F12446   2.268   4.555   7.909 -0.8455  0.6199  0.4545
  118OSM   H12G12447   2.164   4.417   7.852  0.5002 -0.0386  1.3570
  118OSM   C13F12448   2.096   4.501   8.037  0.1717 -0.1771 -0.1485
  118OSM   H13F12449   2.130   4.415   8.099  2.5973 -1.9115 -3.7111
  118OSM   H13G12450   1.986   4.497   8.028  0.2608  1.2438 -2.3013
  118OSM   C14F12451   2.098   4.631   8.131 -0.7104  0.9643  0.3230
  118OSM   H14F12452   2.032   4.709   8.088  1.8372  3.2141  0.4014
  118OSM   H14G12453   2.203   4.666   8.128 -0.2340 -0.4557 -0.1481
  118OSM   C15F12454   2.059   4.598   8.277  0.1376 -0.3397 -0.7725
  118OSM   H15F12455   2.119   4.513   8.317  0.9999  0.3320 -0.6373
  118OSM   H15G12456   1.952   4.568   8.283 -0.0141  0.2650 -0.4984
  118OSM   C16F12457   2.079   4.706   8.385 -0.1186  0.7149  0.5177
  118OSM   H16F12458   2.008   4.789   8.366  0.2527  0.9062 -0.0085
  118OSM   H16G12459   2.183   4.741   8.372 -0.1490  1.8449  3.0178
  118OSM   C17F12460   2.061   4.665   8.534 -0.1557 -0.0920 -0.3518
  118OSM   H17F12461   2.111   4.567   8.553  0.9587  0.4177 -0.6343
  118OSM   H17G12462   1.956   4.642   8.561 -0.1313 -0.9299 -0.9469
  118OSM   C18F12463   2.120   4.770   8.630 -0.0341  0.3705 -0.5021
  118OSM   H18F12464   2.067   4.867   8.622 -0.0159  0.3189 -1.2862
  118OSM   H18G12465   2.230   4.787   8.628  0.0864 -0.4651 -1.0145
  118OSM   H18H12466   2.098   4.743   8.735  0.6959  0.1005 -0.4158
  119OSM      N12467   2.846   3.319   5.790 -0.6434 -0.5576  0.0780
  119OSM    C1512468   2.979   3.309   5.857 -0.3604  0.9742  0.3733
  119OSM   H15A12469   3.056   3.301   5.782  0.0377  0.3557  0.8455
  119OSM   H15B12470   2.985   3.218   5.915 -0.8603  0.7033  0.0059
  119OSM   H15C12471   3.004   3.392   5.921  3.1751  1.6186 -1.7145
  119OSM    C1412472   2.844   3.451   5.721 -0.0463  0.0690 -0.4066
  119OSM   H14A12473   2.920   3.453   5.644 -1.0763 -0.2652 -1.4449
  119OSM   H14B12474   2.862   3.530   5.792  0.5432 -0.4281  0.0045
  119OSM   H14C12475   2.746   3.471   5.680 -0.7564 -0.5560  0.9720
  119OSM    C1312476   2.844   3.211   5.689 -0.4730 -0.3206  0.3185
  119OSM   H13A12477   2.755   3.208   5.627 -1.6005  0.5802  1.8521
  119OSM   H13B12478   2.853   3.115   5.739  4.0299 -1.5521 -2.5599
  119OSM   H13C12479   2.931   3.216   5.625  0.8952  1.1212  2.2381
  119OSM    C1212480   2.718   3.310   5.879  0.1750 -0.2841 -0.1281
  119OSM   H12A12481   2.718   3.213   5.927  1.8494 -0.2444 -0.0331
  119OSM   H12B12482   2.629   3.305   5.818  0.7880  0.8017 -1.1378
  119OSM    C1112483   2.691   3.408   5.998 -0.3502 -0.1103 -0.2441
  119OSM   H11A12484   2.763   3.385   6.079 -2.1594 -2.0016  0.8885
  119OSM   H11B12485   2.591   3.383   6.040 -1.2504  1.5624 -1.3295
  119OSM      P12486   2.563   3.617   5.911  0.3462  0.0156  0.3060
  119OSM    O1312487   2.593   3.734   5.823 -0.2563 -0.4734  0.8603
  119OSM    O1412488   2.480   3.513   5.856  0.5286  0.0393 -0.0542
  119OSM    O1112489   2.488   3.673   6.042 -0.1880 -0.6697 -0.4918
  119OSM    O1212490   2.695   3.552   5.972 -0.4638 -0.2754  0.5007
  119OSM    C1S12491   2.456   3.603   6.165  0.5436 -0.0959  0.5440
  119OSM    H1S12492   2.421   3.502   6.136 -1.9414  1.5046 -2.2212
  119OSM    H1T12493   2.366   3.649   6.211 -0.1981 -1.9203  0.9562
  119OSM     NF12494   2.523   3.529   6.401 -0.2160 -0.3387  0.6413
  119OSM    HNF12495   2.509   3.584   6.483 -0.7590  1.9839 -0.9292
  119OSM    C2S12496   2.569   3.596   6.275  0.4273 -0.4757  1.2489
  119OSM    H2S12497   2.646   3.529   6.231  0.1081 -0.8298  1.2199
  119OSM    C3S12498   2.616   3.739   6.297  0.1933  0.1390  0.4068
  119OSM    H3S12499   2.531   3.810   6.295 -1.0056 -1.2326  1.5425
  119OSM     O312500   2.688   3.788   6.185  0.1423 -0.1341  0.3217
  119OSM    HO312501   2.643   3.760   6.105  0.3846 -1.0477  0.5097
  119OSM    C4S12502   2.699   3.767   6.417 -0.6816  0.2369 -0.2011
  119OSM    H4S12503   2.639   3.774   6.509  0.0489 -1.3213  0.4148
  119OSM    C5S12504   2.833   3.774   6.425 -0.5202  1.0472  0.1412
  119OSM    H5S12505   2.901   3.745   6.343 -0.8546 -2.8485  1.1190
  119OSM    C6S12506   2.902   3.797   6.557 -0.1469  0.4475 -0.0308
  119OSM    H6S12507   3.003   3.842   6.546  0.7332 -1.2127  1.0758
  119OSM    H6T12508   2.913   3.698   6.606  0.3761 -0.0973 -1.2170
  119OSM    C7S12509   2.829   3.898   6.646 -0.2241 -0.4242  0.3330
  119OSM    H7S12510   2.732   3.858   6.685 -0.6067 -1.9991 -2.0999
  119OSM    H7T12511   2.817   3.989   6.583  1.6724 -0.3203  0.0930
  119OSM    C8S12512   2.906   3.935   6.775 -0.3680 -0.9117  0.0702
  119OSM    H8S12513   2.996   3.990   6.738 -1.5256  0.7614 -0.3326
  119OSM    H8T12514   2.932   3.840   6.825  1.1704 -0.4602  0.1719
  119OSM    C9S12515   2.820   4.024   6.876 -0.0090 -0.1560  0.1440
  119OSM    H9S12516   2.723   3.981   6.911 -0.4889  1.2872  0.6045
  119OSM    H9T12517   2.794   4.123   6.834  0.2532  0.4596  1.3910
  119OSM   C10S12518   2.906   4.058   7.003 -0.1982 -0.2763 -0.8370
  119OSM   H10S12519   2.999   4.118   6.993 -1.7010  2.1234 -0.8924
  119OSM   H10T12520   2.937   3.959   7.041  1.2165  0.8405  1.0035
  119OSM   C11S12521   2.814   4.111   7.114  0.1629 -0.2195  0.2046
  119OSM   H11S12522   2.717   4.061   7.095  2.2328 -3.0814 -3.4785
  119OSM   H11T12523   2.803   4.218   7.085 -2.7419 -0.9366 -1.4941
  119OSM   C12S12524   2.863   4.078   7.251 -0.6188 -0.4800 -0.1774
  119OSM   H12S12525   2.964   4.124   7.245 -1.6509  1.7971 -0.9928
  119OSM   H12T12526   2.870   3.970   7.273  1.0283  0.0200  1.9083
  119OSM   C13S12527   2.793   4.145   7.374  0.2655  0.3367  0.9033
  119OSM   H13S12528   2.687   4.111   7.385  0.0519  0.2166 -1.2718
  119OSM   H13T12529   2.771   4.251   7.346 -2.9193 -0.5313 -0.1179
  119OSM   C14S12530   2.860   4.130   7.507 -1.1803  0.1604 -0.2861
  119OSM   H14S12531   2.958   4.182   7.508 -0.5548 -1.0223 -0.2631
  119OSM   H14T12532   2.897   4.027   7.526 -0.2444  0.4911 -0.2769
  119OSM   C15S12533   2.786   4.186   7.633  0.0602 -0.2438 -0.4289
  119OSM   H15S12534   2.691   4.138   7.663 -0.0283  1.2087  1.7136
  119OSM   H15T12535   2.763   4.293   7.610 -2.6691 -0.7147 -0.1441
  119OSM   C16S12536   2.878   4.183   7.752 -0.1633  0.2374  0.0371
  119OSM   H16S12537   2.976   4.230   7.729  0.3508 -1.3289 -0.9835
  119OSM   H16T12538   2.900   4.077   7.774  0.4664  0.8348  2.4758
  119OSM   C17S12539   2.829   4.248   7.881  1.1055 -0.2263 -0.2434
  119OSM   H17S12540   2.726   4.208   7.896  1.4891 -1.9324 -1.9860
  119OSM   H17T12541   2.818   4.357   7.864  1.8535  0.4405  3.1254
  119OSM   C18S12542   2.926   4.230   8.002 -0.2466 -0.0161 -0.0247
  119OSM   H18S12543   2.946   4.123   8.024 -0.3056 -0.0429 -0.1019
  119OSM   H18T12544   2.891   4.281   8.094  0.5322 -0.6847  0.6559
  119OSM   H18U12545   3.019   4.283   7.977  0.1160 -0.2065  0.8804
  119OSM    C1F12546   2.476   3.408   6.413 -0.0727  0.7414  0.3177
  119OSM     OF12547   2.436   3.329   6.325  0.1016  0.4527 -0.4071
  119OSM    C2F12548   2.479   3.349   6.553  0.3697 -0.2595 -0.0163
  119OSM    H2F12549   2.446   3.243   6.546 -0.8735 -0.0187  1.7445
  119OSM    H2G12550   2.406   3.406   6.615 -0.0539  0.5801 -1.2779
  119OSM    C3F12551   2.617   3.365   6.627  0.4369 -0.2824 -0.5037
  119OSM    H3F12552   2.634   3.469   6.664 -0.0267 -1.3824  2.9714
  119OSM    H3G12553   2.703   3.330   6.567  0.6819 -0.5889  0.0285
  119OSM    C4F12554   2.626   3.272   6.751 -0.1703 -0.0670  0.3147
  119OSM    H4F12555   2.617   3.162   6.733 -2.2164  0.3710 -1.4970
  119OSM    H4G12556   2.528   3.287   6.801  0.9016  0.8248  2.2224
  119OSM    C5F12557   2.750   3.302   6.846  0.4361 -0.7182 -0.0430
  119OSM    H5F12558   2.757   3.412   6.850  1.9985 -0.7715 -1.1144
  119OSM    H5G12559   2.843   3.268   6.795 -0.4048 -1.9228 -0.8092
  119OSM    C6F12560   2.731   3.250   6.993 -0.3962  0.3467  0.1643
  119OSM    H6F12561   2.724   3.139   6.984  0.8927  0.4702 -2.9088
  119OSM    H6G12562   2.631   3.287   7.025 -1.3024  1.3143 -3.5515
  119OSM    C7F12563   2.840   3.304   7.085  0.1264  0.5375 -0.0474
  119OSM    H7F12564   2.842   3.415   7.089 -0.0819  0.5638 -0.6906
  119OSM    H7G12565   2.936   3.252   7.062 -1.7895 -2.5919 -1.2445
  119OSM    C8F12566   2.816   3.253   7.234 -0.0337 -0.4181  0.0289
  119OSM    H8F12567   2.814   3.142   7.229  1.6585 -0.5881  2.2801
  119OSM    H8G12568   2.716   3.286   7.270  0.0550 -0.2844  0.1576
  119OSM    C9F12569   2.923   3.274   7.331 -0.2059 -0.5513  0.3210
  119OSM    H9F12570   3.024   3.264   7.289  0.0993 -1.0256  1.1467
  119OSM   C10F12571   2.899   3.327   7.450  0.3423  1.0704 -0.1071
  119OSM   H10F12572   2.981   3.336   7.523  0.1747  1.9290 -0.0231
  119OSM   C11F12573   2.760   3.340   7.509  0.2007  0.4889  0.0449
  119OSM   H11F12574   2.708   3.244   7.489  0.9082  0.0311  0.3837
  119OSM   H11G12575   2.700   3.414   7.453  2.1318  0.8921 -1.5515
  119OSM   C12F12576   2.765   3.384   7.662  0.4192 -0.1162  0.3487
  119OSM   H12F12577   2.666   3.422   7.697  1.5923  2.1675  1.2781
  119OSM   H12G12578   2.840   3.465   7.667  0.6220  0.0187 -3.2633
  119OSM   C13F12579   2.818   3.275   7.751  0.0328 -0.0434 -0.3049
  119OSM   H13F12580   2.923   3.254   7.721 -0.0755  0.3764 -0.9835
  119OSM   H13G12581   2.772   3.175   7.737  2.6330 -1.2658 -0.3096
  119OSM   C14F12582   2.814   3.308   7.908  0.6788 -0.6879  0.8269
  119OSM   H14F12583   2.715   3.295   7.956  1.2280  0.3515  2.2720
  119OSM   H14G12584   2.855   3.410   7.926  0.1281 -0.2237 -0.5067
  119OSM   C15F12585   2.904   3.208   7.980 -0.1006 -0.8264 -0.5568
  119OSM   H15F12586   2.982   3.182   7.906  0.0031 -1.7319 -0.1273
  119OSM   H15G12587   2.855   3.112   8.006  0.5721 -0.4403  2.3330
  119OSM   C16F12588   2.967   3.264   8.107  0.6619 -0.4688  0.6709
  119OSM   H16F12589   2.899   3.267   8.195 -0.5941 -3.0291 -0.1501
  119OSM   H16G12590   3.003   3.367   8.086  1.8257 -1.0195 -0.1030
  119OSM   C17F12591   3.092   3.186   8.154 -0.0743  0.5661 -0.2835
  119OSM   H17F12592   3.072   3.078   8.142 -0.2515  0.2893  2.2566
  119OSM   H17G12593   3.106   3.202   8.263  0.1036 -1.2184 -0.0328
  119OSM   C18F12594   3.219   3.233   8.084 -0.4412 -0.0243  0.1173
  119OSM   H18F12595   3.311   3.176   8.111  0.6388  1.7345  0.2374
  119OSM   H18G12596   3.243   3.337   8.114 -0.2613 -0.3704  1.1831
  119OSM   H18H12597   3.207   3.231   7.974 -1.4608  0.1828  0.2200
  120OSM      N12598   0.524   1.444   6.327 -0.7230  0.0920  0.3389
  120OSM    C1512599   0.380   1.404   6.324  0.0666 -0.6803  0.5376
  120OSM   H15A12600   0.339   1.410   6.424  0.0632  1.3983  0.4169
  120OSM   H15B12601   0.365   1.303   6.287 -2.3879 -0.4696  0.8740
  120OSM   H15C12602   0.330   1.483   6.271 -0.4121 -0.0029  1.9722
  120OSM    C1412603   0.584   1.465   6.194 -0.4192  0.2001 -0.2182
  120OSM   H14A12604   0.591   1.376   6.133 -1.6439  0.1968 -0.3592
  120OSM   H14B12605   0.688   1.490   6.206 -0.6091  0.2459  1.4180
  120OSM   H14C12606   0.546   1.551   6.140  2.5734  0.0348 -2.7261
  120OSM    C1312607   0.546   1.571   6.413  0.7565  0.2350 -0.8794
  120OSM   H13A12608   0.649   1.578   6.446 -0.0933  0.7624  1.8596
  120OSM   H13B12609   0.487   1.576   6.504 -1.2589 -0.6829 -2.0988
  120OSM   H13C12610   0.518   1.657   6.355  0.9017 -0.2934 -1.7433
  120OSM    C1212611   0.598   1.332   6.404 -0.2447  0.0329  0.6922
  120OSM   H12A12612   0.700   1.365   6.414 -0.6540  1.1576  1.2258
  120OSM   H12B12613   0.600   1.243   6.342  0.4418  0.3011  0.3265
  120OSM    C1112614   0.550   1.290   6.549 -0.6732  0.2116  0.3260
  120OSM   H11A12615   0.579   1.365   6.626  0.3281 -2.1706  2.3480
  120OSM   H11B12616   0.613   1.202   6.574 -0.2973  0.2557 -0.4539
  120OSM      P12617   0.364   1.106   6.517 -0.1819  0.4998 -0.7321
  120OSM    O1312618   0.241   1.139   6.440 -0.1113 -0.6410  0.3396
  120OSM    O1412619   0.477   1.042   6.450 -0.5575 -0.1403 -0.6948
  120OSM    O1112620   0.330   1.037   6.653 -0.0018 -0.4919  0.4032
  120OSM    O1212621   0.412   1.251   6.567  0.3222  1.0551 -0.1759
  120OSM    C1S12622   0.432   1.030   6.757  0.8006  0.9082 -0.2913
  120OSM    H1S12623   0.445   1.126   6.810 -1.5054  0.7409  0.6443
  120OSM    H1T12624   0.532   1.005   6.716  2.5357  1.6105  3.3588
  120OSM     NF12625   0.513   0.935   6.973  0.0184  0.1571 -0.5077
  120OSM    HNF12626   0.583   0.865   6.982 -1.7624 -1.6804 -0.4834
  120OSM    C2S12627   0.420   0.923   6.867  1.0222  0.1524  0.3176
  120OSM    H2S12628   0.316   0.926   6.906 -0.2504  0.9000 -2.9905
  120OSM    C3S12629   0.441   0.785   6.798 -0.4103 -0.0587  0.5050
  120OSM    H3S12630   0.544   0.800   6.759 -0.3424  1.6505  1.3258
  120OSM     O312631   0.364   0.762   6.680 -0.1275  0.2993  0.6074
  120OSM    HO312632   0.342   0.850   6.649  0.0125  0.5981  1.3345
  120OSM    C4S12633   0.441   0.668   6.898 -0.7348 -0.5051  0.2558
  120OSM    H4S12634   0.538   0.649   6.948 -1.2071  0.2360  1.4639
  120OSM    C5S12635   0.334   0.591   6.928 -0.1099  0.1939 -0.2975
  120OSM    H5S12636   0.241   0.599   6.868  0.1989 -0.0769 -0.8150
  120OSM    C6S12637   0.335   0.473   7.026  0.4042 -0.6672  0.4477
  120OSM    H6S12638   0.303   0.381   6.973 -0.0935 -0.8538  1.0736
  120OSM    H6T12639   0.254   0.493   7.099  0.4188 -0.6491  0.4597
  120OSM    C7S12640   0.466   0.441   7.104  0.2097 -0.5275 -0.5180
  120OSM    H7S12641   0.547   0.427   7.030  0.5414  1.6181 -0.5826
  120OSM    H7T12642   0.451   0.338   7.144  0.0411 -0.4480 -0.3765
  120OSM    C8S12643   0.506   0.539   7.215  0.2004 -0.2614  0.0505
  120OSM    H8S12644   0.444   0.529   7.307  1.7375 -2.6060  0.8817
  120OSM    H8T12645   0.495   0.635   7.160  2.3636 -0.7033 -1.1945
  120OSM    C9S12646   0.649   0.536   7.250  0.1677  0.1140  0.0455
  120OSM    H9S12647   0.679   0.627   7.307  2.2174 -1.0886  0.9586
  120OSM    H9T12648   0.718   0.524   7.164  2.4000 -0.2992  1.8102
  120OSM   C10S12649   0.674   0.417   7.348 -0.2030 -0.1472 -0.5547
  120OSM   H10S12650   0.784   0.406   7.355 -0.1147  1.0012 -0.1019
  120OSM   H10T12651   0.642   0.323   7.298 -0.7882 -0.1313 -0.2216
  120OSM   C11S12652   0.614   0.437   7.489  0.0482  0.5364 -0.7514
  120OSM   H11S12653   0.505   0.451   7.476  0.1300  3.7075  1.2782
  120OSM   H11T12654   0.666   0.519   7.543  0.7594  0.2920 -1.0589
  120OSM   C12S12655   0.645   0.312   7.576 -0.3066  0.1558  0.4531
  120OSM   H12S12656   0.756   0.303   7.575 -0.2142  1.2698 -1.8289
  120OSM   H12T12657   0.596   0.221   7.535  0.2505 -1.4213  3.1677
  120OSM   C13S12658   0.596   0.320   7.719 -0.1068 -0.1314  0.2087
  120OSM   H13S12659   0.489   0.347   7.713  0.8302  4.1321  1.0360
  120OSM   H13T12660   0.650   0.402   7.771  1.1475 -0.8078  0.0236
  120OSM   C14S12661   0.611   0.180   7.788  0.3293 -0.5648 -0.7661
  120OSM   H14S12662   0.719   0.153   7.786  0.4163 -0.2731 -0.1036
  120OSM   H14T12663   0.548   0.110   7.729 -1.0421  1.2660 -1.5151
  120OSM   C15S12664   0.559   0.171   7.932 -0.0744 -0.2711 -0.3865
  120OSM   H15S12665   0.539   0.064   7.956  0.4820 -0.5533 -1.1489
  120OSM   H15T12666   0.459   0.220   7.937  0.3590  0.5222  0.4988
  120OSM   C16S12667   0.653   0.223   8.036  0.0301 -0.3218 -0.2457
  120OSM   H16S12668   0.677   0.324   7.994  0.4076  0.3597  1.5572
  120OSM   H16T12669   0.743   0.159   8.045 -0.5487 -1.4004 -1.9121
  120OSM   C17S12670   0.588   0.242   8.184 -0.0789 -0.6127 -0.4257
  120OSM   H17S12671   0.678   0.240   8.248  1.1609 -2.2854 -2.1493
  120OSM   H17T12672   0.531   0.151   8.210  1.3986 -1.9747 -1.8517
  120OSM   C18S12673   0.506   0.364   8.207 -0.1237  0.4709 -0.6722
  120OSM   H18S12674   0.454   0.387   8.112 -1.1761  1.2175  0.0769
  120OSM   H18T12675   0.568   0.454   8.229 -2.0858  2.0500 -1.4885
  120OSM   H18U12676   0.424   0.348   8.280  0.0151  1.2720 -0.3363
  120OSM    C1F12677   0.503   1.032   7.069  0.1075  0.0498  0.2294
  120OSM     OF12678   0.412   1.118   7.062  0.3134 -0.3607  0.4366
  120OSM    C2F12679   0.610   1.026   7.175  0.1198  0.2590  0.0487
  120OSM    H2F12680   0.677   1.114   7.177 -1.6484  1.6172  3.4087
  120OSM    H2G12681   0.665   0.934   7.146  2.9868  1.3191  1.8659
  120OSM    C3F12682   0.555   0.998   7.320 -0.2163 -0.9385 -0.6030
  120OSM    H3F12683   0.643   0.970   7.381  1.2700 -1.3488 -2.8590
  120OSM    H3G12684   0.490   0.907   7.321 -1.2720 -0.1813  0.0432
  120OSM    C4F12685   0.479   1.118   7.372 -0.2375 -0.8306  0.0101
  120OSM    H4F12686   0.405   1.154   7.297 -3.1250 -0.4922  2.9167
  120OSM    H4G12687   0.561   1.192   7.381 -0.8483 -0.3128  1.3754
  120OSM    C5F12688   0.409   1.099   7.508  0.0819 -0.1464 -0.9628
  120OSM    H5F12689   0.480   1.079   7.591 -1.3841  0.1715  0.3891
  120OSM    H5G12690   0.340   1.012   7.499  0.3868 -0.3975 -0.8802
  120OSM    C6F12691   0.318   1.219   7.553 -0.3386  0.0695  0.5546
  120OSM    H6F12692   0.259   1.252   7.465  1.7810  2.6431  0.0284
  120OSM    H6G12693   0.380   1.309   7.575  0.2023 -0.3638  0.8169
  120OSM    C7F12694   0.222   1.192   7.674  0.2847 -0.6662 -0.0436
  120OSM    H7F12695   0.134   1.132   7.643 -0.8889  1.0672 -0.1479
  120OSM    H7G12696   0.182   1.279   7.731  2.0069 -0.6248  1.1519
  120OSM    C8F12697   0.283   1.112   7.793 -0.1554 -0.2713  0.1858
  120OSM    H8F12698   0.315   1.022   7.735 -0.9837 -0.2401 -0.3326
  120OSM    H8G12699   0.200   1.082   7.860  0.7842 -2.9236  0.2380
  120OSM    C9F12700   0.392   1.167   7.875 -0.2552 -0.1158  0.0081
  120OSM    H9F12701   0.493   1.151   7.835 -1.1105 -1.0421 -1.8049
  120OSM   C10F12702   0.383   1.226   7.992  0.2479 -0.6403  0.6406
  120OSM   H10F12703   0.474   1.266   8.040  2.6900 -2.7949 -1.9556
  120OSM   C11F12704   0.258   1.262   8.063 -0.8740  0.7170  0.4886
  120OSM   H11F12705   0.162   1.228   8.018 -0.9072  1.1291  0.2404
  120OSM   H11G12706   0.258   1.373   8.058  1.1745  0.7425  0.6267
  120OSM   C12F12707   0.246   1.205   8.208 -1.2947 -0.3971  0.1625
  120OSM   H12F12708   0.332   1.235   8.272 -1.4092  0.8163 -0.2366
  120OSM   H12G12709   0.249   1.094   8.210 -0.7242 -0.3768  0.6621
  120OSM   C13F12710   0.114   1.254   8.273 -0.0677  0.0401 -0.4944
  120OSM   H13F12711   0.030   1.273   8.203 -0.2937  0.9952  0.0258
  120OSM   H13G12712   0.134   1.354   8.317  2.6922 -0.1238 -1.2918
  120OSM   C14F12713   0.055   1.158   8.375  0.5070  0.1776 -0.8547
  120OSM   H14F12714   0.129   1.154   8.458 -0.9380  1.7449  0.5534
  120OSM   H14G12715   0.051   1.056   8.330 -1.7474 -0.1001 -0.1262
  120OSM   C15F12716  -0.091   1.188   8.424  0.0907 -0.3421 -0.2532
  120OSM   H15F12717  -0.111   1.094   8.480  0.7702  1.0001  2.3152
  120OSM   H15G12718  -0.167   1.193   8.344 -0.1168  0.8666  0.0082
  120OSM   C16F12719  -0.087   1.324   8.500 -0.3465  0.0939  0.7646
  120OSM   H16F12720  -0.092   1.411   8.431 -1.9702 -0.0192  0.7326
  120OSM   H16G12721   0.011   1.337   8.551  0.1850 -1.0448  0.0800
  120OSM   C17F12722  -0.197   1.347   8.604 -0.0980  0.5208  0.6348
  120OSM   H17F12723  -0.190   1.261   8.675  0.3600 -1.0196 -1.2400
  120OSM   H17G12724  -0.301   1.338   8.567  0.2144  2.3176 -0.7240
  120OSM   C18F12725  -0.189   1.476   8.685  0.1329 -0.0025 -0.7891
  120OSM   H18F12726  -0.186   1.567   8.620 -3.2037 -1.2865 -2.8818
  120OSM   H18G12727  -0.100   1.467   8.750 -1.4377  1.0451  1.5560
  120OSM   H18H12728  -0.273   1.482   8.758  0.1076  3.6067 -1.0376
  121OSM      N12729   1.600   2.203   5.839  0.7686 -0.1118  0.0693
  121OSM    C1512730   1.534   2.064   5.851 -0.2821 -0.3554 -0.9285
  121OSM   H15A12731   1.574   1.991   5.782 -0.2447 -0.2707 -0.9952
  121OSM   H15B12732   1.427   2.068   5.836 -0.3161 -0.0969 -0.6263
  121OSM   H15C12733   1.551   2.027   5.951  0.4667 -0.1732 -0.9887
  121OSM    C1412734   1.747   2.171   5.832  0.4199 -0.1402 -0.4571
  121OSM   H14A12735   1.791   2.268   5.814 -1.4772  0.7733 -0.3150
  121OSM   H14B12736   1.773   2.106   5.750 -1.0043 -0.2197 -0.8538
  121OSM   H14C12737   1.798   2.144   5.923  1.0838  2.8024  0.0923
  121OSM    C1312738   1.561   2.251   5.704 -0.1207  0.4894 -0.5806
  121OSM   H13A12739   1.591   2.180   5.628 -1.4670  0.1464 -0.7899
  121OSM   H13B12740   1.611   2.344   5.683  0.1846  0.4839  0.0956
  121OSM   H13C12741   1.455   2.266   5.697 -0.0985  0.0926 -2.0468
  121OSM    C1212742   1.554   2.305   5.945 -0.4609  0.2057 -0.0366
  121OSM   H12A12743   1.446   2.307   5.949 -0.5599  1.0639 -2.7785
  121OSM   H12B12744   1.579   2.408   5.926 -1.3584  0.3701 -0.3459
  121OSM    C1112745   1.600   2.272   6.089 -0.3762 -0.5773 -0.0521
  121OSM   H11A12746   1.590   2.163   6.105  3.0068 -0.7733  1.1586
  121OSM   H11B12747   1.534   2.314   6.168  0.7937  0.7912  0.2168
  121OSM      P12748   1.784   2.455   6.111 -0.4360 -0.2092 -0.0210
  121OSM    O1312749   1.886   2.480   6.010  0.3208 -0.0176 -0.4295
  121OSM    O1412750   1.672   2.548   6.107 -0.1370  0.3642 -0.1781
  121OSM    O1112751   1.854   2.465   6.248  0.4265  0.2152 -0.7162
  121OSM    O1212752   1.738   2.307   6.106 -0.0067 -0.0428 -0.2865
  121OSM    C1S12753   1.953   2.373   6.298 -0.5087  0.3555 -0.1819
  121OSM    H1S12754   2.048   2.386   6.241 -1.3791  1.2706 -1.4515
  121OSM    H1T12755   1.921   2.268   6.281  1.1747  0.2336 -2.9800
  121OSM     NF12756   2.102   2.351   6.490 -0.1758  0.3377 -0.3834
  121OSM    HNF12757   2.110   2.276   6.555 -1.5255 -0.2608 -0.8951
  121OSM    C2S12758   1.979   2.408   6.449 -0.1729  0.1195  0.3950
  121OSM    H2S12759   1.990   2.518   6.454  1.0463  0.2026 -2.9476
  121OSM    C3S12760   1.859   2.367   6.533  0.4879  0.0944  0.9149
  121OSM    H3S12761   1.851   2.256   6.529 -3.0346  0.3019  0.1152
  121OSM     O312762   1.738   2.401   6.466 -0.0526 -0.0846  0.0080
  121OSM    HO312763   1.780   2.406   6.380  1.2112 -1.0095  0.5558
  121OSM    C4S12764   1.867   2.428   6.662  0.3760 -0.1896 -0.3968
  121OSM    H4S12765   1.867   2.538   6.659  1.5396 -0.1020  1.6415
  121OSM    C5S12766   1.872   2.375   6.782  0.4645 -0.3989  0.7361
  121OSM    H5S12767   1.857   2.268   6.797  1.7504 -1.0886 -2.4377
  121OSM    C6S12768   1.871   2.461   6.901 -0.4283 -0.0606  0.4413
  121OSM    H6S12769   1.974   2.503   6.910 -0.7954  0.8135  0.6766
  121OSM    H6T12770   1.857   2.402   6.993 -0.1798  2.3735  2.0981
  121OSM    C7S12771   1.773   2.578   6.896  0.1805 -0.4309 -0.8849
  121OSM    H7S12772   1.675   2.540   6.862  0.5919 -2.0838 -0.2805
  121OSM    H7T12773   1.806   2.661   6.829  0.7785 -1.6498 -2.1271
  121OSM    C8S12774   1.746   2.634   7.029 -0.5749 -0.4570 -0.0456
  121OSM    H8S12775   1.715   2.566   7.111 -0.2539 -0.8148 -0.2216
  121OSM    H8T12776   1.672   2.717   7.021 -1.3871 -1.2669 -1.0868
  121OSM    C9S12777   1.875   2.694   7.094 -0.5576  0.0213  0.5054
  121OSM    H9S12778   1.908   2.774   7.025  0.8109 -2.9704 -2.4625
  121OSM    H9T12779   1.953   2.616   7.082  1.0832  2.0586 -2.8520
  121OSM   C10S12780   1.852   2.723   7.244  0.3871 -0.2622 -0.2780
  121OSM   H10S12781   1.826   2.638   7.311 -0.6720 -1.0537 -1.6632
  121OSM   H10T12782   1.761   2.786   7.251 -0.0568 -0.6544 -2.2458
  121OSM   C11S12783   1.977   2.796   7.295  0.5125  0.2368 -0.0679
  121OSM   H11S12784   2.004   2.889   7.242 -0.0795  0.5057  0.0899
  121OSM   H11T12785   2.065   2.728   7.290  0.3997  0.2166 -2.0341
  121OSM   C12S12786   1.961   2.823   7.450  0.5066  0.2308 -0.1793
  121OSM   H12S12787   1.854   2.843   7.471  0.5717  0.1479  0.2280
  121OSM   H12T12788   2.011   2.920   7.471 -0.8901  1.0263 -0.4631
  121OSM   C13S12789   1.991   2.704   7.545 -0.1485 -0.1587  0.1470
  121OSM   H13S12790   1.943   2.610   7.509  2.3617 -1.5572  0.3400
  121OSM   H13T12791   1.944   2.714   7.644 -1.0071  0.6570 -0.3392
  121OSM   C14S12792   2.137   2.687   7.576  0.1365 -0.2096 -0.3820
  121OSM   H14S12793   2.182   2.785   7.600 -0.1549 -0.4905  1.3367
  121OSM   H14T12794   2.177   2.635   7.485  0.2652 -0.7479 -0.0228
  121OSM   C15S12795   2.178   2.599   7.700 -0.3329 -0.4556  0.3653
  121OSM   H15S12796   2.131   2.641   7.792 -1.6451 -0.5629 -0.2482
  121OSM   H15T12797   2.288   2.603   7.708 -0.2098  0.2052 -1.5651
  121OSM   C16S12798   2.134   2.445   7.682  0.8856 -0.1561 -0.1649
  121OSM   H16S12799   2.173   2.407   7.585  0.1584 -1.5215  0.0649
  121OSM   H16T12800   2.023   2.443   7.680  0.8881  0.3706 -1.2902
  121OSM   C17S12801   2.190   2.362   7.798  0.1445 -0.4919  0.3706
  121OSM   H17S12802   2.103   2.325   7.857 -1.0148  0.8602 -0.4417
  121OSM   H17T12803   2.247   2.425   7.869  1.5195 -0.8499 -0.4122
  121OSM   C18S12804   2.265   2.239   7.742 -0.2384 -0.4565 -0.1256
  121OSM   H18S12805   2.207   2.174   7.673  0.0536 -1.6373  0.7243
  121OSM   H18T12806   2.297   2.166   7.820  0.2348  1.3282  1.3867
  121OSM   H18U12807   2.359   2.269   7.692 -0.2741  1.4490  0.9187
  121OSM    C1F12808   2.224   2.398   6.454 -0.0426  0.0355  0.1269
  121OSM     OF12809   2.235   2.504   6.385  0.6997  0.1630 -0.5699
  121OSM    C2F12810   2.348   2.318   6.490  0.2248  0.7922  0.3922
  121OSM    H2F12811   2.396   2.294   6.393  1.4530  1.8648  0.7009
  121OSM    H2G12812   2.327   2.222   6.540 -0.3430  0.6541 -0.1107
  121OSM    C3F12813   2.444   2.389   6.584  0.4560  0.4604  0.3040
  121OSM    H3F12814   2.461   2.496   6.560  0.4946  0.8772  2.1053
  121OSM    H3G12815   2.539   2.336   6.566  0.4391  0.5239  0.0280
  121OSM    C4F12816   2.389   2.369   6.727 -0.1416 -0.3027 -0.3852
  121OSM    H4F12817   2.382   2.260   6.745  2.9737 -0.5507 -0.3661
  121OSM    H4G12818   2.292   2.420   6.744 -0.6327 -0.7871 -1.7293
  121OSM    C5F12819   2.494   2.418   6.830  0.5214 -0.7479 -0.0042
  121OSM    H5F12820   2.508   2.527   6.814 -1.5175 -0.5875 -0.8999
  121OSM    H5G12821   2.595   2.384   6.799 -0.0396  0.5968 -3.5964
  121OSM    C6F12822   2.468   2.379   6.976  0.6877  0.0972 -0.1714
  121OSM    H6F12823   2.549   2.397   7.049  0.8160 -0.3439 -0.2057
  121OSM    H6G12824   2.442   2.272   6.992 -1.0871  0.7057  1.2488
  121OSM    C7F12825   2.337   2.446   7.028  0.0165 -0.3832  0.1325
  121OSM    H7F12826   2.245   2.402   6.982  0.3168  0.5298 -1.3595
  121OSM    H7G12827   2.350   2.549   6.988  0.8325 -0.5368 -0.0112
  121OSM    C8F12828   2.325   2.454   7.178  0.1709  1.0803 -0.3019
  121OSM    H8F12829   2.241   2.519   7.209 -0.3263  1.0987 -1.6695
  121OSM    H8G12830   2.415   2.507   7.217  0.3760 -1.6969  3.3608
  121OSM    C9F12831   2.314   2.325   7.250 -0.0865  0.0503  0.1601
  121OSM    H9F12832   2.406   2.289   7.299  1.3432  2.7263 -0.4449
  121OSM   C10F12833   2.201   2.256   7.277  0.1011  0.1999 -0.4824
  121OSM   H10F12834   2.207   2.169   7.344 -0.6054 -0.7769 -1.6527
  121OSM   C11F12835   2.061   2.301   7.245  0.1067  0.5837 -0.0783
  121OSM   H11F12836   2.018   2.235   7.166 -1.9045 -0.2247  1.6703
  121OSM   H11G12837   2.057   2.402   7.198  1.6245  0.4254 -0.5757
  121OSM   C12F12838   1.978   2.294   7.383 -0.0541 -0.0692 -0.4162
  121OSM   H12F12839   2.014   2.362   7.463 -0.8273 -2.2841  1.8950
  121OSM   H12G12840   2.000   2.195   7.430 -1.1215 -1.0864 -2.0216
  121OSM   C13F12841   1.830   2.323   7.377 -0.5836  0.0766  0.0941
  121OSM   H13F12842   1.795   2.256   7.296  0.0811  0.8818 -0.8720
  121OSM   H13G12843   1.800   2.420   7.331 -1.2520  0.1790  0.7437
  121OSM   C14F12844   1.753   2.292   7.498 -0.2562 -0.2432  0.3252
  121OSM   H14F12845   1.797   2.197   7.534  0.2522 -0.5442 -1.0622
  121OSM   H14G12846   1.654   2.260   7.459 -0.4573 -0.3749  0.9407
  121OSM   C15F12847   1.754   2.407   7.604 -0.2264  0.3804 -0.2613
  121OSM   H15F12848   1.683   2.485   7.571 -2.2195 -1.3270 -0.0615
  121OSM   H15G12849   1.859   2.443   7.598  0.3948 -1.5182 -0.9914
  121OSM   C16F12850   1.710   2.354   7.745 -0.6397 -0.1161  0.1387
  121OSM   H16F12851   1.781   2.277   7.783 -2.6107 -1.7903  0.5728
  121OSM   H16G12852   1.607   2.318   7.721 -1.1684  2.3176 -1.3322
  121OSM   C17F12853   1.704   2.465   7.855 -0.3415 -0.0816  0.4537
  121OSM   H17F12854   1.689   2.426   7.958 -1.3173 -1.4485 -0.1832
  121OSM   H17G12855   1.618   2.530   7.829  0.5870 -0.2695 -3.3362
  121OSM   C18F12856   1.840   2.543   7.864 -0.2775 -0.2020  0.1207
  121OSM   H18F12857   1.864   2.595   7.768 -1.0243 -0.2431 -0.0982
  121OSM   H18G12858   1.922   2.472   7.886  1.0759  1.3637  0.1822
  121OSM   H18H12859   1.827   2.619   7.944  1.3510  1.4477 -1.1444
  122OSM      N12860   0.258   4.513   5.780 -0.7871 -0.2868 -0.3525
  122OSM    C1512861   0.122   4.461   5.810 -0.1326 -0.4490  0.1055
  122OSM   H15A12862   0.077   4.445   5.714 -2.0265  0.5945  0.8002
  122OSM   H15B12863   0.072   4.540   5.865 -0.1565 -0.2720 -0.1723
  122OSM   H15C12864   0.118   4.366   5.862 -3.8292 -0.3012  0.1920
  122OSM    C1412865   0.357   4.398   5.748 -0.2819  0.6040  0.5044
  122OSM   H14A12866   0.353   4.327   5.829 -0.4810 -1.4628 -1.2600
  122OSM   H14B12867   0.453   4.443   5.730  0.0070 -0.6402 -1.1802
  122OSM   H14C12868   0.336   4.347   5.655  1.6495  0.1219  0.3030
  122OSM    C1312869   0.246   4.618   5.673 -0.3134 -0.1174  0.5483
  122OSM   H13A12870   0.344   4.630   5.629 -0.4070 -0.9209  0.1272
  122OSM   H13B12871   0.200   4.708   5.714  0.3736 -0.7820  2.8609
  122OSM   H13C12872   0.188   4.586   5.588  0.1841  0.2342  0.0736
  122OSM    C1212873   0.311   4.583   5.899 -0.6532 -0.3010 -0.4830
  122OSM   H12A12874   0.333   4.506   5.970  3.4481  1.0472 -0.1652
  122OSM   H12B12875   0.227   4.640   5.938  1.2814  0.4210  2.8265
  122OSM    C1112876   0.449   4.666   5.894  0.0449 -0.3090  0.4559
  122OSM   H11A12877   0.437   4.716   5.993 -3.9003 -0.8716  0.3701
  122OSM   H11B12878   0.454   4.747   5.818 -3.8027 -0.7156 -0.3643
  122OSM      P12879   0.702   4.637   5.914 -0.1728  0.2788  0.0189
  122OSM    O1312880   0.801   4.533   5.912  0.6432 -0.3961  0.5853
  122OSM    O1412881   0.727   4.758   5.835 -0.2859 -0.3146 -0.7847
  122OSM    O1112882   0.693   4.684   6.065  0.8959  0.0283  0.2621
  122OSM    O1212883   0.557   4.577   5.888 -0.0732  0.1553  0.0681
  122OSM    C1S12884   0.795   4.674   6.165  0.4632 -0.5137  0.0134
  122OSM    H1S12885   0.876   4.749   6.151  1.6321 -1.8146 -0.2661
  122OSM    H1T12886   0.845   4.575   6.176  0.7640 -0.0727  3.0188
  122OSM     NF12887   0.854   4.710   6.406 -0.3208 -1.0314 -0.0474
  122OSM    HNF12888   0.869   4.633   6.467  0.6410 -1.6577 -1.0621
  122OSM    C2S12889   0.744   4.693   6.316 -0.6726  0.4687 -0.1105
  122OSM    H2S12890   0.680   4.784   6.317 -1.6862 -0.2298  0.4376
  122OSM    C3S12891   0.647   4.570   6.348 -0.0229 -0.0334 -0.2197
  122OSM    H3S12892   0.696   4.471   6.357 -2.1323 -1.1597 -0.9563
  122OSM     O312893   0.546   4.549   6.245 -0.3826  0.6335  0.3742
  122OSM    HO312894   0.571   4.618   6.182  0.9567 -1.5832 -1.5862
  122OSM    C4S12895   0.573   4.615   6.469  0.3285  0.4220  0.6951
  122OSM    H4S12896   0.514   4.706   6.449 -0.0598 -0.2279 -1.1842
  122OSM    C5S12897   0.566   4.547   6.586  0.5746  1.2404 -0.6832
  122OSM    H5S12898   0.607   4.445   6.595 -0.1690  1.0185  0.3296
  122OSM    C6S12899   0.500   4.589   6.722 -0.0970  0.2608  0.1861
  122OSM    H6S12900   0.410   4.533   6.754  1.7230 -2.4538  0.7259
  122OSM    H6T12901   0.476   4.696   6.701  0.6553  0.6528  1.2910
  122OSM    C7S12902   0.589   4.598   6.843 -1.0096 -0.5236 -0.9997
  122OSM    H7S12903   0.659   4.683   6.830  1.7426 -2.4804  0.4018
  122OSM    H7T12904   0.652   4.507   6.853  3.9994  2.7269 -1.2099
  122OSM    C8S12905   0.509   4.614   6.975 -0.0185  0.4348  0.3839
  122OSM    H8S12906   0.434   4.533   6.980  3.1481 -2.6708 -0.6548
  122OSM    H8T12907   0.457   4.711   6.957  0.7630  0.5692 -1.2804
  122OSM    C9S12908   0.599   4.607   7.097 -0.4610 -0.7628 -0.0522
  122OSM    H9S12909   0.665   4.696   7.092 -0.5223 -0.7999 -1.8818
  122OSM    H9T12910   0.663   4.517   7.105  0.0658 -0.4835 -1.0811
  122OSM   C10S12911   0.509   4.614   7.231 -0.4115  0.7639 -0.2425
  122OSM   H10S12912   0.475   4.510   7.248  0.5899  0.2904 -1.0460
  122OSM   H10T12913   0.423   4.684   7.224 -0.7508  0.2244 -1.7676
  122OSM   C11S12914   0.593   4.658   7.356 -0.7214 -0.0013  0.1524
  122OSM   H11S12915   0.621   4.764   7.338 -0.4571  0.1019  1.1174
  122OSM   H11T12916   0.685   4.598   7.364 -1.0720 -0.6823 -0.8603
  122OSM   C12S12917   0.516   4.652   7.483 -0.2154 -0.4029 -0.1319
  122OSM   H12S12918   0.486   4.548   7.508 -1.0107 -0.1475 -0.0187
  122OSM   H12T12919   0.428   4.720   7.482  0.2331  0.2647 -4.7252
  122OSM   C13S12920   0.594   4.697   7.603 -0.2549 -0.2363 -0.2906
  122OSM   H13S12921   0.617   4.806   7.602  1.8315 -0.5949  2.7488
  122OSM   H13T12922   0.687   4.637   7.608  1.3035  1.8507 -2.7399
  122OSM   C14S12923   0.518   4.670   7.735  0.0193  0.1012 -0.2304
  122OSM   H14S12924   0.495   4.561   7.743  0.3386  0.1932  2.1589
  122OSM   H14T12925   0.417   4.717   7.736  0.3824  0.8799  1.8748
  122OSM   C15S12926   0.590   4.703   7.870  0.1150  0.4827 -0.1991
  122OSM   H15S12927   0.600   4.813   7.880  1.0273  0.5985 -2.2380
  122OSM   H15T12928   0.690   4.655   7.879  0.7218  1.5191 -1.3114
  122OSM   C16S12929   0.508   4.651   7.986 -0.0628  0.3685 -0.3013
  122OSM   H16S12930   0.529   4.543   8.000  0.3430  0.2185 -2.0294
  122OSM   H16T12931   0.400   4.675   7.971  0.0234  1.7805  1.1968
  122OSM   C17S12932   0.541   4.719   8.123 -0.1738  0.1205 -0.4078
  122OSM   H17S12933   0.551   4.829   8.118  0.7250 -0.0016 -1.7865
  122OSM   H17T12934   0.631   4.676   8.173 -0.3306  1.0449  0.6848
  122OSM   C18S12935   0.426   4.692   8.223  0.5998  0.4671  0.0989
  122OSM   H18S12936   0.469   4.730   8.319  0.8292  1.1379 -0.2659
  122OSM   H18T12937   0.396   4.585   8.218  1.1061  0.1657  2.7361
  122OSM   H18U12938   0.334   4.746   8.192  0.9112  1.2761  0.5619
  122OSM    C1F12939   0.928   4.821   6.416  0.1320 -0.5033 -0.0103
  122OSM     OF12940   0.899   4.922   6.353  0.5154 -0.0298  0.7246
  122OSM    C2F12941   1.041   4.816   6.518 -0.8837 -0.3306 -0.1369
  122OSM    H2F12942   1.112   4.733   6.499  1.0743  1.1785  0.3056
  122OSM    H2G12943   0.979   4.783   6.604 -1.6201 -0.4984 -0.7252
  122OSM    C3F12944   1.124   4.944   6.517  0.4958 -0.6724 -0.3233
  122OSM    H3F12945   1.073   5.034   6.557  1.0517 -1.0736  1.3386
  122OSM    H3G12946   1.135   4.973   6.410 -0.2082 -0.6422 -0.3869
  122OSM    C4F12947   1.264   4.944   6.582  0.5187 -1.0591 -1.0772
  122OSM    H4F12948   1.313   5.036   6.545  1.7252 -0.5217  1.7661
  122OSM    H4G12949   1.321   4.854   6.550 -0.7823 -1.9961 -0.8139
  122OSM    C5F12950   1.246   4.944   6.730 -0.0164  0.0510  0.4581
  122OSM    H5F12951   1.162   4.875   6.753 -0.5940  0.6973  0.2793
  122OSM    H5G12952   1.212   5.041   6.772 -2.0897 -0.3461 -0.2541
  122OSM    C6F12953   1.376   4.898   6.806  0.4050  0.6972 -0.8070
  122OSM    H6F12954   1.470   4.948   6.775  1.8066 -0.3462  1.6789
  122OSM    H6G12955   1.402   4.799   6.764 -1.0592  0.9446 -2.3941
  122OSM    C7F12956   1.354   4.903   6.960 -0.6990  0.3068  0.0533
  122OSM    H7F12957   1.263   4.846   6.990  1.0215 -2.3132  0.5370
  122OSM    H7G12958   1.333   5.004   6.999 -2.2432 -0.6550  1.8079
  122OSM    C8F12959   1.485   4.854   7.035 -0.3565 -0.0010 -0.2345
  122OSM    H8F12960   1.477   4.917   7.126 -1.1894 -0.9992  0.4016
  122OSM    H8G12961   1.580   4.871   6.980  0.4023 -2.6485  0.1512
  122OSM    C9F12962   1.475   4.707   7.068 -0.1919  0.9852 -0.0657
  122OSM    H9F12963   1.480   4.635   6.985 -1.1850  0.6995  0.1135
  122OSM   C10F12964   1.465   4.651   7.193  0.0854 -0.1344 -0.7794
  122OSM   H10F12965   1.447   4.544   7.209 -0.9237  0.2562  0.8489
  122OSM   C11F12966   1.460   4.732   7.325 -0.2875 -0.7572  0.4154
  122OSM   H11F12967   1.403   4.826   7.316  0.0595 -0.5627  0.2010
  122OSM   H11G12968   1.563   4.764   7.354 -1.4828  1.9921  1.7658
  122OSM   C12F12969   1.391   4.661   7.443 -0.7971 -0.2487 -0.1058
  122OSM   H12F12970   1.292   4.621   7.412 -0.3738  0.4399 -2.4695
  122OSM   H12G12971   1.363   4.726   7.528 -2.3124 -1.1205  0.0882
  122OSM   C13F12972   1.488   4.554   7.495  0.0540  0.0460 -0.4580
  122OSM   H13F12973   1.582   4.601   7.533 -0.6292  0.6116  0.5459
  122OSM   H13G12974   1.508   4.480   7.415  0.5760  0.6058 -0.8527
  122OSM   C14F12975   1.418   4.464   7.597  0.4835  0.0176  0.3627
  122OSM   H14F12976   1.320   4.437   7.552 -0.5126  2.7801  0.7420
  122OSM   H14G12977   1.401   4.537   7.679  0.1984  1.0132 -0.5588
  122OSM   C15F12978   1.503   4.349   7.648  0.1654  0.1467 -0.0207
  122OSM   H15F12979   1.597   4.399   7.682 -0.4069  1.3270 -0.1276
  122OSM   H15G12980   1.538   4.279   7.570 -1.6971  0.1792 -0.9144
  122OSM   C16F12981   1.428   4.275   7.757 -0.2786  0.7343  0.0012
  122OSM   H16F12982   1.369   4.338   7.826 -3.0859 -1.6129 -0.1284
  122OSM   H16G12983   1.499   4.207   7.808 -1.8311  0.0141  1.2417
  122OSM   C17F12984   1.313   4.184   7.702 -0.0936  0.2173 -0.5206
  122OSM   H17F12985   1.361   4.123   7.621  2.1502  0.2430  0.7583
  122OSM   H17G12986   1.227   4.242   7.662 -1.3790 -1.5526 -0.4091
  122OSM   C18F12987   1.257   4.087   7.810 -0.0508  0.4219 -0.6632
  122OSM   H18F12988   1.193   4.136   7.887  0.5773  0.3726 -0.1030
  122OSM   H18G12989   1.340   4.037   7.864  0.3540  0.1718 -1.5081
  122OSM   H18H12990   1.190   4.014   7.760  1.2708 -2.1613  1.2313
  123OSM      N12991   6.153   0.190   6.778 -0.3766  0.4713  0.0233
  123OSM    C1512992   6.149   0.073   6.685 -0.1167 -0.1333  0.1637
  123OSM   H15A12993   6.194   0.099   6.591  0.9184  0.3440  0.7898
  123OSM   H15B12994   6.043   0.054   6.669 -0.1355  0.3878 -0.3345
  123OSM   H15C12995   6.193  -0.022   6.711 -1.6810 -1.2304 -1.0612
  123OSM    C1412996   6.084   0.144   6.904  0.4643 -0.3029  0.7437
  123OSM   H14A12997   6.091   0.231   6.967 -1.2467 -0.2450  0.8657
  123OSM   H14B12998   6.129   0.059   6.954  1.3110  0.4961  1.3466
  123OSM   H14C12999   5.977   0.128   6.897  0.3444  1.3462 -1.9298
  123OSM    C1313000   6.303   0.202   6.808 -0.2842 -0.2151  1.1080
  123OSM   H13A13001   6.355   0.242   6.722 -1.0713  1.4964  1.4149
  123OSM   H13B13002   6.336   0.105   6.844  0.6143 -0.1822  0.4169
  123OSM   H13C13003   6.324   0.278   6.882  0.2809 -0.1425  0.8792
  123OSM    C1213004   6.090   0.314   6.719  0.1255 -0.1695  0.5821
  123OSM   H12A13005   6.126   0.328   6.618 -0.9201  1.4098  0.4210
  123OSM   H12B13006   6.110   0.401   6.778 -1.4279  0.5498  0.0706
  123OSM    C1113007   5.936   0.318   6.680 -0.0945  0.3017 -1.4012
  123OSM   H11A13008   5.909   0.413   6.629  2.3582  1.0883 -1.2830
  123OSM   H11B13009   5.880   0.307   6.775  0.1047  1.2797 -1.1620
  123OSM      P13010   5.763   0.186   6.542 -0.1981  0.7136  0.2226
  123OSM    O1313011   5.730   0.301   6.461 -0.0347  0.0514 -0.4156
  123OSM    O1413012   5.751   0.055   6.476  0.1557 -0.5121 -0.2072
  123OSM    O1113013   5.671   0.171   6.671 -0.2095 -0.4373  0.5699
  123OSM    O1213014   5.907   0.206   6.591  0.4168 -0.0287 -0.6398
  123OSM    C1S13015   5.713   0.075   6.772  0.5001 -0.0379  0.1377
  123OSM    H1S13016   5.817   0.096   6.805 -0.0142 -0.2030  1.9544
  123OSM    H1T13017   5.708  -0.029   6.733  0.7701 -0.2598  0.6821
  123OSM     NF13018   5.670   0.008   7.001 -0.2531  0.6132 -0.5553
  123OSM    HNF13019   5.645  -0.088   7.004 -0.9169  0.8135  0.5430
  123OSM    C2S13020   5.611   0.082   6.897  0.3397 -0.2476  0.2860
  123OSM    H2S13021   5.596   0.185   6.936 -0.0424 -0.3662  0.4477
  123OSM    C3S13022   5.476   0.026   6.851  0.3853  1.0526  0.0747
  123OSM    H3S13023   5.492  -0.075   6.807 -0.9604  1.3592 -1.1813
  123OSM     O313024   5.419   0.115   6.750  0.1145 -0.5643 -0.4135
  123OSM    HO313025   5.499   0.156   6.717 -0.5945  0.0799 -1.3536
  123OSM    C4S13026   5.382   0.005   6.977  0.1292  0.0241  0.7051
  123OSM    H4S13027   5.399  -0.098   7.013  0.2192 -1.5121 -3.4284
  123OSM    C5S13028   5.296   0.087   7.037 -0.1017  0.1212 -0.4683
  123OSM    H5S13029   5.257   0.177   6.987 -2.4555 -0.8089 -0.3734
  123OSM    C6S13030   5.219   0.046   7.158 -0.0613 -0.3352  0.0574
  123OSM    H6S13031   5.112   0.065   7.134 -0.1707 -1.4944 -0.4358
  123OSM    H6T13032   5.242   0.111   7.244 -1.1024 -0.6934  0.6207
  123OSM    C7S13033   5.223  -0.095   7.224 -0.1190  0.1232 -0.4036
  123OSM    H7S13034   5.329  -0.119   7.246  0.0353  1.1416  0.0180
  123OSM    H7T13035   5.187  -0.155   7.138 -3.4549  2.6518 -0.8474
  123OSM    C8S13036   5.130  -0.110   7.346 -0.6723  0.1423 -0.0744
  123OSM    H8S13037   5.023  -0.113   7.316 -1.6693  2.2240  3.0704
  123OSM    H8T13038   5.139  -0.024   7.415 -2.6929  1.2779 -1.1642
  123OSM    C9S13039   5.170  -0.246   7.422  0.2395  0.5841  0.5508
  123OSM    H9S13040   5.275  -0.231   7.457 -0.9365  0.7371  4.2155
  123OSM    H9T13041   5.168  -0.326   7.345  0.0614 -0.6782  1.8531
  123OSM   C10S13042   5.079  -0.289   7.541  0.4752  0.1382 -0.0509
  123OSM   H10S13043   4.980  -0.316   7.498 -0.1121 -0.1778  1.4787
  123OSM   H10T13044   5.044  -0.212   7.613 -0.8250 -0.9379  0.4933
  123OSM   C11S13045   5.128  -0.407   7.613  0.5050  0.0709  0.0404
  123OSM   H11S13046   5.213  -0.361   7.668  2.1828  1.6294 -3.6982
  123OSM   H11T13047   5.175  -0.485   7.549  0.3535 -0.8864  1.0729
  123OSM   C12S13048   5.024  -0.475   7.707  0.2738 -0.5511  0.0092
  123OSM   H12S13049   4.974  -0.539   7.631  0.6313 -1.2582  0.3600
  123OSM   H12T13050   4.952  -0.398   7.742  1.8074  0.9648 -0.1022
  123OSM   C13S13051   5.089  -0.551   7.821  0.2046  0.1937  0.1990
  123OSM   H13S13052   5.122  -0.478   7.897  0.4829 -1.3949  1.6310
  123OSM   H13T13053   5.176  -0.609   7.783  1.5500  0.0131  3.4299
  123OSM   C14S13054   4.997  -0.647   7.906 -0.7614 -0.5527  0.0663
  123OSM   H14S13055   4.992  -0.741   7.848  2.0710 -0.1106 -1.0019
  123OSM   H14T13056   4.895  -0.606   7.921  0.0945  0.6333  3.0526
  123OSM   C15S13057   5.061  -0.673   8.043 -0.3608  0.2915  0.0447
  123OSM   H15S13058   5.070  -0.575   8.095  0.4767 -0.5433  1.5298
  123OSM   H15T13059   5.166  -0.708   8.036 -0.4860 -0.1927  0.5634
  123OSM   C16S13060   4.985  -0.777   8.129  0.2988  0.5493 -0.4485
  123OSM   H16S13061   4.986  -0.879   8.086 -0.8876  1.3316 -2.4033
  123OSM   H16T13062   4.882  -0.736   8.133  0.5002  0.9508  0.7793
  123OSM   C17S13063   5.049  -0.787   8.264 -0.1072 -0.1076  0.0527
  123OSM   H17S13064   5.096  -0.688   8.284  0.5518 -0.3323 -0.3432
  123OSM   H17T13065   5.128  -0.864   8.264 -1.1477 -1.1803 -0.4565
  123OSM   C18S13066   4.970  -0.809   8.391  0.5146  0.9532 -0.1091
  123OSM   H18S13067   4.889  -0.734   8.405 -2.0292 -1.8904  0.9699
  123OSM   H18T13068   5.026  -0.824   8.486 -1.0556  1.2613  0.8872
  123OSM   H18U13069   4.921  -0.908   8.382  2.6483 -0.2159  0.8153
  123OSM    C1F13070   5.768   0.052   7.079  0.5382 -0.3621  0.2227
  123OSM     OF13071   5.823   0.161   7.061  0.2247 -0.4294 -0.2073
  123OSM    C2F13072   5.803  -0.035   7.198 -0.2329  0.1869 -0.5660
  123OSM    H2F13073   5.793  -0.141   7.168  0.6090  0.1068 -0.5894
  123OSM    H2G13074   5.727   0.002   7.270 -0.5334 -2.5816  0.5638
  123OSM    C3F13075   5.939   0.000   7.257  0.4057 -0.2774 -0.0746
  123OSM    H3F13076   5.925   0.104   7.293 -2.0100 -0.1750 -1.2213
  123OSM    H3G13077   6.013  -0.016   7.176  0.7523 -1.6981  0.5068
  123OSM    C4F13078   5.988  -0.089   7.373 -0.0950 -0.0266  0.0365
  123OSM    H4F13079   6.098  -0.094   7.385 -0.0052 -0.3930 -0.8481
  123OSM    H4G13080   5.976  -0.197   7.348  0.9755 -0.1830  0.1744
  123OSM    C5F13081   5.911  -0.071   7.505  0.1541 -0.7487  0.2104
  123OSM    H5F13082   5.806  -0.052   7.474 -1.0571 -0.7013  4.0930
  123OSM    H5G13083   5.944   0.025   7.549 -1.9770  0.5693 -0.9551
  123OSM    C6F13084   5.928  -0.187   7.598  0.1110 -0.6359  0.2079
  123OSM    H6F13085   6.018  -0.177   7.663  0.1196 -1.2623  0.2942
  123OSM    H6G13086   5.946  -0.280   7.540 -0.0653 -0.5851  0.0738
  123OSM    C7F13087   5.811  -0.199   7.696  0.4688 -0.4393 -0.6816
  123OSM    H7F13088   5.801  -0.301   7.740  1.6349  0.2064  1.1360
  123OSM    H7G13089   5.717  -0.189   7.637 -1.1343  1.8954  2.1124
  123OSM    C8F13090   5.818  -0.088   7.805 -1.1016  0.3363  1.1443
  123OSM    H8F13091   5.809  -0.002   7.736  1.0909  0.0388  0.4594
  123OSM    H8G13092   5.920  -0.079   7.848 -0.3136  2.0047 -0.9991
  123OSM    C9F13093   5.704  -0.099   7.904  0.2943  0.8857 -0.1100
  123OSM    H9F13094   5.605  -0.133   7.870 -0.2790  0.5234  1.8754
  123OSM   C10F13095   5.714  -0.070   8.035 -0.1885  0.1547 -0.3786
  123OSM   H10F13096   5.618  -0.077   8.088  0.3221  0.0439  0.5599
  123OSM   C11F13097   5.836  -0.013   8.100  0.5769 -1.0170 -0.5982
  123OSM   H11F13098   5.909   0.017   8.022  1.6542 -2.7246 -0.2906
  123OSM   H11G13099   5.897  -0.091   8.150 -1.5186 -3.1114 -1.2081
  123OSM   C12F13100   5.799   0.104   8.202 -0.3278 -0.1797 -0.0569
  123OSM   H12F13101   5.889   0.136   8.259 -0.6680  3.8331 -1.5883
  123OSM   H12G13102   5.736   0.076   8.289  0.4509  0.3447  0.6774
  123OSM   C13F13103   5.725   0.222   8.135 -0.0351 -0.2248  0.4956
  123OSM   H13F13104   5.628   0.197   8.086  0.4994  0.9654 -1.2024
  123OSM   H13G13105   5.794   0.275   8.066 -1.6700  0.3739 -0.7170
  123OSM   C14F13106   5.686   0.326   8.244 -0.8027  0.2252 -0.3061
  123OSM   H14F13107   5.596   0.290   8.297 -1.4707  0.4485 -1.2703
  123OSM   H14G13108   5.660   0.417   8.185  0.0850  0.4633 -0.3482
  123OSM   C15F13109   5.795   0.365   8.342  0.6842 -0.0046 -0.1627
  123OSM   H15F13110   5.893   0.376   8.290  0.4491  1.8751 -0.2657
  123OSM   H15G13111   5.804   0.277   8.409  1.4180 -0.3053 -0.6405
  123OSM   C16F13112   5.765   0.489   8.434 -0.1442 -0.8359 -0.7691
  123OSM   H16F13113   5.691   0.459   8.510  0.0654  0.3530 -0.0886
  123OSM   H16G13114   5.708   0.562   8.373 -1.6989 -0.8706  0.6273
  123OSM   C17F13115   5.898   0.543   8.503 -0.0146  0.4777 -0.8657
  123OSM   H17F13116   5.960   0.587   8.422  0.2471  2.5447  0.4176
  123OSM   H17G13117   5.952   0.464   8.559  1.4767  2.9158  1.2546
  123OSM   C18F13118   5.872   0.643   8.619 -0.7895  0.4007 -0.6370
  123OSM   H18F13119   5.970   0.674   8.661 -0.2982 -1.7809 -0.1181
  123OSM   H18G13120   5.821   0.585   8.699  1.5784  1.1199  1.4385
  123OSM   H18H13121   5.812   0.731   8.589 -0.7894  0.4683 -0.4371
  124OSM      N13122   6.437   3.380   6.110  0.6784  0.2140 -0.9981
  124OSM    C1513123   6.483   3.435   5.982  0.1758  0.2398  0.6464
  124OSM   H15A13124   6.443   3.378   5.899 -0.8730  0.1299  1.2195
  124OSM   H15B13125   6.591   3.431   5.975  0.0439 -0.8481 -1.2166
  124OSM   H15C13126   6.442   3.534   5.973 -2.6955 -0.9010  0.6444
  124OSM    C1413127   6.287   3.395   6.112  0.6343 -0.2388 -0.1997
  124OSM   H14A13128   6.247   3.331   6.035 -0.8503 -2.2447  2.1583
  124OSM   H14B13129   6.255   3.496   6.093 -1.2499 -0.6582  0.6626
  124OSM   H14C13130   6.255   3.352   6.206  0.1239 -2.8520 -1.5160
  124OSM    C1313131   6.468   3.237   6.113  0.9535 -0.6370  0.6423
  124OSM   H13A13132   6.572   3.230   6.084  1.0614 -0.2716  0.9454
  124OSM   H13B13133   6.404   3.183   6.045  0.2438 -0.0285  0.8229
  124OSM   H13C13134   6.463   3.202   6.215  0.6964  1.2576  1.3008
  124OSM    C1213135   6.495   3.457   6.228 -0.1120 -0.0963 -0.0993
  124OSM   H12A13136   6.457   3.415   6.319 -0.9255 -0.6398 -0.6770
  124OSM   H12B13137   6.459   3.559   6.237 -1.1445 -0.6615  2.5094
  124OSM    C1113138   6.646   3.462   6.253  0.5297 -0.2987  0.2796
  124OSM   H11A13139   6.679   3.358   6.270  0.5666 -0.0646  1.6702
  124OSM   H11B13140   6.663   3.515   6.349 -1.7765 -0.3445  0.7484
  124OSM      P13141   6.749   3.682   6.149  0.6238  0.4762 -0.2964
  124OSM    O1313142   6.779   3.711   6.006 -0.8855  0.5363 -0.5113
  124OSM    O1413143   6.646   3.766   6.218 -0.5681  0.3869  0.2330
  124OSM    O1113144   6.890   3.698   6.224 -0.4251 -0.2012  0.0619
  124OSM    O1213145   6.715   3.524   6.149 -0.1857 -0.1219 -0.0999
  124OSM    C1S13146   6.918   3.741   6.359  0.0653 -0.4047 -0.4925
  124OSM    H1S13147   6.854   3.828   6.386  1.5291  0.6803 -0.4863
  124OSM    H1T13148   7.019   3.788   6.358 -0.0955 -0.0076  1.0259
  124OSM     NF13149   6.961   3.673   6.600 -0.4442  0.3898  0.5222
  124OSM    HNF13150   7.050   3.651   6.639  0.2465  1.5866 -0.3304
  124OSM    C2S13151   6.925   3.625   6.461  0.5947  0.8215 -0.1825
  124OSM    H2S13152   6.826   3.575   6.466  0.7105  0.3854 -2.0356
  124OSM    C3S13153   7.028   3.525   6.412  0.6028  0.2143  1.2208
  124OSM    H3S13154   7.120   3.588   6.406 -0.6829  2.1578  1.3977
  124OSM     O313155   7.009   3.478   6.275 -0.0793 -0.3766 -0.3635
  124OSM    HO313156   6.956   3.546   6.233  2.0735 -0.6372 -3.7321
  124OSM    C4S13157   7.048   3.413   6.510  0.5272 -0.4699  0.0587
  124OSM    H4S13158   6.954   3.387   6.561  0.2008  1.2002  0.3318
  124OSM    C5S13159   7.168   3.353   6.548  0.3682 -0.0195  0.2808
  124OSM    H5S13160   7.262   3.394   6.507 -0.0045 -0.9734 -1.6196
  124OSM    C6S13161   7.185   3.239   6.647  0.3386  0.1950  0.3790
  124OSM    H6S13162   7.239   3.151   6.604 -1.0436 -0.5573  0.1769
  124OSM    H6T13163   7.088   3.194   6.675  1.2159 -1.4141  0.8995
  124OSM    C7S13164   7.253   3.278   6.774  0.8409  0.1758  0.0635
  124OSM    H7S13165   7.203   3.363   6.825 -0.4361 -0.3328 -0.3378
  124OSM    H7T13166   7.361   3.303   6.765  1.4068 -2.8526 -2.5057
  124OSM    C8S13167   7.247   3.160   6.863  0.1021  0.0115  0.4325
  124OSM    H8S13168   7.286   3.067   6.816  0.5445  0.6792 -0.5359
  124OSM    H8T13169   7.141   3.141   6.890  0.3504  1.1143  2.2584
  124OSM    C9S13170   7.310   3.194   6.998 -0.5087 -0.7853 -0.0064
  124OSM    H9S13171   7.274   3.293   7.032 -1.1817 -0.9526 -0.2167
  124OSM    H9T13172   7.421   3.199   6.995 -0.4968 -1.0886 -0.1065
  124OSM   C10S13173   7.272   3.082   7.104 -0.6936 -0.3394  0.5190
  124OSM   H10S13174   7.310   2.980   7.085 -1.0148 -0.1731 -1.0600
  124OSM   H10T13175   7.163   3.059   7.108 -0.9910  1.1119  1.4579
  124OSM   C11S13176   7.320   3.124   7.242  0.3139 -0.3842 -0.1655
  124OSM   H11S13177   7.270   3.220   7.267  0.6924 -0.0614 -0.6637
  124OSM   H11T13178   7.429   3.144   7.246 -0.2723  3.3467 -1.0907
  124OSM   C12S13179   7.293   3.020   7.358 -0.2615 -0.0046 -0.2490
  124OSM   H12S13180   7.353   2.929   7.334 -0.5392 -1.2588  3.4280
  124OSM   H12T13181   7.183   3.006   7.362 -0.5009  1.1484 -2.3884
  124OSM   C13S13182   7.344   3.083   7.479 -0.3911 -1.0756 -0.1017
  124OSM   H13S13183   7.299   3.185   7.487 -1.3572 -1.4878 -0.2911
  124OSM   H13T13184   7.455   3.093   7.474 -0.5328  0.3570 -0.7691
  124OSM   C14S13185   7.308   3.000   7.601 -0.4732  0.1709 -1.1481
  124OSM   H14S13186   7.346   2.897   7.582  0.3733 -0.5318  3.6656
  124OSM   H14T13187   7.197   3.002   7.600 -0.5552 -0.9084  1.3571
  124OSM   C15S13188   7.347   3.057   7.739  0.3511  0.2316  0.4520
  124OSM   H15S13189   7.458   3.058   7.737  0.3617 -0.9495 -0.9117
  124OSM   H15T13190   7.312   2.993   7.822  0.4238  0.6325  0.7912
  124OSM   C16S13191   7.311   3.202   7.773  0.0720  0.2527  0.6079
  124OSM   H16S13192   7.201   3.211   7.787 -0.1257 -1.1482  0.0161
  124OSM   H16T13193   7.350   3.273   7.696  2.4901 -1.6071  0.0405
  124OSM   C17S13194   7.382   3.247   7.905 -0.6968  0.2818  0.4040
  124OSM   H17S13195   7.344   3.197   7.996 -1.4180  0.5275  0.2371
  124OSM   H17T13196   7.351   3.351   7.925 -2.4221  0.2503 -1.9111
  124OSM   C18S13197   7.534   3.245   7.904 -0.3209  0.1287 -0.2039
  124OSM   H18S13198   7.577   3.299   7.817 -1.6922 -2.9953 -2.9018
  124OSM   H18T13199   7.581   3.145   7.898 -0.0740  0.3119 -1.5431
  124OSM   H18U13200   7.564   3.293   8.000  0.7892 -1.5869  0.3225
  124OSM    C1F13201   6.864   3.747   6.669 -0.7062  1.4486 -1.0373
  124OSM     OF13202   6.753   3.751   6.624 -0.1883  0.1462 -0.1576
  124OSM    C2F13203   6.909   3.822   6.790 -0.2767 -0.1277 -0.1969
  124OSM    H2F13204   6.858   3.919   6.776  2.0643  0.9234 -1.8110
  124OSM    H2G13205   7.020   3.831   6.791 -0.1319 -1.5518  3.4232
  124OSM    C3F13206   6.871   3.760   6.930  0.1859 -0.2364 -0.0326
  124OSM    H3F13207   6.915   3.659   6.947  0.0069  0.2433  3.6016
  124OSM    H3G13208   6.764   3.735   6.945  0.5191 -0.9224  1.2596
  124OSM    C4F13209   6.925   3.849   7.047  0.2693  0.3058  0.0892
  124OSM    H4F13210   6.887   3.952   7.032  0.3384 -0.0434 -2.6401
  124OSM    H4G13211   7.036   3.855   7.042  0.3549 -0.5505  0.7341
  124OSM    C5F13212   6.885   3.806   7.188 -0.2066 -0.0741 -0.1628
  124OSM    H5F13213   6.867   3.697   7.185 -1.2263 -0.0181  2.7624
  124OSM    H5G13214   6.787   3.853   7.208  0.3610  0.5215  1.3033
  124OSM    C6F13215   6.999   3.831   7.291  0.2933 -1.1568 -0.9466
  124OSM    H6F13216   7.020   3.940   7.296  0.6396 -1.2413 -0.5659
  124OSM    H6G13217   7.084   3.776   7.245  0.6555 -0.9894 -0.4787
  124OSM    C7F13218   6.978   3.776   7.433 -0.5281  1.2535 -0.1060
  124OSM    H7F13219   7.031   3.850   7.496  1.2379 -0.4634  0.4771
  124OSM    H7G13220   7.016   3.672   7.446 -2.1704  0.4710 -1.3600
  124OSM    C8F13221   6.828   3.774   7.475  0.2985 -1.1358 -0.1423
  124OSM    H8F13222   6.826   3.682   7.537 -0.7578 -0.1482  1.3399
  124OSM    H8G13223   6.766   3.753   7.385  1.5217 -0.4084 -1.1648
  124OSM    C9F13224   6.785   3.889   7.554 -0.3365 -0.1823 -0.1382
  124OSM    H9F13225   6.780   3.981   7.493  2.0961 -2.0047 -3.2393
  124OSM   C10F13226   6.739   3.893   7.685 -0.6541 -0.3339 -0.1953
  124OSM   H10F13227   6.723   3.989   7.737 -0.9249  0.0214 -0.9271
  124OSM   C11F13228   6.732   3.777   7.778  0.3589  0.3683  0.4257
  124OSM   H11F13229   6.832   3.729   7.769  1.3585  2.5399 -0.4098
  124OSM   H11G13230   6.659   3.701   7.744  1.7195 -1.1594  0.8205
  124OSM   C12F13231   6.711   3.808   7.928 -0.2527 -0.0075 -0.3545
  124OSM   H12F13232   6.704   3.708   7.976  1.0475 -0.5904 -1.3492
  124OSM   H12G13233   6.614   3.860   7.940  0.4019  1.5052 -1.4076
  124OSM   C13F13234   6.826   3.882   7.994  0.2577 -0.0818 -0.0832
  124OSM   H13F13235   6.857   3.970   7.934 -0.8881 -1.1718 -2.3576
  124OSM   H13G13236   6.909   3.809   8.000 -0.0526 -0.7096 -2.8031
  124OSM   C14F13237   6.785   3.934   8.134 -0.2701 -0.2264 -0.4151
  124OSM   H14F13238   6.765   3.847   8.201  0.1308 -0.2447 -0.3173
  124OSM   H14G13239   6.692   3.996   8.128  1.5668  2.6847  0.3279
  124OSM   C15F13240   6.889   4.030   8.192  0.1268 -0.4481 -1.0332
  124OSM   H15F13241   6.883   4.115   8.120 -1.4101  0.7289  0.4594
  124OSM   H15G13242   6.990   3.987   8.175  1.0990  1.7477 -0.9650
  124OSM   C16F13243   6.871   4.103   8.332  0.3632 -0.4600  0.6572
  124OSM   H16F13244   6.762   4.124   8.340  0.1935 -0.7122 -0.7167
  124OSM   H16G13245   6.921   4.202   8.336  1.4581 -0.9033 -1.2001
  124OSM   C17F13246   6.909   4.030   8.462 -0.1725  0.7463  0.6316
  124OSM   H17F13247   7.011   3.991   8.447  0.3237  2.3346 -0.2653
  124OSM   H17G13248   6.838   3.945   8.473 -0.5993  0.9743 -0.3582
  124OSM   C18F13249   6.900   4.120   8.586  0.3351  0.5217 -0.1699
  124OSM   H18F13250   6.990   4.185   8.583 -0.0902  1.1445  0.4425
  124OSM   H18G13251   6.923   4.057   8.675  1.1117 -0.1116 -0.8069
  124OSM   H18H13252   6.802   4.169   8.606 -0.1730 -1.3975  2.2528
  125OSM      N13253   3.159   1.651   6.347 -0.1580  0.4070  0.1770
  125OSM    C1513254   3.197   1.795   6.384 -0.2435  0.5224  0.2735
  125OSM   H15A13255   3.236   1.798   6.485  4.2766 -3.1145 -1.1784
  125OSM   H15B13256   3.118   1.868   6.371  1.4493  2.2949 -0.1390
  125OSM   H15C13257   3.281   1.821   6.322 -0.8202 -0.5727 -1.0101
  125OSM    C1413258   3.275   1.563   6.381  0.2176  0.0158 -0.6947
  125OSM   H14A13259   3.280   1.560   6.489  0.0918 -0.5862 -0.7055
  125OSM   H14B13260   3.373   1.596   6.350  0.8934 -0.9207  0.4169
  125OSM   H14C13261   3.253   1.463   6.345 -2.0858  0.6234 -1.0279
  125OSM    C1313262   3.043   1.603   6.433  0.1465 -0.8457  0.5075
  125OSM   H13A13263   3.034   1.496   6.434 -2.3069 -0.7067 -1.4018
  125OSM   H13B13264   2.948   1.643   6.401  1.0782  2.1217  1.2859
  125OSM   H13C13265   3.058   1.643   6.532 -2.6817  1.3225  0.1627
  125OSM    C1213266   3.126   1.637   6.204  0.1747  0.1251  0.8922
  125OSM   H12A13267   3.090   1.535   6.197 -1.6812  0.7921  0.3995
  125OSM   H12B13268   3.217   1.625   6.148 -0.3363  0.1506  0.0573
  125OSM    C1113269   3.014   1.739   6.148 -0.4649  0.5474  0.4924
  125OSM   H11A13270   2.991   1.696   6.049 -1.7102  0.5260  0.7831
  125OSM   H11B13271   3.074   1.830   6.130  1.5728 -0.8258  0.1372
  125OSM      P13272   2.866   1.916   6.247 -0.1767 -0.1392 -0.0305
  125OSM    O1313273   2.983   1.993   6.301  0.4660 -0.3788 -0.3634
  125OSM    O1413274   2.802   1.964   6.123 -0.8648 -0.2954  0.6052
  125OSM    O1113275   2.752   1.911   6.354 -0.5060 -0.0256 -0.6122
  125OSM    O1213276   2.908   1.768   6.228  0.5255 -1.0506 -0.1836
  125OSM    C1S13277   2.773   1.851   6.481 -0.7297  0.3428  0.0060
  125OSM    H1S13278   2.849   1.770   6.484 -0.9570  0.1636  1.3374
  125OSM    H1T13279   2.678   1.823   6.531  1.5745 -1.4696  3.5803
  125OSM     NF13280   2.847   1.898   6.724  0.1450  0.0727  0.0992
  125OSM    HNF13281   2.791   1.944   6.793 -0.0482  0.1546 -0.1128
  125OSM    C2S13282   2.831   1.956   6.591  0.2759 -0.3697 -0.2505
  125OSM    H2S13283   2.933   1.990   6.562  0.0451  1.2392  0.7675
  125OSM    C3S13284   2.733   2.080   6.587 -0.3189 -0.1240  0.5280
  125OSM    H3S13285   2.635   2.047   6.625 -0.6914  0.2517 -0.0979
  125OSM     O313286   2.709   2.141   6.457  0.1372  0.0930 -0.3652
  125OSM    HO313287   2.727   2.069   6.396  1.4753 -1.4580  1.7765
  125OSM    C4S13288   2.783   2.174   6.690 -0.0176 -0.0963 -0.5333
  125OSM    H4S13289   2.725   2.175   6.784  3.4885  3.4132  1.7577
  125OSM    C5S13290   2.885   2.261   6.665  0.0459  0.0880 -0.1864
  125OSM    H5S13291   2.929   2.261   6.564  1.0054  0.4493  0.2225
  125OSM    C6S13292   2.935   2.373   6.752 -0.4673 -0.6438  0.6502
  125OSM    H6S13293   2.914   2.469   6.700 -1.7479 -1.7785 -0.9857
  125OSM    H6T13294   3.046   2.371   6.754 -0.4189 -3.0937 -1.4847
  125OSM    C7S13295   2.869   2.390   6.891  0.2991  0.2255 -0.4992
  125OSM    H7S13296   2.863   2.286   6.928  0.1545 -0.0394 -1.2585
  125OSM    H7T13297   2.769   2.438   6.882  1.6487  3.2171 -0.0013
  125OSM    C8S13298   2.961   2.471   6.989  0.6156 -0.3280 -0.4451
  125OSM    H8S13299   3.004   2.554   6.929  0.5013  0.7694  0.9678
  125OSM    H8T13300   3.050   2.410   7.016  0.0721 -1.0966 -0.3606
  125OSM    C9S13301   2.889   2.526   7.114 -0.4202 -0.1007  0.0408
  125OSM    H9S13302   2.796   2.579   7.082 -1.6621 -2.4816 -0.4460
  125OSM    H9T13303   2.963   2.591   7.165  1.4239 -1.2236 -1.1812
  125OSM   C10S13304   2.849   2.420   7.221 -0.3207 -0.1117  0.1422
  125OSM   H10S13305   2.930   2.354   7.258 -1.1923 -2.5188 -2.1235
  125OSM   H10T13306   2.779   2.351   7.171  1.7685 -1.7624 -0.5675
  125OSM   C11S13307   2.788   2.489   7.345  0.2946  0.6476  0.3224
  125OSM   H11S13308   2.700   2.547   7.312  2.0282  2.1665 -1.8180
  125OSM   H11T13309   2.862   2.561   7.387 -0.1223  0.1196  1.9905
  125OSM   C12S13310   2.755   2.391   7.458  0.3126  1.2376 -0.4739
  125OSM   H12S13311   2.836   2.316   7.471 -0.6762  0.5358  1.9130
  125OSM   H12T13312   2.670   2.330   7.421 -0.6475  0.5914  2.6359
  125OSM   C13S13313   2.714   2.459   7.588  0.2194 -0.8891  0.3253
  125OSM   H13S13314   2.623   2.520   7.570 -0.0504 -1.0380  1.1499
  125OSM   H13T13315   2.796   2.525   7.624  1.3729 -2.5587  0.7932
  125OSM   C14S13316   2.678   2.356   7.695  0.5998 -0.2845  0.0785
  125OSM   H14S13317   2.756   2.278   7.704  0.4150 -0.2844  1.8021
  125OSM   H14T13318   2.587   2.299   7.666 -0.9909 -0.3072  4.6335
  125OSM   C15S13319   2.654   2.424   7.827  0.0401 -0.1349 -0.9184
  125OSM   H15S13320   2.572   2.497   7.812 -0.6475 -0.8588 -0.6899
  125OSM   H15T13321   2.742   2.481   7.864  0.8614 -1.1442 -1.2980
  125OSM   C16S13322   2.607   2.322   7.931 -0.5329  0.0783 -0.2903
  125OSM   H16S13323   2.682   2.239   7.931 -1.1357 -0.4679 -0.2128
  125OSM   H16T13324   2.520   2.278   7.878 -1.0121  1.8548 -1.0143
  125OSM   C17S13325   2.568   2.375   8.072 -0.3692  0.6042 -0.1240
  125OSM   H17S13326   2.660   2.410   8.125  0.5891  1.3965 -2.2439
  125OSM   H17T13327   2.541   2.284   8.128 -1.1894  0.6390 -0.4649
  125OSM   C18S13328   2.456   2.473   8.098  0.8786 -0.7742  0.0321
  125OSM   H18S13329   2.474   2.568   8.043  3.5163 -1.4315 -0.3426
  125OSM   H18T13330   2.452   2.489   8.208  1.3095  0.1409 -0.0774
  125OSM   H18U13331   2.363   2.436   8.052  0.1357  1.6156 -0.4545
  125OSM    C1F13332   2.940   1.810   6.756 -0.6795 -0.4521  0.0283
  125OSM     OF13333   3.028   1.777   6.678  0.2405  0.2855  0.6617
  125OSM    C2F13334   2.926   1.750   6.891  0.2152  0.0249 -0.5367
  125OSM    H2F13335   2.829   1.695   6.886  0.3591 -0.3070  0.2280
  125OSM    H2G13336   2.913   1.831   6.966 -0.3807 -1.0861  0.5982
  125OSM    C3F13337   3.044   1.662   6.925 -0.5779  0.0185 -0.1475
  125OSM    H3F13338   3.131   1.729   6.941 -0.5078 -0.5923  2.3970
  125OSM    H3G13339   3.062   1.588   6.844  3.1853  1.4574 -0.7212
  125OSM    C4F13340   3.019   1.591   7.056  0.0789 -0.0437 -0.4985
  125OSM    H4F13341   2.928   1.528   7.060 -0.0399  0.2119  1.1009
  125OSM    H4G13342   3.000   1.678   7.123  0.3726  1.6138 -2.5284
  125OSM    C5F13343   3.138   1.520   7.113  0.0000 -0.6741  0.7291
  125OSM    H5F13344   3.217   1.599   7.119 -0.3155 -0.0055 -2.7925
  125OSM    H5G13345   3.175   1.432   7.056  1.2905 -0.7687  1.6758
  125OSM    C6F13346   3.108   1.464   7.248 -0.4746  1.0858  0.2451
  125OSM    H6F13347   3.186   1.400   7.295 -2.0695 -1.0847  0.0160
  125OSM    H6G13348   3.019   1.399   7.233 -0.1458  0.4361  1.0394
  125OSM    C7F13349   3.060   1.573   7.345  0.0570 -0.7712 -0.5615
  125OSM    H7F13350   2.965   1.626   7.322  1.2249  2.7157  2.1274
  125OSM    H7G13351   3.134   1.656   7.344  1.1396 -1.7350 -2.7532
  125OSM    C8F13352   3.056   1.537   7.487  0.1101  0.7774 -0.2668
  125OSM    H8F13353   3.026   1.621   7.554 -2.4359  1.7556 -2.5149
  125OSM    H8G13354   3.161   1.518   7.519 -0.2615 -0.1597  0.4421
  125OSM    C9F13355   2.965   1.423   7.524  0.8846  0.1795  0.6462
  125OSM    H9F13356   2.912   1.370   7.444 -1.1774  1.4317  1.1351
  125OSM   C10F13357   2.940   1.378   7.650 -0.4545 -0.1593 -0.2554
  125OSM   H10F13358   2.870   1.294   7.662 -0.3122 -0.5365 -1.9822
  125OSM   C11F13359   2.999   1.439   7.775 -0.0068 -1.0396  0.1850
  125OSM   H11F13360   2.913   1.485   7.828  0.8221 -0.5971  1.1836
  125OSM   H11G13361   3.076   1.519   7.769  0.3776 -1.5936 -3.7501
  125OSM   C12F13362   3.059   1.323   7.867  0.2519 -0.6521 -0.0151
  125OSM   H12F13363   3.142   1.283   7.805  0.0383 -2.4068  0.7884
  125OSM   H12G13364   2.981   1.245   7.879 -1.7154  1.1503 -0.9139
  125OSM   C13F13365   3.110   1.377   7.995 -0.1150  0.2015 -0.6975
  125OSM   H13F13366   3.032   1.437   8.048  0.9524 -0.3094  1.5169
  125OSM   H13G13367   3.201   1.442   7.991  1.9496 -2.4641  1.1655
  125OSM   C14F13368   3.145   1.260   8.087  0.2835 -0.2719  0.3009
  125OSM   H14F13369   3.249   1.225   8.066 -0.1850 -1.4318 -0.1432
  125OSM   H14G13370   3.077   1.176   8.062 -0.4446  0.7833 -1.3064
  125OSM   C15F13371   3.129   1.290   8.239 -0.2853 -0.0072  0.6984
  125OSM   H15F13372   3.141   1.193   8.291 -0.5191 -0.6515 -0.4249
  125OSM   H15G13373   3.025   1.330   8.250  0.2839  2.0568 -1.0948
  125OSM   C16F13374   3.220   1.405   8.281 -0.3174  0.1964  0.0299
  125OSM   H16F13375   3.191   1.496   8.223 -2.2571 -1.6236 -1.9537
  125OSM   H16G13376   3.325   1.383   8.252  0.0431 -0.6559  1.9618
  125OSM   C17F13377   3.229   1.428   8.430  0.4025  0.1931  0.3769
  125OSM   H17F13378   3.317   1.491   8.452  0.1122  0.9620 -0.6293
  125OSM   H17G13379   3.237   1.327   8.475  1.2439  0.1384  0.1033
  125OSM   C18F13380   3.112   1.494   8.500  0.0956  0.3647  0.2284
  125OSM   H18F13381   3.022   1.430   8.512  1.7635 -2.5552 -2.1831
  125OSM   H18G13382   3.083   1.589   8.450 -1.4754  0.0690  0.5585
  125OSM   H18H13383   3.141   1.520   8.604  0.6303 -2.3436  0.7745
  126OSM      N13384   6.790   6.079   6.303  0.2383  0.0173 -0.0696
  126OSM    C1513385   6.920   6.035   6.359  0.0748 -0.3071 -0.0144
  126OSM   H15A13386   6.993   6.115   6.361 -0.0011 -0.2195 -0.7647
  126OSM   H15B13387   6.955   5.953   6.298 -0.7307 -0.6599 -0.0119
  126OSM   H15C13388   6.916   5.993   6.458 -0.9504 -0.0303  0.0706
  126OSM    C1413389   6.816   6.095   6.156  0.2339  0.1260 -0.1266
  126OSM   H14A13390   6.721   6.130   6.119 -1.2177 -2.2881  1.1969
  126OSM   H14B13391   6.835   6.006   6.098 -1.2333  0.2005 -0.7534
  126OSM   H14C13392   6.890   6.169   6.128 -1.1263  1.0120 -1.4696
  126OSM    C1313393   6.699   5.961   6.319 -0.1859  0.6440  0.5280
  126OSM   H13A13394   6.706   5.916   6.417 -0.0365 -1.1339 -0.2818
  126OSM   H13B13395   6.746   5.882   6.262 -0.5753 -0.4594  1.6828
  126OSM   H13C13396   6.599   5.976   6.283 -0.0476  1.6598  0.5699
  126OSM    C1213397   6.728   6.204   6.368  0.2139  0.1480  0.4149
  126OSM   H12A13398   6.708   6.183   6.472 -2.5080  0.9446  0.0917
  126OSM   H12B13399   6.634   6.221   6.317 -0.2732  0.5506  1.4311
  126OSM    C1113400   6.821   6.333   6.363  0.4008 -0.0441  1.2502
  126OSM   H11A13401   6.758   6.424   6.376 -0.6793 -0.6274  0.2189
  126OSM   H11B13402   6.857   6.335   6.258 -2.9181  1.2344  0.0470
  126OSM      P13403   6.930   6.371   6.605  0.1136  0.1092  0.0811
  126OSM    O1313404   6.998   6.268   6.692 -0.0841  0.4388 -0.5269
  126OSM    O1413405   6.992   6.504   6.610  0.2993  0.1943  0.2777
  126OSM    O1113406   6.778   6.374   6.630  0.3272  0.0604  0.1264
  126OSM    O1213407   6.931   6.328   6.449 -0.2449 -0.4293 -0.0299
  126OSM    C1S13408   6.705   6.273   6.705 -0.2514 -0.2658 -0.2655
  126OSM    H1S13409   6.767   6.181   6.707  0.6953  0.3137 -2.1262
  126OSM    H1T13410   6.602   6.256   6.665  0.4947  0.0931 -2.4421
  126OSM     NF13411   6.614   6.216   6.931 -0.1925  0.3592  0.0500
  126OSM    HNF13412   6.519   6.238   6.950 -0.3982  1.5385 -2.2276
  126OSM    C2S13413   6.690   6.322   6.853  0.1474  0.0828  0.0402
  126OSM    H2S13414   6.793   6.334   6.891  1.0051 -0.3639 -2.0731
  126OSM    C3S13415   6.610   6.455   6.862  0.1996  0.7689 -0.2948
  126OSM    H3S13416   6.503   6.436   6.841 -0.0440  0.1177  1.4763
  126OSM     O313417   6.646   6.560   6.770  0.1506  0.4006  0.5766
  126OSM    HO313418   6.723   6.526   6.725  0.7629  0.0631  1.8518
  126OSM    C4S13419   6.607   6.512   7.010  0.0707  0.5549  0.6576
  126OSM    H4S13420   6.515   6.483   7.064 -2.2219  2.4849 -2.0406
  126OSM    C5S13421   6.690   6.600   7.065 -0.1796  0.4051  0.4121
  126OSM    H5S13422   6.773   6.645   7.009 -1.6124  2.1052 -0.3881
  126OSM    C6S13423   6.663   6.664   7.203  0.4121 -0.3999  0.6368
  126OSM    H6S13424   6.572   6.621   7.250 -0.6172 -1.0533 -1.8776
  126OSM    H6T13425   6.658   6.774   7.188  1.9574 -0.5267 -0.9110
  126OSM    C7S13426   6.795   6.650   7.282  0.2435 -0.5426  0.7468
  126OSM    H7S13427   6.884   6.688   7.228 -0.2744  0.7938  0.8260
  126OSM    H7T13428   6.820   6.542   7.287  0.7369 -0.5106 -0.9696
  126OSM    C8S13429   6.801   6.707   7.426  0.5094  0.5274  0.4708
  126OSM    H8S13430   6.780   6.816   7.421  2.1384  0.9174  1.8613
  126OSM    H8T13431   6.907   6.704   7.458  0.1773  0.7793  1.5851
  126OSM    C9S13432   6.700   6.645   7.526  0.4784  0.3643 -0.3771
  126OSM    H9S13433   6.682   6.536   7.513 -1.0766  0.7450 -1.5108
  126OSM    H9T13434   6.605   6.702   7.515  0.8528  0.8293 -1.2673
  126OSM   C10S13435   6.743   6.667   7.675  0.3477 -0.2897 -0.1972
  126OSM   H10S13436   6.740   6.776   7.694  2.2218 -0.0698 -1.0665
  126OSM   H10T13437   6.851   6.640   7.683  0.2150 -1.1578 -1.1851
  126OSM   C11S13438   6.658   6.587   7.781  0.1610  0.2136  0.0486
  126OSM   H11S13439   6.676   6.477   7.780 -1.6641 -0.1295 -2.3840
  126OSM   H11T13440   6.550   6.597   7.753 -0.0486 -1.1160  0.3373
  126OSM   C12S13441   6.680   6.633   7.925 -0.1020  0.9112 -0.2514
  126OSM   H12S13442   6.663   6.742   7.937  0.3066  0.9652 -0.1676
  126OSM   H12T13443   6.789   6.637   7.943  0.2075  1.7919 -2.1453
  126OSM   C13S13444   6.603   6.550   8.031 -0.1120 -0.9398 -0.5405
  126OSM   H13S13445   6.625   6.442   8.014 -0.4932 -0.8101 -1.9642
  126OSM   H13T13446   6.495   6.554   8.007  0.0389  0.6618 -1.0014
  126OSM   C14S13447   6.636   6.588   8.176 -0.3459  0.2149  0.5016
  126OSM   H14S13448   6.593   6.689   8.194 -0.8595  0.1270 -0.1844
  126OSM   H14T13449   6.745   6.611   8.179 -0.2898 -0.1711  1.7486
  126OSM   C15S13450   6.585   6.477   8.272  0.0473 -0.4264 -0.0125
  126OSM   H15S13451   6.641   6.385   8.244  1.2328 -0.2891  1.8320
  126OSM   H15T13452   6.476   6.476   8.246  0.5369  2.5247 -2.4728
  126OSM   C16S13453   6.599   6.508   8.418  0.5020 -0.4323 -0.3004
  126OSM   H16S13454   6.581   6.615   8.441 -3.9661 -1.3058  0.6230
  126OSM   H16T13455   6.708   6.493   8.436  0.4333 -1.1915 -0.4805
  126OSM   C17S13456   6.518   6.411   8.509  0.2505  0.4328  0.1360
  126OSM   H17S13457   6.409   6.423   8.492  0.3735 -0.9171 -1.8446
  126OSM   H17T13458   6.532   6.440   8.615  1.6884  2.7033 -0.6295
  126OSM   C18S13459   6.582   6.272   8.494  0.1217  0.2522  0.1111
  126OSM   H18S13460   6.591   6.237   8.389 -1.2012 -0.6093  0.2737
  126OSM   H18T13461   6.531   6.189   8.546  0.0411 -1.0569 -2.0091
  126OSM   H18U13462   6.683   6.278   8.540  0.2051  4.2571 -0.4355
  126OSM    C1F13463   6.663   6.093   6.958 -0.8987 -0.1801  0.6324
  126OSM     OF13464   6.782   6.070   6.966  0.1959 -0.1556  0.3475
  126OSM    C2F13465   6.557   5.988   6.992  0.1439 -0.2584  0.2517
  126OSM    H2F13466   6.536   5.926   6.902  0.5488 -2.8689  1.8984
  126OSM    H2G13467   6.462   6.041   7.016  1.1153  0.9846  1.4143
  126OSM    C3F13468   6.604   5.901   7.109  0.0258 -0.2097  0.0736
  126OSM    H3F13469   6.597   5.956   7.206  2.8482 -1.0770  0.8044
  126OSM    H3G13470   6.706   5.860   7.096  0.0311 -0.7430  1.6555
  126OSM    C4F13471   6.507   5.782   7.134  0.0859  0.2089  0.0068
  126OSM    H4F13472   6.527   5.695   7.068 -0.1898 -1.0881  1.5987
  126OSM    H4G13473   6.397   5.800   7.130  0.2140  0.5870 -3.8332
  126OSM    C5F13474   6.513   5.721   7.279 -0.8812 -0.3930  0.8748
  126OSM    H5F13475   6.621   5.704   7.299 -0.3791  1.3918 -0.2526
  126OSM    H5G13476   6.461   5.623   7.271 -1.9710  0.1230  1.5217
  126OSM    C6F13477   6.446   5.803   7.391 -0.1759  0.7605 -0.9234
  126OSM    H6F13478   6.336   5.795   7.382  0.0552 -2.2069 -1.4661
  126OSM    H6G13479   6.471   5.910   7.372  2.2344  0.4102  0.0266
  126OSM    C7F13480   6.498   5.763   7.528 -0.7909 -0.5168 -0.2968
  126OSM    H7F13481   6.609   5.769   7.526 -0.8323  0.3625 -0.0264
  126OSM    H7G13482   6.472   5.657   7.549 -2.1684  0.1152  1.2977
  126OSM    C8F13483   6.445   5.865   7.629 -0.3222 -1.0387 -0.0440
  126OSM    H8F13484   6.434   5.964   7.581  0.9614 -0.9924 -0.2670
  126OSM    H8G13485   6.526   5.870   7.705 -0.1561  0.8590 -0.3169
  126OSM    C9F13486   6.309   5.822   7.680 -0.0481  0.3317  1.3080
  126OSM    H9F13487   6.230   5.815   7.604  0.3052 -1.8543  1.1043
  126OSM   C10F13488   6.283   5.793   7.812  0.1727  0.5246  0.3938
  126OSM   H10F13489   6.176   5.774   7.833  0.6878 -0.7824  1.8596
  126OSM   C11F13490   6.376   5.797   7.927 -0.0986  0.0626  0.6156
  126OSM   H11F13491   6.449   5.880   7.919 -0.7188  0.3920 -2.3883
  126OSM   H11G13492   6.441   5.707   7.918  0.2791  0.4648 -0.8291
  126OSM   C12F13493   6.321   5.802   8.075 -0.1643 -0.6253  0.2214
  126OSM   H12F13494   6.241   5.725   8.081  2.3551 -3.3238  0.6733
  126OSM   H12G13495   6.292   5.906   8.101  0.7813 -0.0317 -1.0196
  126OSM   C13F13496   6.432   5.751   8.175  0.0435 -1.0829  0.4998
  126OSM   H13F13497   6.479   5.656   8.142 -0.0470 -0.9586  0.0125
  126OSM   H13G13498   6.378   5.737   8.271 -0.3029 -1.7391  0.2086
  126OSM   C14F13499   6.544   5.855   8.215 -0.3318  1.1405 -0.3980
  126OSM   H14F13500   6.505   5.955   8.241  1.4625  1.3221  1.7121
  126OSM   H14G13501   6.602   5.867   8.121 -2.3974  0.2240 -1.8334
  126OSM   C15F13502   6.637   5.808   8.327  0.2532 -0.0281 -0.7970
  126OSM   H15F13503   6.683   5.901   8.368 -1.1881  0.4917 -0.3367
  126OSM   H15G13504   6.715   5.736   8.293  0.0074  0.0230 -1.4685
  126OSM   C16F13505   6.564   5.757   8.443 -0.2876 -0.2336 -0.1456
  126OSM   H16F13506   6.634   5.733   8.525 -0.1488  0.1649 -0.1495
  126OSM   H16G13507   6.516   5.660   8.416  0.4852 -0.4261 -0.8282
  126OSM   C17F13508   6.472   5.864   8.508 -0.0354 -0.0147  0.3004
  126OSM   H17F13509   6.386   5.887   8.442  0.9478 -2.4259 -1.8651
  126OSM   H17G13510   6.527   5.959   8.525  0.9902 -0.6114  0.3847
  126OSM   C18F13511   6.420   5.831   8.645  0.0622 -0.2677  0.7300
  126OSM   H18F13512   6.344   5.908   8.670 -0.4929 -0.7592  0.5876
  126OSM   H18G13513   6.492   5.832   8.730 -1.3281  0.0495  1.9150
  126OSM   H18H13514   6.361   5.737   8.643 -1.5044  0.7147  0.3547
  127OSM      N13515   5.405   0.205   6.349  0.3937 -0.0114 -0.2347
  127OSM    C1513516   5.440   0.085   6.426  0.3485  0.2987  0.5602
  127OSM   H15A13517   5.419  -0.007   6.373  1.1442  0.2616  0.2920
  127OSM   H15B13518   5.384   0.074   6.517 -1.7893 -1.3707 -0.9016
  127OSM   H15C13519   5.546   0.091   6.447  1.0141 -0.9128 -2.1519
  127OSM    C1413520   5.512   0.203   6.237 -0.0247 -0.2730  0.2788
  127OSM   H14A13521   5.478   0.282   6.171  1.2386 -0.1215 -0.1988
  127OSM   H14B13522   5.525   0.108   6.187  1.2256  1.0173 -1.9530
  127OSM   H14C13523   5.607   0.228   6.281 -0.1002  0.2292  0.1636
  127OSM    C1313524   5.272   0.172   6.290  0.2854 -0.0440  0.9769
  127OSM   H13A13525   5.205   0.127   6.361  2.6093 -2.5721  1.6196
  127OSM   H13B13526   5.279   0.095   6.214  0.4280 -0.9249  1.8836
  127OSM   H13C13527   5.233   0.266   6.253  1.0843 -0.6209 -1.4853
  127OSM    C1213528   5.412   0.324   6.444 -1.1162 -0.3810  0.4219
  127OSM   H12A13529   5.515   0.339   6.470 -1.0334  1.2572 -0.7714
  127OSM   H12B13530   5.359   0.302   6.535 -0.9211  0.3683  0.7212
  127OSM    C1113531   5.349   0.455   6.393 -0.0929 -0.0081  0.4835
  127OSM   H11A13532   5.381   0.467   6.288  0.3474 -0.4686  0.5626
  127OSM   H11B13533   5.393   0.539   6.450  2.3968 -1.1532  0.3132
  127OSM      P13534   5.110   0.544   6.339 -0.1021  0.2357 -0.1333
  127OSM    O1313535   5.123   0.548   6.191 -0.4378 -0.8673 -0.0773
  127OSM    O1413536   4.971   0.526   6.386 -0.1698  0.4466 -0.4880
  127OSM    O1113537   5.171   0.669   6.397 -0.5258  0.0595 -0.7846
  127OSM    O1213538   5.208   0.436   6.400 -0.1936 -1.2264  0.1733
  127OSM    C1S13539   5.098   0.790   6.417 -0.9455 -0.3731 -0.4086
  127OSM    H1S13540   4.988   0.775   6.417 -0.9342 -0.5027  0.4973
  127OSM    H1T13541   5.117   0.867   6.339 -4.4006  0.7098 -0.2692
  127OSM     NF13542   5.039   0.950   6.602  0.3792 -0.2813 -0.5738
  127OSM    HNF13543   5.063   1.046   6.608 -0.4232 -0.1208  0.0963
  127OSM    C2S13544   5.138   0.858   6.551 -0.9915  0.3900 -0.1057
  127OSM    H2S13545   5.148   0.779   6.629  0.5753  1.6117  0.9652
  127OSM    C3S13546   5.270   0.923   6.515  0.4600 -0.2390 -0.2416
  127OSM    H3S13547   5.246   1.009   6.448 -1.0789  0.1988  0.8404
  127OSM     O313548   5.354   0.847   6.425 -0.4311 -0.2229  0.1551
  127OSM    HO313549   5.297   0.778   6.392 -1.6296 -0.2858  2.2876
  127OSM    C4S13550   5.341   0.958   6.646 -0.1722  0.1924  0.4491
  127OSM    H4S13551   5.301   1.050   6.690  2.2101  1.5024 -0.0558
  127OSM    C5S13552   5.428   0.877   6.714 -0.3068  0.3437  0.7166
  127OSM    H5S13553   5.466   0.789   6.662  1.1963  1.1560  0.4040
  127OSM    C6S13554   5.487   0.892   6.853 -0.0006  0.4683  0.6565
  127OSM    H6S13555   5.590   0.931   6.837 -0.1027 -0.2136 -1.8030
  127OSM    H6T13556   5.498   0.788   6.892 -0.9925  0.1910  0.2111
  127OSM    C7S13557   5.408   0.974   6.952  0.0292  0.8332 -0.6608
  127OSM    H7S13558   5.304   0.934   6.950  0.9156 -1.5431 -1.0020
  127OSM    H7T13559   5.406   1.080   6.921  1.3238  0.9339 -0.4209
  127OSM    C8S13560   5.480   0.960   7.091  0.3977  0.0217  0.1740
  127OSM    H8S13561   5.577   1.013   7.084  0.2126  0.4237  0.6498
  127OSM    H8T13562   5.496   0.853   7.116  2.2590  0.3175  0.3244
  127OSM    C9S13563   5.396   1.014   7.216  0.3607 -0.6922  0.7282
  127OSM    H9S13564   5.291   0.985   7.197  0.3908  1.4742 -3.3692
  127OSM    H9T13565   5.398   1.125   7.209  0.9746 -0.6916  0.9135
  127OSM   C10S13566   5.442   0.953   7.347 -0.0550 -0.5454  0.8039
  127OSM   H10S13567   5.544   0.989   7.373 -0.5065  1.8961 -0.6102
  127OSM   H10T13568   5.448   0.844   7.327  1.7955 -0.3723  0.3359
  127OSM   C11S13569   5.359   0.969   7.473 -0.5626 -0.2065  0.2933
  127OSM   H11S13570   5.253   0.948   7.450  0.3304 -3.0046 -1.5861
  127OSM   H11T13571   5.352   1.073   7.511  0.1637  0.4017 -1.2020
  127OSM   C12S13572   5.410   0.875   7.584  0.0345 -0.4108  0.3124
  127OSM   H12S13573   5.507   0.912   7.623 -0.5957 -0.3287  1.8534
  127OSM   H12T13574   5.420   0.772   7.545 -2.5578  0.7177 -3.6153
  127OSM   C13S13575   5.317   0.870   7.708  0.4957 -0.4338  0.4761
  127OSM   H13S13576   5.214   0.849   7.673 -0.4643  0.8515  2.4444
  127OSM   H13T13577   5.315   0.971   7.755 -3.4521 -0.0236 -0.3584
  127OSM   C14S13578   5.349   0.773   7.822 -0.4250  0.2256  0.3385
  127OSM   H14S13579   5.271   0.786   7.901  0.6512  0.4366  1.3735
  127OSM   H14T13580   5.450   0.783   7.865  0.3495  0.9276 -1.5858
  127OSM   C15S13581   5.325   0.624   7.781 -0.4629  0.5036 -0.2624
  127OSM   H15S13582   5.397   0.593   7.702 -2.4078  1.8979 -2.6761
  127OSM   H15T13583   5.221   0.617   7.744 -0.6164 -1.8037  0.5505
  127OSM   C16S13584   5.332   0.514   7.895 -0.5716 -0.1589  0.0509
  127OSM   H16S13585   5.301   0.417   7.850  0.5792 -0.5924  0.1806
  127OSM   H16T13586   5.261   0.556   7.969 -2.1274  0.0421 -1.5217
  127OSM   C17S13587   5.472   0.508   7.952 -0.0938 -0.7781 -0.4330
  127OSM   H17S13588   5.461   0.487   8.061  1.2799  1.5762  0.1840
  127OSM   H17T13589   5.510   0.611   7.942  4.3533 -2.2033  0.7496
  127OSM   C18S13590   5.565   0.407   7.885  0.0526 -0.3143  0.7008
  127OSM   H18S13591   5.524   0.306   7.867  0.0382 -0.4485  1.4815
  127OSM   H18T13592   5.657   0.387   7.945  1.3175  1.4847 -0.5795
  127OSM   H18U13593   5.585   0.447   7.783 -0.2530 -0.6472  0.5090
  127OSM    C1F13594   4.925   0.908   6.643  0.3896 -0.2393 -0.2745
  127OSM     OF13595   4.895   0.788   6.642 -0.0471 -0.0359  0.2272
  127OSM    C2F13596   4.828   1.008   6.686 -0.4419  0.0979 -0.5173
  127OSM    H2F13597   4.725   0.965   6.689 -0.6685  0.6208 -0.7513
  127OSM    H2G13598   4.819   1.101   6.625 -1.7884 -0.7975 -1.7283
  127OSM    C3F13599   4.857   1.044   6.832  0.4591 -0.0513 -0.2783
  127OSM    H3F13600   4.785   1.123   6.862 -1.5160 -2.1598  0.6787
  127OSM    H3G13601   4.959   1.084   6.853  0.1742 -0.4193  1.9302
  127OSM    C4F13602   4.822   0.924   6.935  0.2491  0.9600 -0.6116
  127OSM    H4F13603   4.896   0.844   6.915 -1.0113 -1.1883  2.9233
  127OSM    H4G13604   4.718   0.890   6.914  0.3205  0.7088 -0.5551
  127OSM    C5F13605   4.827   0.967   7.086  0.2039  0.4698 -1.4004
  127OSM    H5F13606   4.743   1.040   7.091 -0.7855 -0.6601 -1.1447
  127OSM    H5G13607   4.917   1.030   7.089  0.2109  0.5070 -2.3090
  127OSM    C6F13608   4.805   0.863   7.198  0.1809 -0.2554  0.0991
  127OSM    H6F13609   4.879   0.781   7.187  1.9335  0.9569  2.4037
  127OSM    H6G13610   4.707   0.811   7.185  2.2341 -4.4647  0.7403
  127OSM    C7F13611   4.806   0.921   7.346 -0.3657  0.7029  0.1941
  127OSM    H7F13612   4.772   1.025   7.327  2.4170  1.7575  0.7240
  127OSM    H7G13613   4.909   0.936   7.386 -0.6019 -1.0855  1.5022
  127OSM    C8F13614   4.721   0.848   7.451 -0.4951 -0.1942  0.5209
  127OSM    H8F13615   4.616   0.844   7.416  0.4732 -0.4644 -2.4731
  127OSM    H8G13616   4.725   0.898   7.550  1.7136  1.1548 -0.2126
  127OSM    C9F13617   4.762   0.708   7.467  0.0677 -0.5382 -0.3466
  127OSM    H9F13618   4.734   0.637   7.388 -0.2709 -0.3151 -0.4298
  127OSM   C10F13619   4.827   0.657   7.569  0.3464  0.6831  0.0338
  127OSM   H10F13620   4.837   0.548   7.585 -0.3719  0.6773  0.4576
  127OSM   C11F13621   4.882   0.725   7.691  0.4580  0.2953 -0.1769
  127OSM   H11F13622   4.885   0.836   7.683 -1.0768  0.3912  0.4636
  127OSM   H11G13623   4.988   0.695   7.675  0.2082 -0.7671  0.1097
  127OSM   C12F13624   4.817   0.679   7.820 -0.0841  0.5564 -0.3211
  127OSM   H12F13625   4.815   0.568   7.826  2.7939  0.3730 -2.0343
  127OSM   H12G13626   4.717   0.727   7.832 -0.6291 -0.6253 -0.0238
  127OSM   C13F13627   4.903   0.722   7.935 -0.1334  0.2759  0.0257
  127OSM   H13F13628   4.938   0.826   7.920 -1.4005  1.0913  2.3671
  127OSM   H13G13629   4.997   0.664   7.944  0.1494  0.7065 -0.1787
  127OSM   C14F13630   4.827   0.729   8.071  0.7950  0.2757  0.0824
  127OSM   H14F13631   4.825   0.628   8.117 -1.0804 -0.1487 -0.9069
  127OSM   H14G13632   4.721   0.763   8.064  0.8843  0.4794 -0.2755
  127OSM   C15F13633   4.877   0.833   8.173 -0.0788  0.5718 -0.4009
  127OSM   H15F13634   4.861   0.933   8.127  1.9390  1.3265  0.5067
  127OSM   H15G13635   4.986   0.815   8.182 -0.0449  1.1396  0.4157
  127OSM   C16F13636   4.823   0.823   8.316 -0.6908 -0.1747  0.5855
  127OSM   H16F13637   4.875   0.746   8.377 -0.6392 -0.4565  0.1879
  127OSM   H16G13638   4.719   0.788   8.302 -0.2549 -1.0992 -0.4910
  127OSM   C17F13639   4.828   0.951   8.396  0.7184 -0.2879 -0.0564
  127OSM   H17F13640   4.764   1.027   8.344  0.2267 -0.7284 -0.1011
  127OSM   H17G13641   4.930   0.994   8.400  0.8543 -0.7767  1.9644
  127OSM   C18F13642   4.784   0.920   8.543  0.2656  0.0093 -0.0586
  127OSM   H18F13643   4.806   1.000   8.616 -4.5470  0.4268  1.0970
  127OSM   H18G13644   4.843   0.830   8.573  1.5860  0.0760 -2.3299
  127OSM   H18H13645   4.677   0.892   8.552 -0.3212  2.5452  1.0984
  128OSM      N13646   4.413   4.879   6.035  0.1213 -0.1964 -0.1911
  128OSM    C1513647   4.335   4.767   5.979  0.1730  0.3723 -0.9340
  128OSM   H15A13648   4.410   4.698   5.943  0.8710  0.1018  1.0144
  128OSM   H15B13649   4.282   4.796   5.889 -0.5390 -0.6316 -0.8448
  128OSM   H15C13650   4.275   4.724   6.057 -0.5304 -0.7869 -2.1034
  128OSM    C1413651   4.477   4.949   5.925 -0.0072  0.4145 -0.2473
  128OSM   H14A13652   4.548   4.884   5.876  0.6304  0.3625  0.7166
  128OSM   H14B13653   4.527   5.031   5.973 -0.5630  0.2226  0.6853
  128OSM   H14C13654   4.408   4.992   5.854 -0.8435  1.7657  1.3384
  128OSM    C1313655   4.318   4.975   6.098  0.0247  0.1481  0.3461
  128OSM   H13A13656   4.356   5.075   6.091 -0.2186  0.5547  4.0020
  128OSM   H13B13657   4.311   4.951   6.203  2.5146 -1.7441  0.1396
  128OSM   H13C13658   4.221   4.957   6.054 -0.2614 -1.4241  1.5408
  128OSM    C1213659   4.521   4.833   6.136 -0.9514 -0.2379 -0.4922
  128OSM   H12A13660   4.489   4.762   6.212 -1.1382 -1.0299 -1.3017
  128OSM   H12B13661   4.562   4.915   6.193  3.3673 -2.3473 -0.3574
  128OSM    C1113662   4.639   4.750   6.077  0.4014 -0.8007 -0.3495
  128OSM   H11A13663   4.720   4.735   6.151  2.7321  0.4962 -2.5590
  128OSM   H11B13664   4.692   4.801   5.994  1.6014 -2.8614 -0.8901
  128OSM      P13665   4.553   4.492   6.122 -0.0728  0.3451 -0.1531
  128OSM    O1313666   4.417   4.451   6.073 -0.2048 -0.2505  0.2778
  128OSM    O1413667   4.660   4.391   6.101 -0.1460 -0.6471 -0.0503
  128OSM    O1113668   4.554   4.551   6.268 -0.1426 -0.0578  0.1078
  128OSM    O1213669   4.593   4.617   6.036 -0.1213 -0.4077 -0.1971
  128OSM    C1S13670   4.568   4.474   6.383 -0.0151 -0.0596  0.7954
  128OSM    H1S13671   4.597   4.369   6.361  0.5939  0.6000 -1.7211
  128OSM    H1T13672   4.469   4.479   6.433 -0.8171  0.8975 -0.8458
  128OSM     NF13673   4.695   4.440   6.605 -0.1242  0.6752  0.1755
  128OSM    HNF13674   4.644   4.450   6.690  0.0632 -0.7816  0.4847
  128OSM    C2S13675   4.669   4.534   6.492 -0.0692 -0.3683  0.0532
  128OSM    H2S13676   4.758   4.548   6.427 -1.8366  4.4477 -1.5509
  128OSM    C3S13677   4.633   4.674   6.530  0.0035  0.2609 -1.1385
  128OSM    H3S13678   4.534   4.693   6.575 -0.0400 -0.1112 -1.0753
  128OSM     O313679   4.638   4.763   6.416 -0.2171 -0.1629  0.0379
  128OSM    HO313680   4.641   4.704   6.340 -0.7428 -1.6909  1.1632
  128OSM    C4S13681   4.734   4.729   6.624 -0.2319 -0.2248  0.7838
  128OSM    H4S13682   4.831   4.736   6.573 -0.2285 -0.2768  0.7832
  128OSM    C5S13683   4.715   4.783   6.746  0.7024  0.4368 -0.0851
  128OSM    H5S13684   4.613   4.783   6.787 -1.3291 -3.2717 -4.7241
  128OSM    C6S13685   4.833   4.846   6.821  0.8556 -0.0225  0.0670
  128OSM    H6S13686   4.834   4.952   6.789 -3.5677  0.0242 -0.1640
  128OSM    H6T13687   4.933   4.804   6.798  1.0512  0.6128 -0.2455
  128OSM    C7S13688   4.811   4.841   6.972  0.3552 -0.1089  0.1628
  128OSM    H7S13689   4.764   4.746   7.003 -1.8003  0.7460 -0.3625
  128OSM    H7T13690   4.728   4.915   6.981  0.4984 -0.0876  1.3681
  128OSM    C8S13691   4.931   4.878   7.062 -0.1400 -0.1527  0.1743
  128OSM    H8S13692   4.980   4.974   7.035  0.2720  0.4962  2.9894
  128OSM    H8T13693   4.998   4.791   7.048 -2.4339 -2.1259  1.1971
  128OSM    C9S13694   4.906   4.897   7.212  0.3937  0.3033 -0.4103
  128OSM    H9S13695   4.843   4.984   7.239  1.2308  1.1016 -1.0084
  128OSM    H9T13696   5.008   4.903   7.258  0.1163  1.1290  0.0978
  128OSM   C10S13697   4.857   4.763   7.275  0.2454 -0.2215 -0.4587
  128OSM   H10S13698   4.927   4.684   7.243 -1.4842 -2.0775  0.2430
  128OSM   H10T13699   4.753   4.755   7.236 -0.6110  0.2858  1.6795
  128OSM   C11S13700   4.842   4.758   7.429 -0.0403  0.3621 -0.4093
  128OSM   H11S13701   4.948   4.758   7.462  0.4773 -1.7400 -1.9551
  128OSM   H11T13702   4.812   4.654   7.456  0.3752  0.3857  0.1515
  128OSM   C12S13703   4.752   4.866   7.483  0.2473 -0.1950 -0.1400
  128OSM   H12S13704   4.662   4.859   7.418  0.5742 -0.0058 -0.6065
  128OSM   H12T13705   4.794   4.965   7.456  1.6531 -1.8339 -4.3200
  128OSM   C13S13706   4.714   4.850   7.630 -0.7231 -0.1624  0.4800
  128OSM   H13S13707   4.629   4.779   7.640 -0.4183 -0.5782  0.1903
  128OSM   H13T13708   4.669   4.947   7.659 -0.1150 -0.2332  1.6824
  128OSM   C14S13709   4.828   4.797   7.724 -0.9931 -0.9632 -0.4837
  128OSM   H14S13710   4.922   4.849   7.696 -0.7992 -0.2198  1.4985
  128OSM   H14T13711   4.843   4.689   7.706  2.3259 -0.5227 -0.6450
  128OSM   C15S13712   4.794   4.820   7.872  0.0395  0.9100 -0.1772
  128OSM   H15S13713   4.740   4.917   7.871  1.6550  1.8231 -1.2676
  128OSM   H15T13714   4.878   4.812   7.945 -0.3400 -0.1518  0.1555
  128OSM   C16S13715   4.697   4.710   7.919 -0.1111 -0.8503 -0.0841
  128OSM   H16S13716   4.744   4.610   7.901  0.2206 -0.5657 -0.8197
  128OSM   H16T13717   4.606   4.718   7.857 -1.4778  0.6064  2.0752
  128OSM   C17S13718   4.653   4.728   8.059  0.1984  0.0894  0.8415
  128OSM   H17S13719   4.580   4.812   8.065 -1.2219 -1.0600  0.0467
  128OSM   H17T13720   4.737   4.760   8.125 -0.5452  2.1091  0.8592
  128OSM   C18S13721   4.588   4.590   8.107 -0.7685 -1.0746  0.5696
  128OSM   H18S13722   4.552   4.605   8.211  0.4524 -1.3521  1.0339
  128OSM   H18T13723   4.665   4.511   8.121  0.0897 -0.3548 -0.0835
  128OSM   H18U13724   4.503   4.566   8.039 -2.4681  0.2177  2.1927
  128OSM    C1F13725   4.769   4.329   6.592 -0.9504  0.1385 -0.1128
  128OSM     OF13726   4.813   4.310   6.482 -0.3563  0.2904  0.3805
  128OSM    C2F13727   4.791   4.239   6.709  0.1291 -0.1938  0.0193
  128OSM    H2F13728   4.898   4.218   6.690 -0.0124 -0.9227  0.0041
  128OSM    H2G13729   4.734   4.144   6.698  0.2105 -0.1744 -0.5908
  128OSM    C3F13730   4.762   4.302   6.845 -0.2314 -0.1977  0.2115
  128OSM    H3F13731   4.652   4.311   6.855 -0.4139 -0.5423 -1.3932
  128OSM    H3G13732   4.812   4.402   6.850  0.2733 -0.4803  0.9585
  128OSM    C4F13733   4.818   4.224   6.965 -0.5857  0.1639 -0.2134
  128OSM    H4F13734   4.927   4.202   6.964 -1.0965 -2.4352 -0.5319
  128OSM    H4G13735   4.764   4.127   6.976 -3.0033  1.1647 -2.6570
  128OSM    C5F13736   4.795   4.314   7.088 -0.1524  0.3097 -0.0000
  128OSM    H5F13737   4.688   4.341   7.092 -0.1641  0.8246 -3.1242
  128OSM    H5G13738   4.844   4.413   7.076  0.5445  0.2896  2.3480
  128OSM    C6F13739   4.824   4.237   7.220  0.4359 -0.0887 -0.7734
  128OSM    H6F13740   4.932   4.212   7.230  0.5963  0.3026 -1.4496
  128OSM    H6G13741   4.770   4.140   7.216 -1.2993  0.8109  0.2308
  128OSM    C7F13742   4.774   4.318   7.331 -0.5492  0.2810 -0.4792
  128OSM    H7F13743   4.677   4.365   7.306 -1.6184 -2.1287 -1.0441
  128OSM    H7G13744   4.842   4.404   7.347 -0.6963 -0.0182  1.9945
  128OSM    C8F13745   4.759   4.246   7.472 -0.0507 -0.1127 -0.4498
  128OSM    H8F13746   4.836   4.167   7.482 -0.0811 -0.0286  0.4443
  128OSM    H8G13747   4.668   4.182   7.472  1.1114 -1.8539  2.1784
  128OSM    C9F13748   4.750   4.346   7.592 -0.5349 -0.6301 -0.1404
  128OSM    H9F13749   4.654   4.399   7.593 -0.9050 -1.2636 -1.3754
  128OSM   C10F13750   4.839   4.357   7.693 -0.1262 -0.1174 -0.4112
  128OSM   H10F13751   4.824   4.444   7.759  1.9208 -0.3897  0.4221
  128OSM   C11F13752   4.961   4.275   7.716 -0.0689 -0.5047  0.0334
  128OSM   H11F13753   5.054   4.335   7.712 -0.3540 -0.0464  0.1894
  128OSM   H11G13754   4.967   4.196   7.638  0.6532 -0.8673  0.4559
  128OSM   C12F13755   4.952   4.215   7.859  0.3364  0.1456  0.1694
  128OSM   H12F13756   5.052   4.166   7.860  1.0932  1.6939  1.6034
  128OSM   H12G13757   4.875   4.135   7.866 -0.7300  1.1336 -0.0915
  128OSM   C13F13758   4.929   4.304   7.977  0.5117 -0.0332 -0.0818
  128OSM   H13F13759   4.836   4.365   7.969  0.2192 -0.7273 -2.3453
  128OSM   H13G13760   5.012   4.378   7.983  1.2474 -1.0257  2.1423
  128OSM   C14F13761   4.928   4.226   8.108 -0.4709  0.4389  0.5721
  128OSM   H14F13762   5.028   4.177   8.117 -1.2060 -1.4672 -1.3567
  128OSM   H14G13763   4.866   4.134   8.100  0.9555 -0.3076 -2.5169
  128OSM   C15F13764   4.895   4.313   8.226  0.0742  0.2847  0.1691
  128OSM   H15F13765   4.785   4.325   8.238  0.0545 -0.3534  0.6341
  128OSM   H15G13766   4.945   4.411   8.207 -0.9426  0.8411  0.3125
  128OSM   C16F13767   4.943   4.270   8.361 -0.5835  0.3241 -0.0956
  128OSM   H16F13768   5.054   4.270   8.356 -0.6024  0.9189 -0.5744
  128OSM   H16G13769   4.908   4.169   8.394 -1.2976  1.0361  1.3858
  128OSM   C17F13770   4.897   4.369   8.468  0.5565  0.0335 -0.3069
  128OSM   H17F13771   4.805   4.428   8.447  1.0560  1.3295  1.1068
  128OSM   H17G13772   4.978   4.443   8.483 -0.5995  1.3224 -0.2929
  128OSM   C18F13773   4.902   4.301   8.602  0.5632 -0.3717  0.0844
  128OSM   H18F13774   5.009   4.276   8.622  0.8633  1.3225  0.6167
  128OSM   H18G13775   4.846   4.205   8.607  1.0259 -0.6966 -0.8431
  128OSM   H18H13776   4.864   4.365   8.684 -2.7946 -1.1839 -0.7586
  129OSM      N13777   2.583   6.348   6.246 -0.0290 -0.7304 -0.2102
  129OSM    C1513778   2.531   6.452   6.149  0.4127 -0.1172 -0.0100
  129OSM   H15A13779   2.426   6.437   6.130  0.6926  0.6080 -2.3053
  129OSM   H15B13780   2.593   6.443   6.061 -0.2270  1.2238 -0.6101
  129OSM   H15C13781   2.540   6.548   6.196  1.8507 -0.0824 -0.3230
  129OSM    C1413782   2.712   6.408   6.309 -0.0244 -0.0517 -0.1481
  129OSM   H14A13783   2.692   6.495   6.369 -0.1696  0.0972 -0.4152
  129OSM   H14B13784   2.788   6.442   6.240  0.4032  2.1062  1.3393
  129OSM   H14C13785   2.754   6.333   6.375  0.6849  1.6641  1.3635
  129OSM    C1313786   2.475   6.333   6.347 -1.0107  0.2139  0.3490
  129OSM   H13A13787   2.437   6.428   6.381 -2.5457  0.0589 -0.8672
  129OSM   H13B13788   2.505   6.273   6.432 -0.1420 -2.5367 -1.7964
  129OSM   H13C13789   2.388   6.286   6.302 -0.6840  2.7337 -3.1153
  129OSM    C1213790   2.609   6.214   6.181 -0.1643 -0.5984  0.0879
  129OSM   H12A13791   2.520   6.176   6.133  0.0478 -0.1285 -0.6739
  129OSM   H12B13792   2.627   6.136   6.253  0.1244 -1.5401 -0.9988
  129OSM    C1113793   2.721   6.206   6.077 -0.5715  0.4511  0.2864
  129OSM   H11A13794   2.702   6.293   6.010 -2.5840  0.9157  1.4205
  129OSM   H11B13795   2.717   6.123   6.004 -0.0007  0.3314  0.3900
  129OSM      P13796   2.908   6.081   6.198 -0.4558 -0.4804  0.1668
  129OSM    O1313797   2.951   5.990   6.088 -0.1157 -0.0915  0.4627
  129OSM    O1413798   3.014   6.120   6.287 -0.1251  0.4368  0.3980
  129OSM    O1113799   2.786   6.022   6.278 -0.3691 -0.5169 -0.5135
  129OSM    O1213800   2.852   6.210   6.132 -0.1201 -0.7632  0.0095
  129OSM    C1S13801   2.794   5.902   6.351 -0.3712  0.9057 -0.7517
  129OSM    H1S13802   2.851   5.828   6.291  0.5316 -0.7456  2.0392
  129OSM    H1T13803   2.693   5.857   6.359 -0.7558  1.9665  0.5643
  129OSM     NF13804   2.855   5.779   6.543  0.0876 -0.0699 -1.0355
  129OSM    HNF13805   2.791   5.747   6.612  1.5944 -2.6064 -0.7529
  129OSM    C2S13806   2.844   5.920   6.490  0.4354  0.5746 -0.3436
  129OSM    H2S13807   2.943   5.970   6.492  1.3914 -1.2906  0.0357
  129OSM    C3S13808   2.756   6.013   6.574  0.0158 -0.1854  0.2926
  129OSM    H3S13809   2.651   5.977   6.564 -1.1647  3.4573 -1.3267
  129OSM     O313810   2.766   6.149   6.531  0.1061  0.6694 -0.4128
  129OSM    HO313811   2.826   6.146   6.455  0.5119  0.3835 -0.0846
  129OSM    C4S13812   2.781   6.000   6.722  0.1426  0.6696  0.1607
  129OSM    H4S13813   2.715   5.929   6.773 -0.3286  1.4602  0.6724
  129OSM    C5S13814   2.861   6.082   6.796 -0.4286 -0.5665  0.6823
  129OSM    H5S13815   2.925   6.156   6.746  1.9013 -2.0128  1.3884
  129OSM    C6S13816   2.894   6.070   6.943  0.2041  0.3999 -0.1759
  129OSM    H6S13817   2.878   6.173   6.982 -0.5080  0.1983  0.0739
  129OSM    H6T13818   2.995   6.029   6.963  0.2145  0.9494  0.9606
  129OSM    C7S13819   2.807   5.976   7.027  0.0208 -0.4078 -0.4956
  129OSM    H7S13820   2.804   5.874   6.983 -2.8739  0.0968 -1.5208
  129OSM    H7T13821   2.708   6.023   7.007  1.3559  2.7630 -0.0115
  129OSM    C8S13822   2.834   5.984   7.179  0.8965  0.6763  0.1661
  129OSM    H8S13823   2.855   6.088   7.213 -1.2533  0.7500  1.3349
  129OSM    H8T13824   2.921   5.917   7.199  0.2592  0.0050  0.7039
  129OSM    C9S13825   2.717   5.941   7.263 -0.5643  0.0152  0.3396
  129OSM    H9S13826   2.687   5.840   7.228 -0.7245  0.0289  0.4343
  129OSM    H9T13827   2.638   6.019   7.270  1.0586  1.7729 -0.5250
  129OSM   C10S13828   2.759   5.920   7.408 -0.0883 -0.1939 -0.6200
  129OSM   H10S13829   2.830   5.834   7.416  0.7523  0.4583 -0.9559
  129OSM   H10T13830   2.675   5.883   7.470 -0.4953  0.1064 -0.9855
  129OSM   C11S13831   2.821   6.042   7.478  0.2195 -0.3204 -0.3076
  129OSM   H11S13832   2.749   6.124   7.499 -2.0003 -2.7441  2.0063
  129OSM   H11T13833   2.911   6.075   7.422  1.3705 -0.2694  1.5598
  129OSM   C12S13834   2.860   6.016   7.626  0.2421 -0.1130 -0.4803
  129OSM   H12S13835   2.913   6.103   7.669  0.0822 -0.4598  0.4308
  129OSM   H12T13836   2.930   5.929   7.619  1.0044  0.1713  3.0259
  129OSM   C13S13837   2.735   5.984   7.715  0.3466  0.7236 -0.7182
  129OSM   H13S13838   2.688   5.887   7.687 -1.5252  1.6232 -0.7343
  129OSM   H13T13839   2.657   6.063   7.708 -2.4810 -1.7654  1.4777
  129OSM   C14S13840   2.768   5.963   7.861 -0.0299 -0.5223  0.3316
  129OSM   H14S13841   2.822   6.056   7.887 -1.4204  0.4972 -0.3635
  129OSM   H14T13842   2.832   5.872   7.860 -0.7258 -1.0160 -0.9454
  129OSM   C15S13843   2.646   5.942   7.950 -0.1495  0.2748 -0.6871
  129OSM   H15S13844   2.595   5.853   7.906  1.0978  0.2014 -1.9885
  129OSM   H15T13845   2.583   6.033   7.950 -0.4198  0.1077  1.4768
  129OSM   C16S13846   2.677   5.909   8.092 -0.1964  0.4131 -0.0865
  129OSM   H16S13847   2.743   5.981   8.145  0.8139 -0.9734  0.5728
  129OSM   H16T13848   2.724   5.809   8.086  1.3351  1.0851  0.4996
  129OSM   C17S13849   2.545   5.895   8.172  0.2354  0.0863 -0.1271
  129OSM   H17S13850   2.495   5.802   8.136 -0.4517  0.1681  0.6178
  129OSM   H17T13851   2.480   5.985   8.163 -0.5819 -0.3454  1.3919
  129OSM   C18S13852   2.570   5.883   8.323 -0.3245  0.7793  0.3490
  129OSM   H18S13853   2.467   5.883   8.365 -2.1256  0.9854 -3.7335
  129OSM   H18T13854   2.615   5.977   8.360 -0.2609  1.3847 -1.2122
  129OSM   H18U13855   2.621   5.791   8.358 -0.4638  1.1320  1.4793
  129OSM    C1F13856   2.952   5.696   6.506  1.6113  0.9213  0.1140
  129OSM     OF13857   3.030   5.737   6.429 -0.1354 -0.1126 -0.1460
  129OSM    C2F13858   2.942   5.565   6.561 -0.2728  0.3351 -0.2545
  129OSM    H2F13859   2.962   5.483   6.488 -2.7206 -0.7538  0.2311
  129OSM    H2G13860   2.836   5.548   6.592 -0.1410  0.8762  0.4676
  129OSM    C3F13861   3.033   5.532   6.688 -0.6403 -0.2213  1.2258
  129OSM    H3F13862   3.137   5.540   6.650 -0.5615 -1.0733  1.2508
  129OSM    H3G13863   3.023   5.424   6.715 -2.2565 -0.2324  0.6575
  129OSM    C4F13864   3.006   5.617   6.811 -0.2290 -0.5455 -0.0715
  129OSM    H4F13865   2.897   5.637   6.804 -0.2598 -0.8330 -0.4244
  129OSM    H4G13866   3.067   5.709   6.807  0.3881 -0.8003  2.6050
  129OSM    C5F13867   3.021   5.537   6.936 -0.1976  0.4027 -0.1892
  129OSM    H5F13868   3.130   5.529   6.957  0.1375  0.9895 -1.6959
  129OSM    H5G13869   2.983   5.433   6.925  0.6266  0.1634 -0.8523
  129OSM    C6F13870   2.937   5.603   7.046 -0.1346  0.5869  0.0413
  129OSM    H6F13871   2.833   5.603   7.008 -0.7752  1.5018  1.7299
  129OSM    H6G13872   2.958   5.711   7.060 -1.4164  0.9222 -0.6303
  129OSM    C7F13873   2.932   5.524   7.177 -0.1828  0.4072  0.1532
  129OSM    H7F13874   2.902   5.419   7.155 -1.2855  1.0361 -1.4639
  129OSM    H7G13875   2.866   5.573   7.252  0.1185  1.6844 -0.3945
  129OSM    C8F13876   3.084   5.512   7.225  0.2346  0.4920  0.4749
  129OSM    H8F13877   3.117   5.618   7.211 -2.0121  1.1347 -0.1178
  129OSM    H8G13878   3.143   5.444   7.160 -1.0263  0.5045 -0.7022
  129OSM    C9F13879   3.081   5.481   7.371 -0.1316 -0.1114 -1.0306
  129OSM    H9F13880   3.001   5.409   7.399 -0.1957  1.3928  2.9966
  129OSM   C10F13881   3.146   5.531   7.478 -0.4577  0.2739  1.1504
  129OSM   H10F13882   3.121   5.502   7.581 -1.0306  0.2150  0.9944
  129OSM   C11F13883   3.244   5.642   7.470 -0.0906 -0.0780  0.5837
  129OSM   H11F13884   3.284   5.648   7.367 -1.4880 -1.2915 -0.0498
  129OSM   H11G13885   3.328   5.618   7.539  1.3414 -0.1925 -1.1903
  129OSM   C12F13886   3.172   5.770   7.519  0.3943 -1.7400  0.5157
  129OSM   H12F13887   3.110   5.743   7.608 -0.8038 -1.5540 -0.2479
  129OSM   H12G13888   3.102   5.810   7.443  0.2222 -1.5601  0.7644
  129OSM   C13F13889   3.269   5.885   7.551  0.6294 -0.4504  0.0436
  129OSM   H13F13890   3.335   5.855   7.635 -0.7192 -1.2338  0.8337
  129OSM   H13G13891   3.211   5.977   7.576 -0.7500 -1.3895  0.2870
  129OSM   C14F13892   3.357   5.916   7.428  0.1039  0.1839  0.0388
  129OSM   H14F13893   3.426   5.836   7.395 -0.0729 -0.3404  0.9420
  129OSM   H14G13894   3.414   6.011   7.442 -1.8065  1.3982 -0.2886
  129OSM   C15F13895   3.271   5.948   7.293  0.9248 -0.0619  0.1915
  129OSM   H15F13896   3.195   6.028   7.306  0.9440 -0.1611  0.9806
  129OSM   H15G13897   3.211   5.858   7.269 -1.1604  1.3799 -0.1366
  129OSM   C16F13898   3.367   5.969   7.177 -0.0510  0.4989  0.1316
  129OSM   H16F13899   3.412   5.871   7.151  1.3907  0.9180  0.9551
  129OSM   H16G13900   3.452   6.035   7.206 -0.6366  1.2427  0.1659
  129OSM   C17F13901   3.292   6.018   7.057  1.0474 -0.6639 -0.2723
  129OSM   H17F13902   3.253   6.119   7.079 -0.9760 -1.1017 -1.7523
  129OSM   H17G13903   3.200   5.957   7.048  1.0088 -0.4245 -1.6105
  129OSM   C18F13904   3.370   6.030   6.929 -0.3605  0.5775  0.7589
  129OSM   H18F13905   3.474   6.066   6.942  0.4007 -1.7096  1.2546
  129OSM   H18G13906   3.318   6.089   6.851  1.2091 -1.0970 -1.6300
  129OSM   H18H13907   3.363   5.928   6.885 -0.6578  0.5402  0.8930
  130OSM      N13908   3.518   2.896   6.154  0.3591 -0.0852 -0.7396
  130OSM    C1513909   3.472   2.918   6.299 -0.0833 -0.3113  0.0507
  130OSM   H15A13910   3.449   3.021   6.323  2.5891  0.2015  0.5246
  130OSM   H15B13911   3.535   2.882   6.378  1.1049  1.0395 -0.2559
  130OSM   H15C13912   3.372   2.878   6.309 -0.6764  0.9538 -0.6338
  130OSM    C1413913   3.423   2.961   6.064  0.3871  0.0884 -0.0769
  130OSM   H14A13914   3.325   2.916   6.074 -0.1171  1.0961 -0.4286
  130OSM   H14B13915   3.451   2.954   5.960  0.8386  1.1267 -0.0273
  130OSM   H14C13916   3.412   3.067   6.081  1.0433  0.4510 -1.8776
  130OSM    C1313917   3.658   2.951   6.140 -0.1516 -0.0110  0.2362
  130OSM   H13A13918   3.652   3.058   6.154  0.4451 -0.0246  0.6431
  130OSM   H13B13919   3.701   2.933   6.043  0.1306 -0.6207  0.4752
  130OSM   H13C13920   3.727   2.906   6.210 -1.4423 -0.7666  1.0436
  130OSM    C1213921   3.523   2.744   6.133 -0.0852  0.1466 -0.6767
  130OSM   H12A13922   3.576   2.725   6.042  1.0300  0.8952 -0.1887
  130OSM   H12B13923   3.423   2.706   6.114 -0.4767 -0.2226  1.9024
  130OSM    C1113924   3.606   2.659   6.236 -0.2964 -0.3558 -0.7427
  130OSM   H11A13925   3.566   2.559   6.208  0.8441 -0.9537 -0.2225
  130OSM   H11B13926   3.578   2.671   6.343  1.3234  3.0273 -0.6602
  130OSM      P13927   3.845   2.697   6.335  0.2777 -0.1508 -0.1232
  130OSM    O1313928   3.812   2.605   6.447 -0.7491  0.3092  0.3768
  130OSM    O1413929   3.985   2.682   6.286  0.2034  0.0953 -0.0196
  130OSM    O1113930   3.818   2.848   6.383 -0.0212 -0.2456  0.4582
  130OSM    O1213931   3.746   2.670   6.212  0.3115  0.6316 -0.2646
  130OSM    C1S13932   3.780   2.880   6.513  0.2618 -0.1777  0.0427
  130OSM    H1S13933   3.722   2.800   6.564  1.9016 -0.1958  1.9317
  130OSM    H1T13934   3.722   2.974   6.506 -1.6803 -1.4163 -1.0075
  130OSM     NF13935   3.870   2.930   6.736 -0.6935 -0.2547 -0.3502
  130OSM    HNF13936   3.876   3.020   6.776 -0.4280 -0.8494  0.9600
  130OSM    C2S13937   3.903   2.905   6.601 -0.0489  0.0710 -0.7725
  130OSM    H2S13938   3.966   2.813   6.597 -0.4534 -0.2547  0.0651
  130OSM    C3S13939   3.992   3.017   6.549  0.7264 -0.3602  0.3249
  130OSM    H3S13940   3.929   3.108   6.559  0.3643 -0.3053 -2.1637
  130OSM     O313941   4.022   3.011   6.405 -0.1331 -0.2245  0.3507
  130OSM    HO313942   3.961   2.943   6.378 -0.4836 -0.4575  1.7292
  130OSM    C4S13943   4.112   3.031   6.622  0.4866  0.5605  0.5949
  130OSM    H4S13944   4.160   2.935   6.643  1.7593  0.9248 -0.6060
  130OSM    C5S13945   4.176   3.144   6.658  0.3572  0.0989 -0.1809
  130OSM    H5S13946   4.148   3.244   6.622 -2.9251  0.0692  1.9981
  130OSM    C6S13947   4.298   3.158   6.749  0.4231  0.3867  0.5051
  130OSM    H6S13948   4.305   3.267   6.769  0.6152  0.4970 -0.1495
  130OSM    H6T13949   4.387   3.131   6.688  1.1844 -1.6015  2.4251
  130OSM    C7S13950   4.296   3.084   6.881 -0.5455 -0.0326  0.1046
  130OSM    H7S13951   4.256   2.981   6.868 -0.1567 -0.3204  1.1393
  130OSM    H7T13952   4.227   3.148   6.941 -2.9082 -2.3415 -0.0473
  130OSM    C8S13953   4.432   3.081   6.942 -0.2258 -0.5027  0.7028
  130OSM    H8S13954   4.470   3.176   6.985 -1.0581  0.4910 -0.7201
  130OSM    H8T13955   4.514   3.057   6.870  1.3725 -0.3834  2.4612
  130OSM    C9S13956   4.435   2.986   7.060  0.1585 -0.0750  0.2907
  130OSM    H9S13957   4.540   2.967   7.092 -0.2471 -0.0202  1.7218
  130OSM    H9T13958   4.389   2.887   7.044  1.9165 -1.3054  2.5295
  130OSM   C10S13959   4.358   3.054   7.174 -0.5723 -0.1451 -0.0407
  130OSM   H10S13960   4.251   3.059   7.147 -0.7884 -1.0728  0.6231
  130OSM   H10T13961   4.392   3.152   7.215  2.7117 -0.6736 -1.3796
  130OSM   C11S13962   4.343   2.953   7.301 -0.0428 -0.6347  0.2547
  130OSM   H11S13963   4.443   2.917   7.333 -0.2161 -1.7114 -0.3806
  130OSM   H11T13964   4.292   2.867   7.253  0.7975 -0.7093 -0.5138
  130OSM   C12S13965   4.268   3.006   7.416 -0.3435 -0.7952  0.7244
  130OSM   H12S13966   4.163   3.023   7.383 -0.7981 -2.8797  1.0099
  130OSM   H12T13967   4.301   3.106   7.450  1.0311 -1.3536  1.0461
  130OSM   C13S13968   4.266   2.913   7.538  0.5616 -0.0527 -0.1103
  130OSM   H13S13969   4.373   2.899   7.566  0.4922  0.7542  0.5769
  130OSM   H13T13970   4.221   2.815   7.509 -2.0185  0.9961  0.2435
  130OSM   C14S13971   4.204   2.979   7.672 -0.9421  1.5702 -0.1302
  130OSM   H14S13972   4.096   3.002   7.665 -0.5222  3.3657 -1.1829
  130OSM   H14T13973   4.264   3.072   7.686  2.8223 -0.6463 -0.6924
  130OSM   C15S13974   4.232   2.903   7.796  0.1886 -0.3542  0.7834
  130OSM   H15S13975   4.341   2.884   7.809  1.0790  1.7861 -2.6928
  130OSM   H15T13976   4.190   2.800   7.788  2.2392 -1.3833  2.7250
  130OSM   C16S13977   4.187   2.971   7.928 -0.0038 -0.6741  0.2424
  130OSM   H16S13978   4.079   2.994   7.917  0.5985  1.9583 -0.6262
  130OSM   H16T13979   4.238   3.069   7.933 -1.0006 -0.1551  0.4034
  130OSM   C17S13980   4.206   2.888   8.053 -0.6634 -0.0238  0.3738
  130OSM   H17S13981   4.309   2.904   8.092 -1.0932  1.6689  0.8736
  130OSM   H17T13982   4.196   2.782   8.022 -2.0051  0.0459  0.5469
  130OSM   C18S13983   4.096   2.924   8.155 -0.6243 -0.9406  0.0451
  130OSM   H18S13984   4.097   3.031   8.186 -2.1335 -0.4067 -1.6550
  130OSM   H18T13985   4.110   2.866   8.249  1.4185  0.3305  0.5505
  130OSM   H18U13986   3.994   2.904   8.114 -0.6224 -2.3128  0.6703
  130OSM    C1F13987   3.808   2.841   6.813 -0.3162  0.0570  0.4446
  130OSM     OF13988   3.828   2.722   6.795  0.0423  0.1782 -0.1304
  130OSM    C2F13989   3.731   2.897   6.927 -0.4005  0.3602 -0.2879
  130OSM    H2F13990   3.628   2.899   6.886 -1.0715 -0.1590  1.3411
  130OSM    H2G13991   3.760   3.000   6.958  0.8577 -0.8674  2.7546
  130OSM    C3F13992   3.761   2.818   7.059 -0.0875  0.1561 -0.2066
  130OSM    H3F13993   3.865   2.843   7.090  0.3344 -2.3537  0.4789
  130OSM    H3G13994   3.759   2.710   7.033  0.0245 -0.8923  3.8072
  130OSM    C4F13995   3.667   2.866   7.166 -0.2377 -0.1324  0.3006
  130OSM    H4F13996   3.565   2.882   7.125 -0.5154 -2.6122 -0.0449
  130OSM    H4G13997   3.704   2.964   7.203  1.6648 -1.3610  1.7887
  130OSM    C5F13998   3.670   2.764   7.293  0.8925 -0.4694  0.2314
  130OSM    H5F13999   3.778   2.754   7.318  1.0311  0.7077  0.1558
  130OSM    H5G14000   3.634   2.662   7.268 -3.9336  1.0701  0.3906
  130OSM    C6F14001   3.598   2.820   7.414  0.8159 -0.0137 -0.5155
  130OSM    H6F14002   3.493   2.841   7.383  1.1930  0.9215 -1.1804
  130OSM    H6G14003   3.649   2.914   7.443 -0.5459 -0.1109  2.3236
  130OSM    C7F14004   3.587   2.724   7.541  0.1914 -0.2180  0.9408
  130OSM    H7F14005   3.522   2.637   7.518  0.8879 -0.2530 -0.9431
  130OSM    H7G14006   3.538   2.788   7.618 -1.0358 -1.1474  0.9500
  130OSM    C8F14007   3.724   2.682   7.604 -0.2977 -0.1290  0.8519
  130OSM    H8F14008   3.785   2.635   7.523 -0.5486  3.3061 -1.4795
  130OSM    H8G14009   3.704   2.609   7.685  0.6151 -0.4855  0.7650
  130OSM    C9F14010   3.811   2.796   7.653 -0.6518  0.2292 -0.0874
  130OSM    H9F14011   3.849   2.874   7.585 -0.1832 -0.6637 -0.8492
  130OSM   C10F14012   3.843   2.813   7.786  0.3866 -0.2352  0.1957
  130OSM   H10F14013   3.912   2.894   7.814 -1.1569  1.0606  0.2940
  130OSM   C11F14014   3.802   2.726   7.902 -0.0903  0.3678 -0.1425
  130OSM   H11F14015   3.879   2.731   7.981 -0.3438  3.3264 -0.0268
  130OSM   H11G14016   3.801   2.616   7.888  0.3817  0.1441  1.5104
  130OSM   C12F14017   3.655   2.785   7.942 -0.2562 -0.6353 -0.1074
  130OSM   H12F14018   3.580   2.738   7.874 -0.5777  1.9018 -1.5749
  130OSM   H12G14019   3.649   2.896   7.940  0.8576 -0.5788 -1.3965
  130OSM   C13F14020   3.615   2.746   8.081  0.4785 -0.6317  0.1879
  130OSM   H13F14021   3.628   2.636   8.090 -0.2635 -0.7186  0.2974
  130OSM   H13G14022   3.505   2.764   8.088  0.5582 -0.3073  0.6227
  130OSM   C14F14023   3.673   2.820   8.205 -0.6314 -0.2792  0.2432
  130OSM   H14F14024   3.670   2.929   8.185  0.1642  0.0191  1.6505
  130OSM   H14G14025   3.783   2.804   8.208 -0.5999 -0.3057 -1.1335
  130OSM   C15F14026   3.610   2.792   8.339 -0.7323  0.1357  0.0297
  130OSM   H15F14027   3.674   2.717   8.390 -1.8619  0.4290  1.9622
  130OSM   H15G14028   3.514   2.742   8.315  1.0323 -2.8295 -1.1662
  130OSM   C16F14029   3.591   2.917   8.423  0.1051  0.1568 -0.1391
  130OSM   H16F14030   3.687   2.972   8.430  0.1543  0.1183 -0.5056
  130OSM   H16G14031   3.550   2.886   8.521  0.9877 -1.5588 -0.2937
  130OSM   C17F14032   3.480   3.010   8.365  0.2656  0.4984  0.1250
  130OSM   H17F14033   3.383   2.960   8.385  0.9692 -0.9901 -0.1000
  130OSM   H17G14034   3.486   3.029   8.256  1.3305  0.5232  0.1820
  130OSM   C18F14035   3.463   3.154   8.424 -0.2633  0.0113  0.2657
  130OSM   H18F14036   3.548   3.221   8.399 -0.8344 -0.1386 -2.2590
  130OSM   H18G14037   3.444   3.155   8.533  1.9461 -0.7551  0.6660
  130OSM   H18H14038   3.378   3.211   8.379  1.5221  0.8708 -2.1539
  131OSM      N14039   4.541   0.848   5.990  0.1100  0.2333 -0.6942
  131OSM    C1514040   4.675   0.913   5.999  0.3437 -0.0982  0.8271
  131OSM   H15A14041   4.752   0.845   6.033  0.6907 -0.0994  0.0673
  131OSM   H15B14042   4.662   1.000   6.062 -0.4760  1.3670 -1.3224
  131OSM   H15C14043   4.701   0.959   5.905  1.9752  0.5303  1.5659
  131OSM    C1414044   4.432   0.940   5.944 -0.8126 -0.1793  0.1304
  131OSM   H14A14045   4.455   0.991   5.852  0.6229  0.4348  0.8110
  131OSM   H14B14046   4.400   1.015   6.016  0.3486  0.9373 -0.5003
  131OSM   H14C14047   4.339   0.886   5.936  0.3786 -1.7959 -4.0820
  131OSM    C1314048   4.542   0.745   5.892  0.2459 -0.1217  0.3118
  131OSM   H13A14049   4.589   0.656   5.932 -0.9369 -0.5397  0.7962
  131OSM   H13B14050   4.590   0.780   5.802 -0.3780  0.4704  0.2084
  131OSM   H13C14051   4.449   0.706   5.853 -0.1208 -0.4619  1.4982
  131OSM    C1214052   4.492   0.788   6.124  0.1095  0.2082 -0.0055
  131OSM   H12A14053   4.571   0.729   6.169 -0.8975 -0.0416  1.4646
  131OSM   H12B14054   4.411   0.718   6.110 -0.3511  0.6596  0.3995
  131OSM    C1114055   4.445   0.885   6.241 -0.3431 -0.0261 -0.3394
  131OSM   H11A14056   4.444   0.830   6.337  1.2584  0.3462 -0.1022
  131OSM   H11B14057   4.341   0.920   6.220 -0.9475 -2.0448 -0.8575
  131OSM      P14058   4.494   1.136   6.265 -0.1586 -0.1502  0.5150
  131OSM    O1314059   4.583   1.218   6.346  0.3207 -0.0599 -0.3520
  131OSM    O1414060   4.472   1.185   6.124 -0.3711 -0.0799  0.3620
  131OSM    O1114061   4.358   1.127   6.342  0.2279 -0.3136 -0.2187
  131OSM    O1214062   4.543   0.991   6.260 -0.4549 -0.1865 -0.5240
  131OSM    C1S14063   4.346   1.101   6.485  0.4195 -0.0986 -0.0155
  131OSM    H1S14064   4.428   1.147   6.544  1.1614 -0.8469 -0.4536
  131OSM    H1T14065   4.358   0.992   6.504  0.2207 -0.4409 -1.7534
  131OSM     NF14066   4.212   1.129   6.693  0.1635  0.6886  0.3958
  131OSM    HNF14067   4.177   1.042   6.727 -1.8192  1.3338  0.0400
  131OSM    C2S14068   4.211   1.145   6.549  0.2965 -0.2849  0.5771
  131OSM    H2S14069   4.187   1.251   6.526 -3.0477 -1.1066  0.0582
  131OSM    C3S14070   4.103   1.064   6.478  0.1243 -0.4458 -0.4418
  131OSM    H3S14071   4.120   0.955   6.488  2.3447  0.2023  3.8975
  131OSM     O314072   4.089   1.091   6.330 -0.8228 -0.7327  0.0147
  131OSM    HO314073   4.173   1.131   6.309  0.9199 -2.5390  3.0684
  131OSM    C4S14074   3.968   1.098   6.549  0.2514  0.5204  0.5947
  131OSM    H4S14075   3.952   1.206   6.559 -1.3283  0.4490 -0.7877
  131OSM    C5S14076   3.881   1.007   6.595  0.2148 -0.0920 -0.2927
  131OSM    H5S14077   3.894   0.899   6.582 -0.1055 -0.2369  0.5777
  131OSM    C6S14078   3.750   1.046   6.663  0.2985 -0.4959  0.3767
  131OSM    H6S14079   3.665   1.010   6.602 -0.9349  1.6713  0.7703
  131OSM    H6T14080   3.741   1.156   6.671  1.4926 -0.2959 -0.8527
  131OSM    C7S14081   3.741   0.992   6.810 -0.3324 -0.4659  0.1664
  131OSM    H7S14082   3.791   0.893   6.810 -1.8048 -1.2186 -0.1083
  131OSM    H7T14083   3.632   0.976   6.823 -0.0522 -1.0977  1.9177
  131OSM    C8S14084   3.804   1.093   6.903  0.4536  0.0107 -0.0051
  131OSM    H8S14085   3.805   1.199   6.869  1.1475  0.0549  0.1425
  131OSM    H8T14086   3.908   1.066   6.875  0.0302 -1.2414 -0.4316
  131OSM    C9S14087   3.756   1.063   7.046  0.4619 -0.8247 -0.2894
  131OSM    H9S14088   3.749   0.953   7.056  0.0650 -0.9435 -1.8070
  131OSM    H9T14089   3.651   1.096   7.067  0.2934 -1.5204 -0.0289
  131OSM   C10S14090   3.854   1.117   7.151 -0.0936 -0.0855 -0.2279
  131OSM   H10S14091   3.841   1.227   7.148  3.0546  0.2958 -1.2603
  131OSM   H10T14092   3.960   1.103   7.120  0.1150 -1.1798  0.9028
  131OSM   C11S14093   3.841   1.050   7.287  0.1666  0.0201  0.7879
  131OSM   H11S14094   3.735   1.058   7.322 -0.0288  0.3513  0.1302
  131OSM   H11T14095   3.903   1.096   7.367 -0.8708  0.6082  1.2763
  131OSM   C12S14096   3.873   0.903   7.275 -0.2641  0.1656  0.3454
  131OSM   H12S14097   3.966   0.892   7.216  1.2695 -1.0124  2.8514
  131OSM   H12T14098   3.792   0.845   7.225  1.2348  0.1177 -2.0900
  131OSM   C13S14099   3.901   0.834   7.412 -0.2136 -0.3985 -0.5472
  131OSM   H13S14100   3.978   0.894   7.464  0.2655  0.1367 -1.8656
  131OSM   H13T14101   3.943   0.733   7.390 -0.7279 -0.7715  0.1575
  131OSM   C14S14102   3.774   0.817   7.494  0.0106 -0.3891  0.2610
  131OSM   H14S14103   3.704   0.902   7.483 -0.5090 -0.7454  0.8173
  131OSM   H14T14104   3.799   0.802   7.601  1.5438  0.5680  0.0515
  131OSM   C15S14105   3.695   0.699   7.438  0.3379  0.0603  0.2062
  131OSM   H15S14106   3.758   0.612   7.411  1.1491  0.8482 -0.4838
  131OSM   H15T14107   3.642   0.743   7.351 -1.5656 -1.5956  0.5105
  131OSM   C16S14108   3.593   0.649   7.546  0.3853 -0.3628  0.5530
  131OSM   H16S14109   3.546   0.738   7.594 -3.4522 -1.0281 -1.7435
  131OSM   H16T14110   3.649   0.592   7.622  0.6165 -0.0562  0.6142
  131OSM   C17S14111   3.486   0.550   7.492 -1.0226 -0.0205 -0.2069
  131OSM   H17S14112   3.428   0.513   7.579 -1.3185  0.8436 -0.0280
  131OSM   H17T14113   3.551   0.471   7.450  0.1582  0.4575  0.7102
  131OSM   C18S14114   3.404   0.614   7.387  0.3476 -0.3406 -0.2853
  131OSM   H18S14115   3.351   0.700   7.433 -2.5746 -1.3481 -1.6201
  131OSM   H18T14116   3.339   0.531   7.351  0.1989 -0.8369  1.1068
  131OSM   H18U14117   3.461   0.657   7.302 -2.4231  2.6506 -0.7345
  131OSM    C1F14118   4.288   1.190   6.775 -0.4533 -0.2584 -0.5623
  131OSM     OF14119   4.332   1.300   6.745 -0.0580 -0.2578 -0.3157
  131OSM    C2F14120   4.322   1.118   6.908  0.2409 -0.9398  0.3135
  131OSM    H2F14121   4.360   1.019   6.876  0.6925 -1.6462  2.8845
  131OSM    H2G14122   4.227   1.097   6.962  0.8013  0.0549  1.7007
  131OSM    C3F14123   4.438   1.187   6.983  0.1409 -0.0818  0.5421
  131OSM    H3F14124   4.406   1.293   6.996  0.2717 -0.1338  1.3420
  131OSM    H3G14125   4.520   1.192   6.909 -1.4333 -0.6616 -1.2674
  131OSM    C4F14126   4.482   1.116   7.115  0.3060 -0.4600 -0.7869
  131OSM    H4F14127   4.573   1.161   7.158 -1.1654 -0.4399  2.4935
  131OSM    H4G14128   4.499   1.010   7.084  1.3440  0.6002 -3.9724
  131OSM    C5F14129   4.383   1.130   7.234  0.1424  0.3426  0.1927
  131OSM    H5F14130   4.280   1.104   7.201 -0.7248  0.0165  3.0949
  131OSM    H5G14131   4.366   1.233   7.272 -0.8849  0.4923 -0.6454
  131OSM    C6F14132   4.411   1.030   7.349  0.0675  0.1007 -0.5580
  131OSM    H6F14133   4.504   1.046   7.407  0.4496 -0.0817 -1.1198
  131OSM    H6G14134   4.412   0.927   7.308 -0.4644  0.0429 -0.4328
  131OSM    C7F14135   4.307   1.019   7.461  0.9041 -0.0817  0.3180
  131OSM    H7F14136   4.207   1.020   7.413  0.0806  0.5702  2.0087
  131OSM    H7G14137   4.303   1.114   7.519  0.2533 -0.2656  0.5741
  131OSM    C8F14138   4.311   0.893   7.551  0.3954 -0.3672 -0.1716
  131OSM    H8F14139   4.329   0.809   7.481 -1.0248 -0.7349 -0.1062
  131OSM    H8G14140   4.213   0.874   7.599  0.6340  0.1243  0.5164
  131OSM    C9F14141   4.417   0.913   7.658 -0.0429  0.8116 -0.1935
  131OSM    H9F14142   4.519   0.902   7.617  0.8617  1.6339  1.7804
  131OSM   C10F14143   4.395   0.926   7.795  0.2055  0.1890  0.2921
  131OSM   H10F14144   4.483   0.942   7.860 -0.1367 -1.2604  1.1317
  131OSM   C11F14145   4.261   0.924   7.867 -0.1486  0.5600 -0.1872
  131OSM   H11F14146   4.212   0.833   7.828 -0.3873  0.8752 -0.6316
  131OSM   H11G14147   4.195   1.011   7.846  0.6255  1.7232  1.9380
  131OSM   C12F14148   4.283   0.909   8.025 -0.2764 -0.3274 -1.4557
  131OSM   H12F14149   4.179   0.904   8.064 -0.4323  1.6178 -1.5900
  131OSM   H12G14150   4.326   1.002   8.067  3.1881 -1.9318 -1.3215
  131OSM   C13F14151   4.355   0.788   8.070 -0.0605 -0.5017  0.2732
  131OSM   H13F14152   4.458   0.799   8.030  0.0823 -0.1428  0.7398
  131OSM   H13G14153   4.311   0.697   8.022 -3.3535  1.1567 -0.0275
  131OSM   C14F14154   4.365   0.779   8.224 -0.4913  0.0604  0.0298
  131OSM   H14F14155   4.412   0.869   8.269 -1.2254  0.0779  0.7722
  131OSM   H14G14156   4.433   0.692   8.237  0.4745  0.7760 -0.2385
  131OSM   C15F14157   4.229   0.754   8.301 -0.8718  0.4500 -0.1300
  131OSM   H15F14158   4.175   0.669   8.255 -1.2150  0.7636 -0.3123
  131OSM   H15G14159   4.161   0.841   8.286 -0.4917  0.6804 -0.5441
  131OSM   C16F14160   4.273   0.726   8.448  0.2706  0.7158  0.3837
  131OSM   H16F14161   4.191   0.730   8.523  0.8719  0.7988  1.0333
  131OSM   H16G14162   4.346   0.805   8.472  1.4168 -0.0632 -0.4877
  131OSM   C17F14163   4.340   0.592   8.467  0.6686  0.2459 -0.0083
  131OSM   H17F14164   4.357   0.578   8.576 -1.7872 -2.1491  0.1239
  131OSM   H17G14165   4.441   0.577   8.425  1.4954 -0.3170  2.1414
  131OSM   C18F14166   4.247   0.484   8.415 -0.5877  0.0663 -0.7934
  131OSM   H18F14167   4.249   0.482   8.304  1.7993  1.8210 -0.8058
  131OSM   H18G14168   4.142   0.516   8.434 -0.5885 -1.5087  2.1874
  131OSM   H18H14169   4.265   0.381   8.454 -1.6021  1.1429  2.6770
  132OSM      N14170   5.997   4.467   5.985  0.2203  0.2369 -0.0121
  132OSM    C1514171   5.882   4.374   5.971  0.4260 -0.2465 -0.3560
  132OSM   H15A14172   5.861   4.314   6.059  0.4757 -0.0009 -0.1747
  132OSM   H15B14173   5.899   4.311   5.885  1.9257 -0.0447 -0.2301
  132OSM   H15C14174   5.795   4.434   5.949  1.2265  0.8866 -0.4554
  132OSM    C1414175   6.125   4.396   5.983  0.7176  0.6131  0.0589
  132OSM   H14A14176   6.211   4.455   6.009  1.1779  0.0713 -0.2358
  132OSM   H14B14177   6.138   4.362   5.881  1.8509 -0.0251  0.4050
  132OSM   H14C14178   6.117   4.310   6.048  0.1598 -0.6986 -1.7081
  132OSM    C1314179   6.003   4.547   5.853 -0.5656  0.7402  0.0119
  132OSM   H13A14180   6.035   4.486   5.770  0.5659 -1.9053  2.2931
  132OSM   H13B14181   6.078   4.625   5.854  0.1697  0.0537  0.9042
  132OSM   H13C14182   5.909   4.598   5.843  0.3342  2.6902  1.1723
  132OSM    C1214183   5.982   4.557   6.103 -0.5989 -0.1102  0.1613
  132OSM   H12A14184   5.961   4.503   6.194 -0.6169 -0.9953 -0.3695
  132OSM   H12B14185   5.890   4.612   6.088 -1.1764 -0.8877  0.8242
  132OSM    C1114186   6.092   4.655   6.136 -0.1609  0.5198  0.4864
  132OSM   H11A14187   6.051   4.713   6.222 -1.4734  1.3002 -0.6363
  132OSM   H11B14188   6.102   4.721   6.048 -1.9237 -0.2546 -0.3276
  132OSM      P14189   6.270   4.548   6.296  0.1762  0.2557 -0.2707
  132OSM    O1314190   6.296   4.397   6.297  0.9234  0.1306  1.0551
  132OSM    O1414191   6.380   4.641   6.325  0.2595  0.5283  0.1485
  132OSM    O1114192   6.150   4.587   6.398  0.5327 -0.1356  0.2159
  132OSM    O1214193   6.217   4.596   6.161 -0.0118 -0.8561  0.0268
  132OSM    C1S14194   6.135   4.509   6.518  0.1516  0.1685  0.2011
  132OSM    H1S14195   6.234   4.474   6.554  0.4982  1.0916  0.1595
  132OSM    H1T14196   6.080   4.415   6.495  0.0451  0.1994  0.3265
  132OSM     NF14197   6.054   4.496   6.749 -0.2464 -0.1902 -0.7584
  132OSM    HNF14198   5.966   4.454   6.770  0.1924 -0.6590  0.1868
  132OSM    C2S14199   6.056   4.584   6.635 -0.2563 -0.0944  0.8624
  132OSM    H2S14200   6.120   4.668   6.670  3.9271 -2.4825 -0.5674
  132OSM    C3S14201   5.917   4.641   6.600 -0.3633  0.0206  0.2045
  132OSM    H3S14202   5.852   4.555   6.574 -2.2570  1.3975  0.2790
  132OSM     O314203   5.916   4.720   6.479  0.5949  0.4108  0.1715
  132OSM    HO314204   6.004   4.707   6.443  0.2685 -2.2820  0.2958
  132OSM    C4S14205   5.862   4.723   6.713 -0.2920  0.2657  0.1947
  132OSM    H4S14206   5.782   4.665   6.764  0.5665 -1.0642  0.0611
  132OSM    C5S14207   5.867   4.856   6.742  0.1714 -0.6754 -0.1302
  132OSM    H5S14208   5.911   4.920   6.663 -0.0208 -1.2143 -0.6768
  132OSM    C6S14209   5.808   4.931   6.866  0.0782  0.4599  0.0150
  132OSM    H6S14210   5.707   4.963   6.834 -0.0242  0.1114 -0.0114
  132OSM    H6T14211   5.877   5.013   6.896  0.2027  0.5168 -0.4136
  132OSM    C7S14212   5.779   4.836   6.987  0.2167 -0.5951  0.0563
  132OSM    H7S14213   5.702   4.759   6.963 -0.4267 -0.6501  2.1605
  132OSM    H7T14214   5.730   4.908   7.056 -1.8090 -1.1380 -0.7763
  132OSM    C8S14215   5.891   4.765   7.056 -0.4880 -0.4175 -0.0564
  132OSM    H8S14216   5.960   4.845   7.090 -0.8888  0.9175 -2.2099
  132OSM    H8T14217   5.934   4.683   6.994  0.5957  0.3866 -0.3803
  132OSM    C9S14218   5.841   4.705   7.189  0.5005 -0.7960 -0.4034
  132OSM    H9S14219   5.780   4.612   7.181 -0.3339 -0.6342  3.0559
  132OSM    H9T14220   5.767   4.774   7.233 -0.3603 -0.7351 -1.9246
  132OSM   C10S14221   5.947   4.675   7.297 -0.3102 -0.4928 -0.1073
  132OSM   H10S14222   5.979   4.770   7.344 -1.9601 -0.0853  0.2275
  132OSM   H10T14223   6.036   4.632   7.246 -0.9120 -0.5116 -1.1583
  132OSM   C11S14224   5.900   4.586   7.412  0.0062 -0.5203  0.2466
  132OSM   H11S14225   5.989   4.549   7.466 -1.5949 -3.3975  0.9933
  132OSM   H11T14226   5.854   4.494   7.371  1.7276 -1.4395  0.3494
  132OSM   C12S14227   5.821   4.660   7.515 -0.4596  0.2770  0.3096
  132OSM   H12S14228   5.744   4.714   7.455  0.2126  1.7335  0.7445
  132OSM   H12T14229   5.881   4.741   7.561 -1.0418  1.2921 -0.6826
  132OSM   C13S14230   5.752   4.580   7.622 -0.2535 -0.1259  0.0222
  132OSM   H13S14231   5.688   4.505   7.571  0.9418 -0.8060 -0.5175
  132OSM   H13T14232   5.684   4.649   7.677  1.6133 -0.0448  2.3207
  132OSM   C14S14233   5.854   4.529   7.722  0.2842  0.0586  0.1052
  132OSM   H14S14234   5.907   4.618   7.761 -1.4020  0.3640  1.7746
  132OSM   H14T14235   5.930   4.472   7.665  0.7782  1.6652 -0.8662
  132OSM   C15S14236   5.803   4.435   7.836 -0.4375 -0.5121  0.2702
  132OSM   H15S14237   5.800   4.328   7.808  0.4878 -1.1662  2.5351
  132OSM   H15T14238   5.704   4.470   7.872  0.2754  0.3516  1.4493
  132OSM   C16S14239   5.901   4.435   7.954 -0.4753  0.7176 -0.6971
  132OSM   H16S14240   5.917   4.539   7.989  1.1632  0.2463  0.0236
  132OSM   H16T14241   5.998   4.385   7.931  0.0937  2.4156 -2.1207
  132OSM   C17S14242   5.832   4.365   8.078  0.0857  0.6715 -0.2116
  132OSM   H17S14243   5.799   4.263   8.046 -0.5299  0.6370  0.5227
  132OSM   H17T14244   5.740   4.422   8.101 -1.9771 -2.3321 -0.6357
  132OSM   C18S14245   5.907   4.369   8.214  0.4294 -0.4626 -0.2600
  132OSM   H18S14246   6.013   4.342   8.199  0.2205 -3.1662  2.4855
  132OSM   H18T14247   5.855   4.302   8.287 -0.7371  0.5590 -0.1396
  132OSM   H18U14248   5.902   4.475   8.245 -2.7228 -0.1066 -1.7083
  132OSM    C1F14249   6.162   4.460   6.817 -0.1960 -0.9271 -0.5548
  132OSM     OF14250   6.270   4.518   6.792  0.0069 -0.3657 -0.0325
  132OSM    C2F14251   6.141   4.349   6.915 -0.6560 -0.3830 -0.1414
  132OSM    H2F14252   6.194   4.255   6.886 -3.0533 -1.7916 -0.0636
  132OSM    H2G14253   6.034   4.325   6.928 -0.1175 -2.6639  0.3859
  132OSM    C3F14254   6.198   4.409   7.052  0.3186 -0.5944 -0.5798
  132OSM    H3F14255   6.163   4.513   7.071 -1.1696 -1.6464  2.8023
  132OSM    H3G14256   6.309   4.408   7.045  0.5931 -0.0523  2.8472
  132OSM    C4F14257   6.165   4.314   7.174  1.1001  0.1628  0.4940
  132OSM    H4F14258   6.146   4.212   7.134  0.0043  0.1890  0.9282
  132OSM    H4G14259   6.065   4.345   7.211  1.7550  1.7659  0.9730
  132OSM    C5F14260   6.271   4.316   7.290  0.0964 -0.2279  0.2047
  132OSM    H5F14261   6.282   4.416   7.337 -1.1389  0.0566 -0.0909
  132OSM    H5G14262   6.366   4.285   7.241 -1.0918 -2.7828 -0.6106
  132OSM    C6F14263   6.243   4.216   7.403 -1.0680  0.0831  0.7804
  132OSM    H6F14264   6.226   4.120   7.349 -2.5790  1.2535 -0.8842
  132OSM    H6G14265   6.145   4.249   7.442 -0.7007  2.5566 -0.2809
  132OSM    C7F14266   6.357   4.221   7.514  0.1942  0.3245  0.3597
  132OSM    H7F14267   6.384   4.321   7.554 -2.4426  1.9659 -1.7940
  132OSM    H7G14268   6.452   4.174   7.479 -0.1139 -0.1445  0.1300
  132OSM    C8F14269   6.315   4.132   7.634  0.1085 -0.4529 -0.6308
  132OSM    H8F14270   6.273   4.039   7.590  0.3015 -1.0377  0.4355
  132OSM    H8G14271   6.234   4.202   7.666 -1.5639 -2.6617  0.0752
  132OSM    C9F14272   6.419   4.105   7.742 -0.1741 -0.0405 -0.0613
  132OSM    H9F14273   6.475   4.013   7.721  0.0086  0.0893 -0.1515
  132OSM   C10F14274   6.434   4.162   7.859  0.0497 -0.2956  1.0520
  132OSM   H10F14275   6.528   4.143   7.913  1.4882  1.3323 -0.8200
  132OSM   C11F14276   6.335   4.268   7.917 -0.1967  0.4766  1.1225
  132OSM   H11F14277   6.248   4.293   7.854 -1.5180 -0.2665  2.6089
  132OSM   H11G14278   6.387   4.361   7.949 -0.1441  1.2476 -1.1669
  132OSM   C12F14279   6.264   4.221   8.051  0.4952 -0.6106  0.1993
  132OSM   H12F14280   6.200   4.132   8.036 -0.3489 -0.5280  3.0939
  132OSM   H12G14281   6.194   4.297   8.091 -0.8970 -2.3164  1.0153
  132OSM   C13F14282   6.355   4.189   8.167 -0.2587  0.6196  0.0538
  132OSM   H13F14283   6.413   4.284   8.179  0.6428  0.2946 -1.5574
  132OSM   H13G14284   6.431   4.117   8.131 -0.2584  1.1975 -1.1185
  132OSM   C14F14285   6.278   4.150   8.293  0.0721 -0.0783 -0.5717
  132OSM   H14F14286   6.206   4.071   8.263  0.2606  0.5379 -2.7157
  132OSM   H14G14287   6.232   4.245   8.327 -0.8225 -1.1068  1.1862
  132OSM   C15F14288   6.361   4.102   8.416  1.0591 -0.1394  0.3396
  132OSM   H15F14289   6.300   4.102   8.509 -1.8768  0.4652 -1.5168
  132OSM   H15G14290   6.444   4.171   8.441  1.4561 -0.3223 -0.4596
  132OSM   C16F14291   6.427   3.963   8.401  0.1269  0.0676  0.3155
  132OSM   H16F14292   6.495   3.958   8.313 -2.0062  0.2765 -1.3802
  132OSM   H16G14293   6.349   3.888   8.378 -0.2991  1.5285 -3.3804
  132OSM   C17F14294   6.513   3.921   8.522 -0.2588  0.6023 -0.8293
  132OSM   H17F14295   6.439   3.917   8.605 -0.8810 -1.7480 -1.4699
  132OSM   H17G14296   6.602   3.983   8.544  0.5290 -0.3298 -1.3616
  132OSM   C18F14297   6.582   3.790   8.490  0.2510 -0.0233 -0.2380
  132OSM   H18F14298   6.622   3.796   8.386 -1.4566  2.7033 -0.7569
  132OSM   H18G14299   6.521   3.697   8.491  1.3474 -0.7538  2.2354
  132OSM   H18H14300   6.666   3.771   8.560  0.2433 -0.2259 -0.2842
  133SAPE     N14301   0.539   2.055  10.874 -0.3023 -0.1997  0.2578
  133SAPE   HN114302   0.627   2.089  10.919  1.0608 -1.0600 -1.6970
  133SAPE   HN214303   0.458   2.085  10.932 -0.8421 -1.0176 -0.0721
  133SAPE   HN314304   0.545   1.952  10.863  0.7200 -0.0518 -0.7245
  133SAPE   C1214305   0.509   2.098  10.729 -0.7238 -0.0742 -0.9361
  133SAPE  H12A14306   0.516   2.209  10.732 -0.8743 -0.0798 -0.4362
  133SAPE  H12B14307   0.407   2.062  10.703 -1.1626  0.5823 -0.1480
  133SAPE   C1114308   0.619   2.045  10.630 -0.6287  0.0492 -0.1698
  133SAPE  H11A14309   0.610   2.095  10.532 -0.0667 -0.6637 -0.5893
  133SAPE  H11B14310   0.596   1.937  10.618 -1.5437 -0.0737  2.3680
  133SAPE     P14311   0.866   2.088  10.603  0.1472  0.2635  0.1636
  133SAPE   O1314312   0.848   2.232  10.554  0.3416  0.0876  0.2824
  133SAPE   O1414313   0.994   2.053  10.667  0.2975 -0.0515 -0.2289
  133SAPE   O1214314   0.747   2.055  10.696  0.3761 -0.3948 -0.9647
  133SAPE   O1114315   0.840   1.995  10.479  0.4790  0.3476 -0.2199
  133SAPE    C114316   0.859   1.854  10.477 -0.0957  0.5017  0.4964
  133SAPE    HA14317   0.862   1.808  10.578 -2.5143  2.5401  1.5657
  133SAPE    HB14318   0.772   1.800  10.433  0.7260 -1.3133  1.0349
  133SAPE    C214319   0.974   1.822  10.384 -0.3200 -0.1242  0.2491
  133SAPE    HS14320   1.063   1.866  10.433 -0.7207 -1.6934  2.4616
  133SAPE   O2114321   0.947   1.888  10.254 -1.0299  0.0640 -0.0272
  133SAPE   C2114322   1.038   1.972  10.214  0.7478 -0.3016 -0.1170
  133SAPE   O2214323   1.121   2.030  10.281 -0.1252  0.0528  0.3124
  133SAPE   C2214324   1.013   2.010  10.068 -0.7062 -0.3136 -0.1750
  133SAPE   H2R14325   0.992   1.923  10.003  1.7401 -1.0675 -0.0241
  133SAPE   H2S14326   0.934   2.086  10.083 -0.2891  0.4342 -1.6807
  133SAPE    C314327   0.999   1.666  10.371 -0.1372 -0.2658  0.0060
  133SAPE    HX14328   0.910   1.603  10.350 -0.0307 -1.4942  3.0002
  133SAPE    HY14329   1.028   1.638  10.475  1.7898 -1.0088 -0.7119
  133SAPE   O3114330   1.110   1.628  10.290 -0.6888 -0.0414 -0.5911
  133SAPE   C3114331   1.094   1.618  10.161 -0.0162  0.3648  0.2429
  133SAPE   O3214332   0.991   1.623  10.093 -0.6245  0.4897  0.4964
  133SAPE   C3214333   1.236   1.603  10.101  0.2742 -0.7003  0.5338
  133SAPE   H2X14334   1.297   1.517  10.137  1.6010  1.0997  2.6647
  133SAPE   H2Y14335   1.290   1.695  10.130 -0.2958  0.6133 -2.4015
  133SAPE   C2314336   1.134   2.091  10.008  0.1705 -0.7639 -0.1240
  133SAPE   H3R14337   1.209   2.015   9.975 -1.4175 -2.1335 -0.6498
  133SAPE   H3S14338   1.174   2.161  10.084  0.7091  0.4035 -1.4532
  133SAPE   C2414339   1.105   2.193   9.889 -0.5419  0.0861 -0.2937
  133SAPE   H4R14340   1.194   2.257   9.868 -0.4383 -0.6233 -2.0821
  133SAPE   H4S14341   1.039   2.272   9.930  0.4588  2.2923 -2.7735
  133SAPE   C2514342   1.034   2.135   9.767 -0.3586 -0.5047  0.1429
  133SAPE   H5R14343   0.940   2.084   9.789 -0.2210 -0.5667  0.5801
  133SAPE   C2614344   1.059   2.159   9.635 -0.1516 -0.1192  0.4681
  133SAPE   H6R14345   0.999   2.119   9.552  0.7497  2.4456 -1.5303
  133SAPE   C2714346   1.166   2.243   9.569  0.3276 -0.1430  0.3852
  133SAPE   H7R14347   1.234   2.301   9.635  0.0775 -2.0598  2.3672
  133SAPE   H7S14348   1.116   2.324   9.512  1.5672  0.7724  0.5842
  133SAPE   C2814349   1.251   2.157   9.472  0.3719 -0.3179  0.0315
  133SAPE   H8R14350   1.271   2.057   9.514 -0.0013 -0.2279  0.4272
  133SAPE   C2914351   1.288   2.185   9.346  0.3935  0.0927 -0.0950
  133SAPE   H9R14352   1.346   2.108   9.294 -1.9980 -1.0528 -1.1318
  133SAPE  C21014353   1.257   2.309   9.272  0.9563  0.1328  0.6759
  133SAPE  H10R14354   1.351   2.368   9.275  0.6218  0.6867  0.3253
  133SAPE  H10S14355   1.178   2.360   9.331 -0.6994 -0.8731 -0.6406
  133SAPE  C21114356   1.209   2.287   9.131 -0.7476 -0.3710  0.2979
  133SAPE  H11R14357   1.124   2.217   9.126 -1.6761  0.7286  0.4111
  133SAPE  C21214358   1.245   2.348   9.014 -0.5525  0.1666  0.4373
  133SAPE  H12R14359   1.204   2.310   8.919 -1.6423 -1.4011  1.5108
  133SAPE  C21314360   1.353   2.445   9.002 -0.0937  0.1885 -0.6236
  133SAPE  H13R14361   1.398   2.456   9.103 -0.3526  0.2799 -0.5162
  133SAPE  H13S14362   1.314   2.548   8.989  0.4274  0.6316  1.1356
  133SAPE  C21414363   1.466   2.409   8.908 -0.7924  0.1140  0.5371
  133SAPE  H14R14364   1.539   2.343   8.957 -2.0747 -0.9857  0.9918
  133SAPE  C21514365   1.489   2.442   8.789 -0.7638 -0.2112 -0.0298
  133SAPE  H15R14366   1.582   2.414   8.737  0.1653  0.3781  1.2728
  133SAPE  C21614367   1.400   2.527   8.707  0.0176  0.0294  0.4558
  133SAPE  H16R14368   1.424   2.632   8.735  1.6196 -0.4761  1.0294
  133SAPE  H16S14369   1.293   2.504   8.725 -0.0881  0.2729  0.1496
  133SAPE  C21714370   1.417   2.525   8.551 -1.2495 -0.2450  1.3182
  133SAPE  H17R14371   1.340   2.594   8.510  0.3176  1.2106  0.7524
  133SAPE  H17S14372   1.409   2.423   8.507  0.3275  0.5908 -0.9836
  133SAPE  C21814373   1.563   2.571   8.522  0.4164  0.3168  0.0539
  133SAPE  H18R14374   1.623   2.477   8.526 -0.8757 -0.5060  0.1975
  133SAPE  H18S14375   1.598   2.637   8.604  1.7112  0.5196 -0.6462
  133SAPE  C21914376   1.560   2.646   8.390 -0.4396 -0.3664 -0.3352
  133SAPE  H19R14377   1.662   2.681   8.366 -1.0927  1.4447 -0.5257
  133SAPE  H19S14378   1.502   2.740   8.395  1.5267  0.8822 -0.6728
  133SAPE  C22014379   1.512   2.566   8.271  0.7193  0.4089 -0.5543
  133SAPE  H20R14380   1.559   2.625   8.189  2.9482  1.5979  1.5338
  133SAPE  H20S14381   1.403   2.565   8.247 -0.2683  0.6868  3.5095
  133SAPE  H20T14382   1.560   2.466   8.277  1.0080  0.6275  1.0719
  133SAPE   C3314383   1.237   1.628   9.945 -0.4148 -0.5138 -0.0012
  133SAPE   H3X14384   1.345   1.637   9.919  0.7479  2.5874  5.1888
  133SAPE   H3Y14385   1.178   1.720   9.928 -1.3712 -1.2246 -0.6154
  133SAPE   C3414386   1.168   1.503   9.876 -0.3308  0.0814  0.6621
  133SAPE   H4X14387   1.060   1.499   9.900 -0.1748 -2.3591  1.1044
  133SAPE   H4Y14388   1.222   1.410   9.905 -0.4367  0.1812  1.1867
  133SAPE   C3514389   1.178   1.508   9.723  0.9029 -0.3952 -0.7277
  133SAPE   H5X14390   1.130   1.418   9.680  1.4653 -0.8054 -0.4903
  133SAPE   H5Y14391   1.284   1.488   9.695  1.3616  0.9256  0.0121
  133SAPE   C3614392   1.119   1.632   9.653  0.0268  0.1327 -0.0067
  133SAPE   H6X14393   1.189   1.717   9.662 -1.5970  1.5629 -0.5368
  133SAPE   H6Y14394   1.032   1.672   9.710  0.7214  0.8036  0.5718
  133SAPE   C3714395   1.081   1.610   9.506  0.1736 -0.3786 -0.5012
  133SAPE   H7X14396   0.996   1.541   9.491 -0.4362 -0.5376  3.2934
  133SAPE   H7Y14397   1.168   1.559   9.460  3.2258  2.9424  1.3167
  133SAPE   C3814398   1.050   1.755   9.450  0.5828 -0.1448  0.2487
  133SAPE   H8X14399   1.141   1.818   9.462  0.3496  0.1467  0.5010
  133SAPE   H8Y14400   0.973   1.801   9.515 -0.2705 -0.6491 -0.4013
  133SAPE   C3914401   1.024   1.745   9.301 -0.0788  0.2396 -0.0749
  133SAPE   H9X14402   0.919   1.713   9.287 -0.3271  1.4600 -1.1246
  133SAPE   H9Y14403   1.073   1.656   9.256  0.2734  1.2873 -1.7934
  133SAPE  C31014404   1.038   1.874   9.218 -0.4046 -0.0868  0.0655
  133SAPE  H10X14405   1.134   1.912   9.260 -0.9566  0.2651  1.0286
  133SAPE  H10Y14406   0.958   1.936   9.263  0.8688  0.8255  1.1399
  133SAPE  C31114407   1.047   1.859   9.067 -0.4937  0.3732 -0.2709
  133SAPE  H11X14408   1.048   1.964   9.029 -0.4276  0.9166  1.2039
  133SAPE  H11Y14409   0.965   1.797   9.025 -1.0492  0.5031  0.5934
  133SAPE  C31214410   1.184   1.805   9.019  0.1069 -0.2087  0.3337
  133SAPE  H12X14411   1.202   1.714   9.080 -1.8516 -0.2875  0.8318
  133SAPE  H12Y14412   1.263   1.882   9.024 -0.7351  0.5782  1.7092
  133SAPE  C31314413   1.175   1.770   8.870  0.1359  0.3017  0.0391
  133SAPE  H13X14414   1.104   1.687   8.851 -0.7407  0.4017  2.7028
  133SAPE  H13Y14415   1.278   1.732   8.851  0.1076  0.6496 -0.8380
  133SAPE  C31414416   1.141   1.896   8.792  0.4966  0.1719 -0.1140
  133SAPE  H14X14417   1.180   1.992   8.830  0.1687  0.9099 -1.5722
  133SAPE  H14Y14418   1.031   1.913   8.798  0.2499 -0.0915 -2.8647
  133SAPE  C31514419   1.176   1.883   8.646 -0.7450 -0.4601  0.5695
  133SAPE  H15X14420   1.099   1.821   8.596 -0.5265 -1.4743  1.4814
  133SAPE  H15Y14421   1.277   1.839   8.635 -0.5977  0.1046 -0.4390
  133SAPE  C31614422   1.183   2.013   8.559  0.5377 -0.8376 -0.0887
  133SAPE  H16X14423   1.276   2.067   8.589  0.3631  0.2096 -1.3961
  133SAPE  H16Y14424   1.104   2.087   8.584  1.5483 -0.3763  1.8543
  133SAPE  C31714425   1.180   1.984   8.408 -0.6699 -0.0271 -0.1677
  133SAPE  H17X14426   1.098   1.914   8.384 -0.1239 -0.2288 -1.4936
  133SAPE  H17Y14427   1.272   1.926   8.385 -0.7589  0.3125 -1.4268
  133SAPE  C31814428   1.162   2.111   8.329 -0.2630  0.0832  0.4396
  133SAPE  H18X14429   1.264   2.155   8.318 -0.3745  0.6045  1.4778
  133SAPE  H18Y14430   1.105   2.188   8.384  2.3496  1.8204  0.8344
  133SAPE  H18Z14431   1.111   2.099   8.231 -0.3070  2.5135  0.1392
  134SAPE     N14432   3.350   2.422  10.790  0.8380  0.0844 -0.0132
  134SAPE   HN114433   3.306   2.455  10.878  0.5497  1.6910 -0.7291
  134SAPE   HN214434   3.344   2.509  10.734  0.2879  0.4049  0.5398
  134SAPE   HN314435   3.280   2.357  10.748 -1.1786  3.3286 -1.9024
  134SAPE   C1214436   3.496   2.378  10.788  0.5167  0.5644 -0.3094
  134SAPE  H12A14437   3.507   2.268  10.804  0.3528  0.5999  0.0542
  134SAPE  H12B14438   3.549   2.417  10.878 -0.3205 -2.1675  1.4607
  134SAPE   C1114439   3.571   2.413  10.661  0.1981  0.2518  0.0994
  134SAPE  H11A14440   3.504   2.393  10.575  0.4510  1.6065 -0.4295
  134SAPE  H11B14441   3.670   2.363  10.662  0.2395  0.2631 -1.9170
  134SAPE     P14442   3.526   2.664  10.593 -0.1925 -0.0787 -0.4376
  134SAPE   O1314443   3.379   2.651  10.610 -0.5150 -0.0147  0.5541
  134SAPE   O1414444   3.582   2.799  10.639 -0.0810  0.3397 -0.1402
  134SAPE   O1214445   3.595   2.550  10.680  0.7096  0.8991  0.2162
  134SAPE   O1114446   3.563   2.635  10.444  0.0575  0.3673 -0.1055
  134SAPE    C114447   3.694   2.658  10.400 -0.1846 -0.2145  0.0271
  134SAPE    HA14448   3.754   2.725  10.466  0.7412  1.1809 -2.1691
  134SAPE    HB14449   3.743   2.560  10.383 -0.2276 -0.3578  0.7035
  134SAPE    C214450   3.695   2.746  10.272  0.4655  0.1878  0.0836
  134SAPE    HS14451   3.662   2.851  10.288  1.2020  0.7804 -2.0490
  134SAPE   O2114452   3.608   2.686  10.175 -0.0719 -0.1446 -0.2015
  134SAPE   C2114453   3.539   2.769  10.100  0.4772  0.4754  0.6106
  134SAPE   O2214454   3.531   2.890  10.112  0.5674 -0.8668 -0.0142
  134SAPE   C2214455   3.451   2.693  10.005 -0.3203  0.3199  0.1824
  134SAPE   H2R14456   3.504   2.619   9.941 -0.8337 -2.9149  3.3332
  134SAPE   H2S14457   3.386   2.627  10.066 -1.9234  2.9379  1.3951
  134SAPE    C314458   3.842   2.756  10.213  0.7628  0.0111  0.1891
  134SAPE    HX14459   3.872   2.651  10.189  1.5763  0.3015 -0.0788
  134SAPE    HY14460   3.909   2.796  10.291  0.3526  2.2460 -0.5859
  134SAPE   O3114461   3.853   2.818  10.080 -0.0283  0.2537  0.3846
  134SAPE   C3114462   3.854   2.952  10.086 -0.6269 -1.1645 -0.7929
  134SAPE   O3214463   3.879   3.020  10.184  0.2285  0.1915 -0.8606
  134SAPE   C3214464   3.818   3.020   9.950 -0.0689  0.4976  0.7092
  134SAPE   H2X14465   3.746   3.102   9.970  0.6346  0.5954  3.0310
  134SAPE   H2Y14466   3.753   2.946   9.898 -0.3781  1.1989  0.0955
  134SAPE   C2314467   3.369   2.785   9.906  0.4355 -0.2295 -0.1631
  134SAPE   H3R14468   3.320   2.859   9.973  0.1026 -0.4948 -0.1140
  134SAPE   H3S14469   3.286   2.729   9.858  0.6685 -0.2267 -0.5766
  134SAPE   C2414470   3.457   2.864   9.807 -0.2991 -0.3840  0.4678
  134SAPE   H4R14471   3.490   2.953   9.865 -2.3692  1.3746 -0.9543
  134SAPE   H4S14472   3.388   2.914   9.736  0.0017 -0.6713 -0.0296
  134SAPE   C2514473   3.564   2.791   9.732 -0.4652  0.7201  0.2639
  134SAPE   H5R14474   3.649   2.753   9.790  0.7987 -0.3362 -2.2038
  134SAPE   C2614475   3.575   2.756   9.598 -0.2243 -0.1887  0.1557
  134SAPE   H6R14476   3.675   2.714   9.578 -0.0868 -1.5165  3.3015
  134SAPE   C2714477   3.486   2.779   9.480  0.0257  0.5880 -0.2878
  134SAPE   H7R14478   3.472   2.889   9.472  0.9690  0.8199  1.0250
  134SAPE   H7S14479   3.383   2.737   9.490  0.8690 -1.6324 -0.7996
  134SAPE   C2814480   3.548   2.723   9.352 -0.8858 -0.2462  0.8791
  134SAPE   H8R14481   3.622   2.642   9.365  1.2090  1.3381 -0.7494
  134SAPE   C2914482   3.513   2.754   9.227  0.1186 -0.1145 -0.0338
  134SAPE   H9R14483   3.569   2.706   9.145 -2.6385 -2.1554 -0.7748
  134SAPE  C21014484   3.415   2.860   9.181 -0.4480  1.1541  0.7181
  134SAPE  H10R14485   3.391   2.930   9.264  0.9470  0.3965  1.7696
  134SAPE  H10S14486   3.317   2.812   9.159 -0.7302  2.7943 -1.8850
  134SAPE  C21114487   3.463   2.932   9.057  0.0235  0.1764  0.2365
  134SAPE  H11R14488   3.462   2.865   8.970  0.5730 -0.3611  0.6383
  134SAPE  C21214489   3.492   3.062   9.045  0.0710  0.8557 -0.3770
  134SAPE  H12R14490   3.530   3.101   8.949  0.2447  1.4080 -0.0888
  134SAPE  C21314491   3.495   3.160   9.158 -0.3335  0.3315  0.1914
  134SAPE  H13R14492   3.525   3.112   9.253 -2.3059  0.2812  0.8134
  134SAPE  H13S14493   3.388   3.183   9.179 -0.7858  0.6643 -2.3402
  134SAPE  C21414494   3.585   3.280   9.142 -0.0529 -0.0877 -0.0490
  134SAPE  H14R14495   3.562   3.351   9.061 -1.9021  1.2784  1.5930
  134SAPE  C21514496   3.691   3.321   9.221 -0.1326  0.7416  0.0196
  134SAPE  H15R14497   3.744   3.411   9.186  1.4507  0.3637  1.4417
  134SAPE  C21614498   3.750   3.258   9.341 -0.7367 -0.1871  0.4086
  134SAPE  H16R14499   3.860   3.269   9.326 -1.0878  2.0268 -0.7609
  134SAPE  H16S14500   3.728   3.150   9.353  0.4840 -0.5355 -0.3878
  134SAPE  C21714501   3.702   3.320   9.471  0.0990 -0.2128 -1.1168
  134SAPE  H17R14502   3.719   3.429   9.464 -0.7469  0.1174  1.5445
  134SAPE  H17S14503   3.763   3.282   9.556 -2.5171 -1.5387  0.2376
  134SAPE  C21814504   3.561   3.288   9.509  0.5374 -0.2758  0.4057
  134SAPE  H18R14505   3.543   3.179   9.499 -3.6975  0.4799 -1.2122
  134SAPE  H18S14506   3.477   3.335   9.455  1.3288  1.4640  0.6642
  134SAPE  C21914507   3.534   3.316   9.658  0.5063 -0.4356 -0.0211
  134SAPE  H19R14508   3.428   3.317   9.689  0.6605 -0.2424  0.5192
  134SAPE  H19S14509   3.575   3.415   9.686  0.1620 -1.2345  3.5450
  134SAPE  C22014510   3.596   3.212   9.755  0.1000  0.8018  0.4661
  134SAPE  H20R14511   3.522   3.132   9.771  0.0226  0.7788 -0.0294
  134SAPE  H20S14512   3.619   3.259   9.854  0.2988  3.4389 -0.7923
  134SAPE  H20T14513   3.690   3.174   9.708  0.3797  2.2725 -0.1986
  134SAPE   C3314514   3.951   3.050   9.873 -0.0802  0.8026  0.2207
  134SAPE   H3X14515   4.016   2.961   9.889 -2.2317 -0.6543  1.0906
  134SAPE   H3Y14516   4.001   3.139   9.917 -0.6608  0.8865  0.7259
  134SAPE   C3414517   3.953   3.067   9.720  0.1088  0.4438  0.2204
  134SAPE   H4X14518   4.061   3.086   9.706  0.4482 -1.1998  0.5046
  134SAPE   H4Y14519   3.897   3.158   9.690  1.8317  1.9853  1.6230
  134SAPE   C3514520   3.911   2.946   9.634 -0.0579  0.4543 -0.9493
  134SAPE   H5X14521   3.800   2.941   9.641  0.0415  0.5128  1.1023
  134SAPE   H5Y14522   3.946   2.855   9.687 -1.2587  1.1575  1.1091
  134SAPE   C3614523   3.972   2.954   9.493  0.2059  0.5219  0.2420
  134SAPE   H6X14524   4.075   2.910   9.492 -0.2388 -0.5358 -1.8686
  134SAPE   H6Y14525   3.971   3.062   9.468 -1.7196  0.5540  0.4119
  134SAPE   C3714526   3.889   2.890   9.378 -0.1447  0.1696  0.0446
  134SAPE   H7X14527   3.785   2.929   9.388  0.1842  0.6789  1.4756
  134SAPE   H7Y14528   3.884   2.781   9.399  1.1422 -0.0069 -0.5033
  134SAPE   C3814529   3.948   2.900   9.236 -0.2033 -0.3848  0.1976
  134SAPE   H8X14530   4.052   2.861   9.232  0.2879  1.0006 -1.1436
  134SAPE   H8Y14531   3.959   3.009   9.216 -1.5614 -0.1610  0.6467
  134SAPE   C3914532   3.880   2.824   9.121 -0.2566 -0.2137  0.2333
  134SAPE   H9X14533   3.842   2.899   9.048  1.9802  0.5558 -0.1912
  134SAPE   H9Y14534   3.794   2.773   9.167 -1.7779  2.1428  0.0735
  134SAPE  C31014535   3.962   2.720   9.045 -0.0304  0.4930  0.0166
  134SAPE  H10X14536   3.901   2.661   8.972 -0.2094 -0.9257  1.2814
  134SAPE  H10Y14537   3.994   2.643   9.119  0.7038 -0.0339 -0.8304
  134SAPE  C31114538   4.086   2.763   8.968  0.2700  0.5242  0.7646
  134SAPE  H11X14539   4.124   2.668   8.925 -1.8111  0.6875 -1.5529
  134SAPE  H11Y14540   4.167   2.795   9.037 -0.2004 -0.7385  1.9396
  134SAPE  C31214541   4.067   2.867   8.858  0.5122 -0.1406  0.4795
  134SAPE  H12X14542   4.162   2.901   8.811 -1.1227  1.0166 -2.0610
  134SAPE  H12Y14543   4.011   2.951   8.904  0.2745  0.0153 -0.0945
  134SAPE  C31314544   3.985   2.818   8.738  0.5041  0.5410 -0.0776
  134SAPE  H13X14545   3.925   2.899   8.691 -1.1761 -0.3355  0.4853
  134SAPE  H13Y14546   3.910   2.748   8.782 -1.9640  2.4086 -1.1712
  134SAPE  C31414547   4.074   2.757   8.628 -0.3222  0.4460 -0.9012
  134SAPE  H14X14548   4.130   2.679   8.683  0.4751  2.0495  0.5813
  134SAPE  H14Y14549   4.134   2.843   8.591  0.8302 -0.0359 -0.1743
  134SAPE  C31514550   3.991   2.683   8.527  0.4088  0.5378 -0.2507
  134SAPE  H15X14551   4.047   2.669   8.433  0.8437 -0.5868  0.1702
  134SAPE  H15Y14552   3.896   2.740   8.511 -0.2920 -0.5813 -0.1422
  134SAPE  C31614553   3.947   2.542   8.570 -0.2603  0.1683 -0.6789
  134SAPE  H16X14554   3.915   2.543   8.676  0.6330  2.2710 -0.3975
  134SAPE  H16Y14555   4.040   2.482   8.576 -1.0466 -1.4188 -3.3439
  134SAPE  C31714556   3.833   2.467   8.481 -0.2713 -0.0164 -0.0438
  134SAPE  H17X14557   3.744   2.532   8.469 -1.2041 -1.5547 -1.7462
  134SAPE  H17Y14558   3.814   2.379   8.545  1.5542  0.6855  1.5330
  134SAPE  C31814559   3.878   2.424   8.347  1.1037  0.1302 -0.5039
  134SAPE  H18X14560   3.868   2.507   8.274 -1.3609 -1.2655 -1.8085
  134SAPE  H18Y14561   3.822   2.334   8.312  0.5752 -0.5787  2.0480
  134SAPE  H18Z14562   3.985   2.394   8.359  0.4974 -1.7460  0.3844
  135SAPE     N14563   4.058   1.950  10.750 -0.5200 -0.1062  0.7271
  135SAPE   HN114564   4.036   2.052  10.747 -1.5838 -0.3623 -0.7884
  135SAPE   HN214565   4.154   1.936  10.786 -0.5249  1.6119  1.4776
  135SAPE   HN314566   4.069   1.913  10.653 -0.4151 -0.1223  0.7456
  135SAPE   C1214567   3.959   1.854  10.812  0.0373  0.0287  0.0251
  135SAPE  H12A14568   3.858   1.860  10.764  0.2735  0.0157 -0.4775
  135SAPE  H12B14569   3.940   1.885  10.917  1.9127  1.1806  0.0389
  135SAPE   C1114570   4.021   1.713  10.802  0.0980 -0.0416  0.9049
  135SAPE  H11A14571   3.955   1.649  10.865  0.9184 -1.6020  0.2060
  135SAPE  H11B14572   4.115   1.709  10.861 -0.8676  1.4932  2.5895
  135SAPE     P14573   4.075   1.534  10.635  0.0240 -0.2178 -0.4264
  135SAPE   O1314574   4.221   1.549  10.634  0.2950  0.1226  0.0406
  135SAPE   O1414575   4.021   1.434  10.728 -0.5640  0.2793  0.0545
  135SAPE   O1214576   4.014   1.670  10.673 -0.6294 -0.9476 -0.0813
  135SAPE   O1114577   4.023   1.496  10.492  0.2894  0.2635  0.2311
  135SAPE    C114578   3.908   1.573  10.446 -0.2408  0.4617 -0.8250
  135SAPE    HA14579   3.924   1.683  10.459 -0.0623  0.4191 -0.6855
  135SAPE    HB14580   3.900   1.567  10.336 -1.0152  1.3430 -0.8310
  135SAPE    C214581   3.780   1.532  10.520  0.8007  0.7124  0.2533
  135SAPE    HS14582   3.773   1.566  10.625 -1.7257  0.9179  0.0452
  135SAPE   O2114583   3.767   1.390  10.512 -0.0752 -0.1009 -0.0282
  135SAPE   C2114584   3.695   1.333  10.605 -0.1456  0.0167  0.3012
  135SAPE   O2214585   3.657   1.390  10.709  0.0203  0.2153 -0.2936
  135SAPE   C2214586   3.679   1.187  10.570  0.3612  0.6361  0.0376
  135SAPE   H2R14587   3.633   1.182  10.469  0.6504  0.0001 -0.0630
  135SAPE   H2S14588   3.781   1.143  10.563 -0.2064 -1.2367  2.7946
  135SAPE    C314589   3.652   1.606  10.458 -0.5531  0.5072  0.4868
  135SAPE    HX14590   3.670   1.714  10.481 -0.2929  0.1411  2.0385
  135SAPE    HY14591   3.555   1.586  10.508 -0.9805  1.0093 -0.1223
  135SAPE   O3114592   3.637   1.594  10.311  0.0097 -0.6437 -0.3699
  135SAPE   C3114593   3.571   1.491  10.276 -0.0355 -0.8296 -0.2923
  135SAPE   O3214594   3.519   1.405  10.343  0.4586  0.4176  0.0698
  135SAPE   C3214595   3.583   1.488  10.122 -0.1831  0.1271 -0.0786
  135SAPE   H2X14596   3.536   1.582  10.085 -1.6816 -0.6879 -0.3010
  135SAPE   H2Y14597   3.517   1.407  10.085 -0.5284 -0.0701  0.9385
  135SAPE   C2314598   3.590   1.112  10.671 -0.7899 -0.5909 -0.4351
  135SAPE   H3R14599   3.505   1.175  10.706  0.1181  0.6488 -0.4623
  135SAPE   H3S14600   3.646   1.090  10.764 -0.9658  1.0253  0.0701
  135SAPE   C2414601   3.535   0.976  10.628 -0.2843 -0.3778 -0.1904
  135SAPE   H4R14602   3.486   0.983  10.528 -2.5799 -2.4271  0.7542
  135SAPE   H4S14603   3.464   0.948  10.708  1.3754 -1.7415  0.8181
  135SAPE   C2514604   3.647   0.879  10.620  0.6119 -0.0127 -0.4924
  135SAPE   H5R14605   3.693   0.835  10.710 -0.7476  0.9494  0.6843
  135SAPE   C2614606   3.698   0.827  10.506 -0.3237 -0.5705  0.2440
  135SAPE   H6R14607   3.773   0.747  10.511  0.0469 -0.1040  2.5309
  135SAPE   C2714608   3.659   0.856  10.362 -0.7900  0.4255 -0.0869
  135SAPE   H7R14609   3.551   0.881  10.359 -1.0741 -0.6235  0.9808
  135SAPE   H7S14610   3.672   0.764  10.300  2.7696  1.4253 -0.9695
  135SAPE   C2814611   3.730   0.968  10.290 -0.1324 -0.1010  0.1828
  135SAPE   H8R14612   3.815   1.006  10.350  0.3708  2.2794 -1.9703
  135SAPE   C2914613   3.689   1.035  10.180  0.1288 -0.2804 -0.7942
  135SAPE   H9R14614   3.752   1.120  10.147  0.7364 -1.2122 -2.0681
  135SAPE  C21014615   3.561   1.000  10.096 -0.7805 -0.3650  1.3440
  135SAPE  H10R14616   3.500   0.930  10.156  0.0834 -1.8307  0.5176
  135SAPE  H10S14617   3.588   0.945  10.004  2.6204  2.4168  0.5674
  135SAPE  C21114618   3.480   1.118  10.052 -0.2964  0.4526  0.1695
  135SAPE  H11R14619   3.412   1.163  10.126  1.2229  1.5466  0.9347
  135SAPE  C21214620   3.480   1.167   9.928 -0.0445  0.0489 -0.7157
  135SAPE  H12R14621   3.433   1.267   9.924 -0.1874 -0.0479 -1.6296
  135SAPE  C21314622   3.562   1.113   9.810  0.4331 -0.0521 -0.0645
  135SAPE  H13R14623   3.550   1.183   9.725 -0.6061  0.8214  0.7868
  135SAPE  H13S14624   3.517   1.019   9.772 -0.9123  1.5199 -2.4559
  135SAPE  C21414625   3.712   1.093   9.831 -0.2548  0.4068  0.3647
  135SAPE  H14R14626   3.756   1.164   9.903  0.5729 -2.6837  3.0306
  135SAPE  C21514627   3.787   0.999   9.772  0.3294  0.2641  0.2732
  135SAPE  H15R14628   3.890   0.987   9.811  1.0408  0.4444 -1.4995
  135SAPE  C21614629   3.749   0.891   9.673  0.6965 -0.5211  0.0446
  135SAPE  H16R14630   3.639   0.881   9.681  0.6187  0.9284  1.1183
  135SAPE  H16S14631   3.797   0.797   9.709 -1.3256 -1.2259  0.9653
  135SAPE  C21714632   3.787   0.918   9.525  0.3818 -0.4452 -0.5553
  135SAPE  H17R14633   3.745   1.018   9.505  0.5317  0.0650  1.6001
  135SAPE  H17S14634   3.737   0.844   9.458  0.5861 -0.6055 -0.5305
  135SAPE  C21814635   3.942   0.910   9.500 -0.3122  0.6442  0.5077
  135SAPE  H18R14636   3.974   0.813   9.545 -1.6394  0.3024  0.7531
  135SAPE  H18S14637   3.987   0.997   9.551  0.5899 -1.1057  2.8024
  135SAPE  C21914638   3.967   0.911   9.347 -0.3679  0.6786 -0.8284
  135SAPE  H19R14639   3.933   1.011   9.311  2.1968  1.0617 -2.2875
  135SAPE  H19S14640   3.918   0.818   9.311  0.9985  0.1641 -1.4050
  135SAPE  C22014641   4.117   0.919   9.313  0.1917  0.3731  0.5608
  135SAPE  H20R14642   4.162   1.004   9.367 -0.5468 -0.5505  2.6724
  135SAPE  H20S14643   4.132   0.937   9.204 -2.1747  0.8568  0.2903
  135SAPE  H20T14644   4.180   0.834   9.347  2.0505  1.9318  1.0989
  135SAPE   C3314645   3.725   1.459  10.063 -0.4738 -0.6883  0.2105
  135SAPE   H3X14646   3.753   1.356  10.096  2.9552  0.3380  0.6099
  135SAPE   H3Y14647   3.802   1.523  10.110 -0.9711 -0.1593  0.3125
  135SAPE   C3414648   3.728   1.474   9.909 -0.2021  0.1212  0.0891
  135SAPE   H4X14649   3.713   1.583   9.890  1.7564  0.6205  1.1460
  135SAPE   H4Y14650   3.637   1.433   9.861 -0.8922  0.2049  1.2822
  135SAPE   C3514651   3.858   1.427   9.839  0.2986 -0.7824  0.6026
  135SAPE   H5X14652   3.844   1.320   9.810  2.7412 -1.5145  1.9340
  135SAPE   H5Y14653   3.943   1.432   9.911 -0.2664  6.1342  1.0672
  135SAPE   C3614654   3.880   1.506   9.701 -0.6578  0.1597  0.1365
  135SAPE   H6X14655   3.901   1.610   9.731  1.6495  0.1143 -1.2548
  135SAPE   H6Y14656   3.780   1.499   9.653 -0.4261 -1.8220 -0.0887
  135SAPE   C3714657   3.999   1.467   9.615  0.1590  0.4392  0.5722
  135SAPE   H7X14658   4.097   1.472   9.665  1.2366 -0.7200 -1.3613
  135SAPE   H7Y14659   3.998   1.536   9.528 -0.5905  1.7123  1.5703
  135SAPE   C3814660   3.984   1.321   9.563 -0.3787 -0.2538  0.7683
  135SAPE   H8X14661   3.890   1.310   9.504 -0.3731 -0.3986  0.7863
  135SAPE   H8Y14662   3.988   1.250   9.649  2.5056  0.0052  0.8927
  135SAPE   C3914663   4.101   1.291   9.477  0.1093 -0.6176 -0.3661
  135SAPE   H9X14664   4.129   1.185   9.496 -3.9540 -1.5950  0.5042
  135SAPE   H9Y14665   4.194   1.344   9.509  0.2223 -0.2348 -1.2961
  135SAPE  C31014666   4.086   1.313   9.331  0.2115  0.2813 -0.7305
  135SAPE  H10X14667   4.038   1.410   9.305 -0.1812 -0.1021 -1.4618
  135SAPE  H10Y14668   4.023   1.230   9.293  0.6086  0.1125 -1.0232
  135SAPE  C31114669   4.215   1.304   9.251 -0.8751 -0.0755 -0.1332
  135SAPE  H11X14670   4.270   1.215   9.289  1.0459  0.0205 -2.5305
  135SAPE  H11Y14671   4.268   1.397   9.282 -1.3901 -0.0677  0.7280
  135SAPE  C31214672   4.183   1.297   9.106  0.3468  0.0432 -0.2453
  135SAPE  H12X14673   4.133   1.395   9.090  0.1252 -0.0548 -0.1556
  135SAPE  H12Y14674   4.109   1.217   9.087  0.0937  0.6791 -2.0960
  135SAPE  C31314675   4.307   1.290   9.024 -0.2750 -0.2114  0.7187
  135SAPE  H13X14676   4.327   1.181   9.033 -0.8922 -0.4017 -0.1716
  135SAPE  H13Y14677   4.385   1.350   9.074 -0.0328 -1.0577  1.3797
  135SAPE  C31414678   4.302   1.339   8.877 -0.0816 -0.3191 -0.2879
  135SAPE  H14X14679   4.397   1.307   8.828  0.4914  0.2581  0.4253
  135SAPE  H14Y14680   4.299   1.450   8.883  1.3109 -0.3503  1.3930
  135SAPE  C31514681   4.191   1.279   8.789  0.8151 -0.1782  0.1154
  135SAPE  H15X14682   4.097   1.307   8.841 -0.2050  2.2223 -2.9174
  135SAPE  H15Y14683   4.185   1.168   8.791 -3.6652 -0.0496 -1.3774
  135SAPE  C31614684   4.170   1.349   8.654  0.3955  0.0961  0.2007
  135SAPE  H16X14685   4.248   1.317   8.582  0.5622 -2.4416  1.4336
  135SAPE  H16Y14686   4.173   1.459   8.670 -1.3501  0.1145  0.4773
  135SAPE  C31714687   4.038   1.293   8.593  0.1157 -0.5735 -0.0244
  135SAPE  H17X14688   4.036   1.357   8.503  2.2845  0.5525  0.6996
  135SAPE  H17Y14689   3.947   1.311   8.654 -0.8409  0.1351 -1.6386
  135SAPE  C31814690   4.029   1.145   8.560 -0.1613 -0.4249 -0.0275
  135SAPE  H18X14691   4.113   1.118   8.493  0.2168  1.0611 -0.1689
  135SAPE  H18Y14692   3.931   1.129   8.510 -0.5345 -4.5667  1.8600
  135SAPE  H18Z14693   4.050   1.079   8.647  0.7005 -1.7280 -1.2001
  136SAPE     N14694   6.208   1.066  10.710  0.9502 -0.3464 -0.3706
  136SAPE   HN114695   6.156   1.034  10.626  1.0034  0.4008 -0.7002
  136SAPE   HN214696   6.158   1.032  10.794  0.0179  1.9167  0.0309
  136SAPE   HN314697   6.219   1.169  10.702 -1.4335 -0.0343  0.0520
  136SAPE   C1214698   6.338   1.000  10.687  0.5751  0.3384 -0.3073
  136SAPE  H12A14699   6.397   1.022  10.778 -0.3158  1.3531  0.0335
  136SAPE  H12B14700   6.393   1.045  10.601  3.0559 -2.8055 -0.4223
  136SAPE   C1114701   6.329   0.846  10.654 -0.1472 -0.1595 -0.0590
  136SAPE  H11A14702   6.426   0.799  10.626  0.2085 -0.0361  0.9453
  136SAPE  H11B14703   6.248   0.833  10.580 -2.0625 -0.7977  2.0973
  136SAPE     P14704   6.349   0.659  10.839 -0.1624  0.1513 -0.2852
  136SAPE   O1314705   6.490   0.691  10.873  0.1519 -0.5853  0.1196
  136SAPE   O1414706   6.254   0.611  10.944  0.2849  0.5757 -0.5608
  136SAPE   O1214707   6.278   0.783  10.765 -0.3341  0.0111  0.1882
  136SAPE   O1114708   6.354   0.554  10.717 -0.5334 -0.1421  0.2066
  136SAPE    C114709   6.240   0.533  10.638  0.2701  0.1870  0.3094
  136SAPE    HA14710   6.172   0.450  10.666 -0.3061  1.3373  2.3867
  136SAPE    HB14711   6.167   0.615  10.621 -0.1702 -0.1019  0.8053
  136SAPE    C214712   6.288   0.500  10.492  0.6509  0.4123  0.1270
  136SAPE    HS14713   6.370   0.426  10.505 -0.1087 -0.8513 -2.1424
  136SAPE   O2114714   6.345   0.618  10.432  0.1730  0.1747 -0.2210
  136SAPE   C2114715   6.454   0.605  10.355  0.2601 -0.0077 -0.1568
  136SAPE   O2214716   6.517   0.503  10.335 -0.2915 -0.5860 -0.2136
  136SAPE   C2214717   6.486   0.745  10.297  0.1353 -0.0383 -0.1679
  136SAPE   H2R14718   6.501   0.734  10.187  4.4631 -0.7280  0.4280
  136SAPE   H2S14719   6.410   0.821  10.324  0.5779  0.3343  0.0305
  136SAPE    C314720   6.172   0.437  10.405 -0.2397  0.5442 -0.7288
  136SAPE    HX14721   6.107   0.522  10.378  0.3774  0.5422 -2.2536
  136SAPE    HY14722   6.114   0.367  10.469  0.9979 -0.1315 -0.3159
  136SAPE   O3114723   6.222   0.375  10.278  0.4326  0.2391 -0.1589
  136SAPE   C3114724   6.273   0.249  10.287 -0.8571 -0.4515 -0.9648
  136SAPE   O3214725   6.278   0.185  10.391 -0.6884  0.7377  0.1103
  136SAPE   C3214726   6.322   0.216  10.146 -0.6347 -0.3942 -0.4533
  136SAPE   H2X14727   6.413   0.278  10.131 -0.2209 -0.7280  0.6319
  136SAPE   H2Y14728   6.253   0.253  10.067  0.5515  0.0945 -1.2755
  136SAPE   C2314729   6.631   0.791  10.342  0.2256  0.0844 -0.0647
  136SAPE   H3R14730   6.694   0.711  10.298 -0.3889  0.1776 -1.1370
  136SAPE   H3S14731   6.645   0.787  10.452 -0.9731 -1.1099  0.0573
  136SAPE   C2414732   6.679   0.928  10.287 -0.3437 -0.2858  0.0042
  136SAPE   H4R14733   6.660   0.913  10.179 -1.2278 -1.7328  0.3458
  136SAPE   H4S14734   6.786   0.939  10.314  0.0696 -0.8452 -1.3859
  136SAPE   C2514735   6.609   1.046  10.351 -0.3469 -0.8834 -0.0398
  136SAPE   H5R14736   6.643   1.071  10.453  1.5297 -2.9997 -0.0913
  136SAPE   C2614737   6.525   1.131  10.289 -0.8041  0.0830  0.4776
  136SAPE   H6R14738   6.495   1.220  10.346 -0.6917  1.0562 -0.9792
  136SAPE   C2714739   6.468   1.113  10.152  0.8710  0.2683 -0.2469
  136SAPE   H7R14740   6.491   1.012  10.112 -3.9220 -1.1274  0.1834
  136SAPE   H7S14741   6.509   1.188  10.081  0.9790  0.0977 -0.3658
  136SAPE   C2814742   6.315   1.128  10.142 -0.4161 -0.6877 -0.4138
  136SAPE   H8R14743   6.269   1.148  10.240  0.4784  2.5834 -0.6192
  136SAPE   C2914744   6.243   1.114  10.028 -0.7188 -0.2584 -0.1728
  136SAPE   H9R14745   6.133   1.116  10.032 -0.7051  1.2701 -0.1933
  136SAPE  C21014746   6.294   1.080   9.887 -0.0233  0.2309  0.2950
  136SAPE  H10R14747   6.257   0.980   9.853 -0.4569  0.8545 -1.1019
  136SAPE  H10S14748   6.404   1.065   9.896 -0.0130 -1.6167 -2.1191
  136SAPE  C21114749   6.258   1.189   9.790 -0.0386 -0.4801 -0.2305
  136SAPE  H11R14750   6.252   1.290   9.834 -1.7545 -1.3182  1.5466
  136SAPE  C21214751   6.222   1.178   9.655  0.1332  0.2790 -0.3167
  136SAPE  H12R14752   6.177   1.265   9.606  0.4611  0.6674  0.0708
  136SAPE  C21314753   6.212   1.045   9.576 -0.2909 -0.0351  0.2065
  136SAPE  H13R14754   6.161   1.068   9.480  1.7480 -1.9837 -1.4201
  136SAPE  H13S14755   6.154   0.972   9.636  0.1267 -1.9203 -1.5901
  136SAPE  C21414756   6.351   0.994   9.532  0.0324  0.1199  0.4842
  136SAPE  H14R14757   6.432   1.046   9.585  1.1421  0.6079 -1.6289
  136SAPE  C21514758   6.380   0.898   9.445 -0.0681 -0.0657  1.2198
  136SAPE  H15R14759   6.481   0.877   9.409 -0.5264 -0.1250 -0.0535
  136SAPE  C21614760   6.276   0.826   9.367  0.5019  1.6714  0.3699
  136SAPE  H16R14761   6.190   0.804   9.433 -0.7398  2.1095 -1.0576
  136SAPE  H16S14762   6.304   0.721   9.346  1.6807  1.5062  2.6740
  136SAPE  C21714763   6.231   0.897   9.242 -0.3603  0.1040 -0.5615
  136SAPE  H17R14764   6.310   0.944   9.178 -0.8945  0.0170 -1.2923
  136SAPE  H17S14765   6.170   0.981   9.281  0.5849 -0.6472  2.6596
  136SAPE  C21814766   6.126   0.822   9.158  0.1506  0.6953 -0.1133
  136SAPE  H18R14767   6.041   0.806   9.228 -0.8666  3.3163 -0.6789
  136SAPE  H18S14768   6.181   0.728   9.135  2.2088  1.8798 -0.1874
  136SAPE  C21914769   6.084   0.887   9.030  0.0897  0.0048 -0.0221
  136SAPE  H19R14770   6.167   0.908   8.959 -1.0778 -0.8818 -1.6843
  136SAPE  H19S14771   6.054   0.990   9.059 -2.8504 -0.2486 -1.9880
  136SAPE  C22014772   5.961   0.824   8.966  0.6207 -0.1200  0.6643
  136SAPE  H20R14773   5.881   0.795   9.037  0.4878 -1.5619 -0.0594
  136SAPE  H20S14774   5.987   0.727   8.918  0.4594  0.7417 -1.2066
  136SAPE  H20T14775   5.905   0.890   8.897  2.4222  1.5127  0.7186
  136SAPE   C3314776   6.364   0.074  10.129  0.5502 -0.2146 -0.4475
  136SAPE   H3X14777   6.284   0.009  10.169  0.3978  0.8050  0.9328
  136SAPE   H3Y14778   6.461   0.048  10.177  0.3561 -2.0857 -1.0496
  136SAPE   C3414779   6.367   0.042   9.986 -0.4123  0.8917  0.1400
  136SAPE   H4X14780   6.446  -0.034   9.970 -0.7100  0.8142 -1.0092
  136SAPE   H4Y14781   6.383   0.121   9.909 -2.3559 -0.3581 -1.5875
  136SAPE   C3514782   6.230  -0.015   9.939  0.4167  0.1403  0.1038
  136SAPE   H5X14783   6.152   0.056   9.974 -0.8265 -1.2352  0.1632
  136SAPE   H5Y14784   6.212  -0.113   9.989  1.3205  0.6210  1.4064
  136SAPE   C3614785   6.225  -0.037   9.784 -0.2690 -0.6238  0.3567
  136SAPE   H6X14786   6.131  -0.093   9.767 -0.2683 -0.5518  0.1182
  136SAPE   H6Y14787   6.308  -0.100   9.746 -1.4271 -1.5039 -0.7501
  136SAPE   C3714788   6.219   0.099   9.716 -0.7104  0.1452  0.0664
  136SAPE   H7X14789   6.325   0.135   9.715 -0.7789  0.3460  0.0406
  136SAPE   H7Y14790   6.167   0.179   9.772 -0.8212 -0.3978  0.7368
  136SAPE   C3814791   6.158   0.094   9.571  0.2543  0.3415  0.1492
  136SAPE   H8X14792   6.144   0.200   9.538  0.3421  0.6427  1.0680
  136SAPE   H8Y14793   6.053   0.062   9.588  0.1258  1.4168  1.5468
  136SAPE   C3914794   6.237   0.018   9.467  0.3854  1.1217 -0.3688
  136SAPE   H9X14795   6.218  -0.090   9.486 -0.2893  1.2782 -0.1251
  136SAPE   H9Y14796   6.341   0.047   9.488  1.8136 -3.3791 -0.6469
  136SAPE  C31014797   6.196   0.037   9.323 -0.3576 -0.6715 -0.3768
  136SAPE  H10X14798   6.096   0.001   9.293  0.6022 -2.5083 -1.4749
  136SAPE  H10Y14799   6.260  -0.018   9.250 -1.3760 -1.9175 -0.3293
  136SAPE  C31114800   6.220   0.184   9.289 -0.2138  0.3724 -0.0025
  136SAPE  H11X14801   6.330   0.186   9.280 -0.1468  1.5867  0.9766
  136SAPE  H11Y14802   6.196   0.267   9.358 -0.4884  0.7834 -0.5873
  136SAPE  C31214803   6.156   0.228   9.157 -0.4466  0.5240 -0.3167
  136SAPE  H12X14804   6.052   0.267   9.169  0.1659  2.1476 -0.2044
  136SAPE  H12Y14805   6.138   0.139   9.094  2.0178 -2.0020  2.4013
  136SAPE  C31314806   6.238   0.331   9.069  0.1719  0.1670 -0.0602
  136SAPE  H13X14807   6.339   0.289   9.051  0.2252 -0.4586  1.6153
  136SAPE  H13Y14808   6.240   0.430   9.120 -0.9259  0.7146 -1.0446
  136SAPE  C31414809   6.172   0.358   8.938 -0.5295  0.6354  0.1532
  136SAPE  H14X14810   6.070   0.394   8.964  0.2904  2.2192  1.2682
  136SAPE  H14Y14811   6.177   0.259   8.888  1.4796  0.9630 -0.3178
  136SAPE  C31514812   6.230   0.468   8.850  0.3536  0.8637  0.0927
  136SAPE  H15X14813   6.208   0.562   8.905 -1.6573  0.5840 -0.2092
  136SAPE  H15Y14814   6.174   0.484   8.755 -0.0717  4.0522  0.8285
  136SAPE  C31614815   6.376   0.454   8.807  0.4061 -0.0420 -0.4556
  136SAPE  H16X14816   6.434   0.406   8.888 -0.0109 -1.9401 -1.2552
  136SAPE  H16Y14817   6.413   0.555   8.781  2.3398 -0.7190 -0.4020
  136SAPE  C31714818   6.389   0.364   8.681  0.1430  0.4160  0.2630
  136SAPE  H17X14819   6.326   0.398   8.596 -0.2250  2.2337  1.2312
  136SAPE  H17Y14820   6.357   0.258   8.690  0.9464  0.3330  2.4562
  136SAPE  C31814821   6.538   0.359   8.644  1.1573 -0.3552  0.0593
  136SAPE  H18X14822   6.588   0.343   8.742 -0.4642  1.2977  1.2095
  136SAPE  H18Y14823   6.587   0.446   8.596  1.7017  0.0802  1.3709
  136SAPE  H18Z14824   6.563   0.269   8.584  5.3591  1.6704 -1.4100
  137SAPE     N14825   4.131   4.468  10.908 -0.3180 -0.1263  0.7114
  137SAPE   HN114826   4.092   4.381  10.867  1.9052 -1.7697  1.9255
  137SAPE   HN214827   4.191   4.507  10.832  1.3445 -1.7644  1.1467
  137SAPE   HN314828   4.186   4.436  10.990 -0.5226 -0.3787  0.7519
  137SAPE   C1214829   4.023   4.557  10.955  0.2044 -0.1957 -0.7626
  137SAPE  H12A14830   3.973   4.605  10.869 -2.5224  0.3001  1.0442
  137SAPE  H12B14831   4.069   4.643  11.008 -0.8004  1.0531 -1.8920
  137SAPE   C1114832   3.913   4.482  11.038 -0.3116 -0.7312 -0.8927
  137SAPE  H11A14833   3.829   4.548  11.069  0.7989  0.5032 -0.5007
  137SAPE  H11B14834   3.961   4.434  11.126  1.9190 -0.7774 -2.1119
  137SAPE     P14835   3.755   4.415  10.839 -0.1031 -0.6415 -0.2882
  137SAPE   O1314836   3.672   4.294  10.820  0.2540  0.1275 -0.0374
  137SAPE   O1414837   3.681   4.532  10.875 -0.1464 -0.1886  0.1510
  137SAPE   O1214838   3.860   4.378  10.952  0.0390 -0.4701  0.0204
  137SAPE   O1114839   3.843   4.438  10.713 -0.0350 -0.3439 -0.3603
  137SAPE    C114840   3.812   4.397  10.583  0.1506 -0.5271 -0.1171
  137SAPE    HA14841   3.903   4.375  10.523 -0.2389  0.5369 -1.1173
  137SAPE    HB14842   3.754   4.302  10.582  0.0055 -0.4542  1.0463
  137SAPE    C214843   3.728   4.502  10.506 -0.6116 -0.1451 -0.3052
  137SAPE    HS14844   3.629   4.523  10.552  0.1903  0.4173  1.2064
  137SAPE   O2114845   3.715   4.453  10.373  0.5902 -0.4072  0.0563
  137SAPE   C2114846   3.606   4.365  10.366  0.4283 -0.3662  0.0813
  137SAPE   O2214847   3.537   4.329  10.459  0.0203  0.4158  0.1376
  137SAPE   C2214848   3.593   4.306  10.228 -0.1241  0.7196  0.3986
  137SAPE   H2R14849   3.598   4.389  10.153 -1.6726 -0.2584 -0.8402
  137SAPE   H2S14850   3.686   4.247  10.214 -1.1520 -0.4613 -1.8069
  137SAPE    C314851   3.809   4.636  10.518 -0.5051  0.5082  0.1731
  137SAPE    HX14852   3.888   4.622  10.440 -0.4420  1.1440  0.1149
  137SAPE    HY14853   3.856   4.640  10.618  0.7901 -3.4219 -0.2137
  137SAPE   O3114854   3.733   4.761  10.495 -0.8185  0.2847 -0.1976
  137SAPE   C3114855   3.806   4.871  10.480  0.0139  0.5395  0.2889
  137SAPE   O3214856   3.929   4.865  10.479  0.0861 -0.2123 -0.5935
  137SAPE   C3214857   3.716   4.995  10.465 -0.6072  0.0939  0.4696
  137SAPE   H2X14858   3.767   5.080  10.514 -0.6520  2.4397 -3.3641
  137SAPE   H2Y14859   3.622   4.970  10.519  0.4297 -2.0912  1.3275
  137SAPE   C2314860   3.472   4.211  10.202  0.1707 -0.0720 -0.2167
  137SAPE   H3R14861   3.382   4.257  10.249  0.4676  1.6847 -1.3350
  137SAPE   H3S14862   3.489   4.112  10.248  3.0357 -0.2276 -1.5366
  137SAPE   C2414863   3.443   4.208  10.051 -0.4608 -0.0132 -0.5781
  137SAPE   H4R14864   3.534   4.158  10.010 -1.2642 -3.1438  1.2302
  137SAPE   H4S14865   3.434   4.309  10.007  1.3139 -0.4833 -2.0841
  137SAPE   C2514866   3.326   4.123   9.998 -0.1559  0.1163 -0.3358
  137SAPE   H5R14867   3.273   4.069  10.078 -1.2425  0.9433 -0.4826
  137SAPE   C2614868   3.263   4.130   9.880 -0.5973  0.5036 -0.1279
  137SAPE   H6R14869   3.173   4.071   9.859 -1.0645  0.2446  2.3780
  137SAPE   C2714870   3.303   4.241   9.784 -0.7504  1.1836 -0.2884
  137SAPE   H7R14871   3.377   4.196   9.714 -1.0581  1.1384 -0.5888
  137SAPE   H7S14872   3.353   4.330   9.826 -2.0220  2.1368 -0.7491
  137SAPE   C2814873   3.180   4.288   9.718  0.3725  0.0605  0.4105
  137SAPE   H8R14874   3.086   4.284   9.775  0.6255 -1.1385  0.7612
  137SAPE   C2914875   3.168   4.340   9.597  0.0954  0.6758  1.4127
  137SAPE   H9R14876   3.073   4.368   9.550  1.4013  0.3933 -1.4708
  137SAPE  C21014877   3.286   4.355   9.504  0.3079  0.1426 -0.4816
  137SAPE  H10R14878   3.382   4.379   9.555 -2.2527 -0.9550  5.2817
  137SAPE  H10S14879   3.273   4.448   9.445  2.0510  0.5087 -0.3268
  137SAPE  C21114880   3.298   4.229   9.412  0.3980 -0.1860 -0.7412
  137SAPE  H11R14881   3.347   4.149   9.471 -4.3111 -0.8588  2.4816
  137SAPE  C21214882   3.293   4.212   9.282  0.2153  0.0630  0.4779
  137SAPE  H12R14883   3.299   4.108   9.247 -2.5154 -0.1069  0.3810
  137SAPE  C21314884   3.252   4.320   9.180  0.0982  0.3579  0.1649
  137SAPE  H13R14885   3.174   4.387   9.224 -2.2469 -0.6465 -2.3597
  137SAPE  H13S14886   3.207   4.271   9.091 -0.8703  0.0745  0.7961
  137SAPE  C21414887   3.371   4.405   9.142 -0.4361  0.5178  0.0965
  137SAPE  H14R14888   3.406   4.476   9.218 -0.0826 -0.2248  0.6201
  137SAPE  C21514889   3.428   4.407   9.021  0.3353  0.1634  0.5210
  137SAPE  H15R14890   3.505   4.484   9.005 -0.4622  0.6035 -1.4191
  137SAPE  C21614891   3.390   4.324   8.895  0.2513  0.1410  0.0472
  137SAPE  H16R14892   3.315   4.243   8.905  0.4692 -0.3080 -1.7349
  137SAPE  H16S14893   3.477   4.267   8.857 -2.0095 -1.5995 -2.7102
  137SAPE  C21714894   3.367   4.428   8.786  0.0151 -0.5017  0.0993
  137SAPE  H17R14895   3.345   4.383   8.687 -0.9769  1.2108 -0.4866
  137SAPE  H17S14896   3.453   4.496   8.766 -1.5089  0.9904 -1.6265
  137SAPE  C21814897   3.238   4.515   8.807 -0.3934  0.1229 -0.0119
  137SAPE  H18R14898   3.235   4.563   8.907 -0.7848 -0.0900  0.0806
  137SAPE  H18S14899   3.152   4.445   8.813  0.5771 -1.1153 -0.5560
  137SAPE  C21914900   3.215   4.614   8.696 -0.3376 -0.0020 -0.1188
  137SAPE  H19R14901   3.105   4.631   8.696 -0.4411 -0.6241 -0.4934
  137SAPE  H19S14902   3.236   4.561   8.600 -1.5885 -0.7355 -0.0063
  137SAPE  C22014903   3.291   4.748   8.707 -0.5258  0.2454  0.6387
  137SAPE  H20R14904   3.277   4.801   8.804  1.4639  1.6529  0.1931
  137SAPE  H20S14905   3.258   4.822   8.632  0.1981 -1.2116 -1.1618
  137SAPE  H20T14906   3.401   4.740   8.692 -0.5102  0.5658  0.5807
  137SAPE   C3314907   3.686   5.026  10.313  0.0881  0.0095 -0.1062
  137SAPE   H3X14908   3.601   5.095  10.296  0.1442 -0.4302 -2.2536
  137SAPE   H3Y14909   3.647   4.933  10.268 -2.9407  1.3098 -0.2498
  137SAPE   C3414910   3.802   5.082  10.235  0.6641  0.4294 -0.1076
  137SAPE   H4X14911   3.891   5.018  10.250  0.3202 -0.9421 -3.4546
  137SAPE   H4Y14912   3.841   5.176  10.280 -1.5948  0.8070  1.0951
  137SAPE   C3514913   3.778   5.106  10.088  0.1498  0.0092 -0.0905
  137SAPE   H5X14914   3.870   5.139  10.034 -0.7879  3.0013  0.0613
  137SAPE   H5Y14915   3.719   5.198  10.069  1.8851  1.7503  2.7268
  137SAPE   C3614916   3.716   4.993  10.012 -0.2505  0.3520 -0.2074
  137SAPE   H6X14917   3.608   4.971  10.029  0.5325 -2.8350  1.1329
  137SAPE   H6Y14918   3.779   4.903  10.032  0.7799  0.7520 -1.5338
  137SAPE   C3714919   3.722   5.015   9.857 -0.1820 -0.4310 -0.3800
  137SAPE   H7X14920   3.698   4.917   9.811 -0.5141  0.2051 -1.5913
  137SAPE   H7Y14921   3.824   5.041   9.820 -0.6314  1.1835 -0.5304
  137SAPE   C3814922   3.620   5.114   9.814  0.6637 -0.5276  0.7216
  137SAPE   H8X14923   3.634   5.213   9.863  0.0208  0.0271 -0.2090
  137SAPE   H8Y14924   3.519   5.087   9.853  0.3139 -2.0939 -1.1861
  137SAPE   C3914925   3.602   5.136   9.657  0.7199 -0.9308 -0.5436
  137SAPE   H9X14926   3.498   5.163   9.631  0.3673  0.5566  2.2430
  137SAPE   H9Y14927   3.635   5.037   9.617  2.1060 -0.6007 -0.2633
  137SAPE  C31014928   3.701   5.254   9.612  0.2373  0.2328  0.5283
  137SAPE  H10X14929   3.805   5.222   9.633 -0.2662 -1.3600  0.6570
  137SAPE  H10Y14930   3.673   5.339   9.678 -2.2380 -0.5634  0.5868
  137SAPE  C31114931   3.681   5.302   9.470 -0.3438 -0.5678  0.1159
  137SAPE  H11X14932   3.738   5.397   9.473  0.6354 -1.1705  1.3428
  137SAPE  H11Y14933   3.583   5.337   9.433  1.5565  2.0835 -2.6796
  137SAPE  C31214934   3.740   5.218   9.360 -0.2264 -0.2236  0.1392
  137SAPE  H12X14935   3.687   5.120   9.365  1.0427 -0.9461 -0.4656
  137SAPE  H12Y14936   3.847   5.200   9.382 -0.1699  0.9578  0.8845
  137SAPE  C31314937   3.710   5.278   9.218 -0.4483 -0.3016 -0.4378
  137SAPE  H13X14938   3.724   5.388   9.211 -1.9246 -0.1651 -1.4794
  137SAPE  H13Y14939   3.600   5.267   9.210 -0.7130  1.4164  0.4855
  137SAPE  C31414940   3.785   5.202   9.109 -0.2374  0.1378  0.7147
  137SAPE  H14X14941   3.774   5.098   9.147 -0.6916 -0.3099 -0.6079
  137SAPE  H14Y14942   3.895   5.222   9.111  0.2319 -2.1178 -0.6905
  137SAPE  C31514943   3.725   5.219   8.966  0.1511  0.4893 -0.3779
  137SAPE  H15X14944   3.722   5.330   8.970  2.4732  0.6036 -0.8501
  137SAPE  H15Y14945   3.619   5.185   8.959  0.8443 -1.7594 -0.6167
  137SAPE  C31614946   3.814   5.166   8.849  0.6833 -0.2200  0.0676
  137SAPE  H16X14947   3.833   5.057   8.861 -1.0601 -0.4975  0.4911
  137SAPE  H16Y14948   3.914   5.214   8.849  0.7817 -0.4229 -0.0425
  137SAPE  C31714949   3.760   5.189   8.713 -0.0678 -0.4588 -0.3011
  137SAPE  H17X14950   3.748   5.294   8.677  2.7681 -0.2681 -0.7535
  137SAPE  H17Y14951   3.657   5.147   8.708  0.5052 -1.8031 -1.0718
  137SAPE  C31814952   3.840   5.117   8.606  0.1853  0.1670 -0.2658
  137SAPE  H18X14953   3.822   5.009   8.590  0.1647  0.1163  0.1014
  137SAPE  H18Y14954   3.949   5.125   8.624 -0.0277 -0.3033  1.2688
  137SAPE  H18Z14955   3.810   5.153   8.505 -3.0368 -0.2510  0.4952
  138SAPE     N14956   1.041   5.487  10.634 -0.2425 -0.2181 -0.3314
  138SAPE   HN114957   1.053   5.591  10.634  3.1133 -0.5399 -2.9970
  138SAPE   HN214958   1.127   5.458  10.684 -1.6563 -0.1189  2.2920
  138SAPE   HN314959   1.032   5.451  10.537 -0.7060 -0.3455 -0.2452
  138SAPE   C1214960   0.926   5.429  10.717  0.0054  0.1078 -0.9522
  138SAPE  H12A14961   0.833   5.440  10.657 -0.2407 -0.8899 -0.7649
  138SAPE  H12B14962   0.926   5.483  10.814  0.7337  1.5630 -1.7498
  138SAPE   C1114963   0.952   5.276  10.732  0.3617 -0.3599  0.8935
  138SAPE  H11A14964   0.955   5.228  10.632 -2.0479  1.4622 -0.1094
  138SAPE  H11B14965   0.864   5.247  10.793  0.2187 -0.2915  0.7168
  138SAPE     P14966   1.194   5.175  10.759  0.3914  0.0240 -0.0393
  138SAPE   O1314967   1.267   5.260  10.663  0.0077  0.4074  0.6384
  138SAPE   O1414968   1.267   5.123  10.873  0.1142  0.5619  0.5672
  138SAPE   O1214969   1.071   5.262  10.810 -0.3739 -0.7899 -0.3046
  138SAPE   O1114970   1.116   5.055  10.684  0.1352  0.0734  0.2466
  138SAPE    C114971   1.155   4.920  10.716  0.2589  0.2364  0.6762
  138SAPE    HA14972   1.264   4.914  10.734  0.4888 -0.0543 -0.7088
  138SAPE    HB14973   1.102   4.877  10.804 -3.4701  1.9412 -0.5942
  138SAPE    C214974   1.120   4.827  10.594 -0.2676 -0.0478  0.3517
  138SAPE    HS14975   1.130   4.719  10.615  0.9893  0.0285  0.1909
  138SAPE   O2114976   1.205   4.854  10.477 -0.0227  0.4213 -0.0168
  138SAPE   C2114977   1.319   4.817  10.492  0.2841 -1.3118  0.4223
  138SAPE   O2214978   1.368   4.754  10.583 -0.2487  0.1958  0.1396
  138SAPE   C2214979   1.393   4.877  10.366  0.0221 -0.1283  1.0251
  138SAPE   H2R14980   1.376   4.811  10.279  1.1676 -0.6264  1.1602
  138SAPE   H2S14981   1.352   4.980  10.350  1.9353  1.0408  3.2571
  138SAPE    C314982   0.968   4.851  10.551 -0.9778  0.0213 -0.3310
  138SAPE    HX14983   0.934   4.955  10.568  1.1722  0.8569 -0.9626
  138SAPE    HY14984   0.905   4.796  10.624 -0.9855  0.5276  0.0482
  138SAPE   O3114985   0.932   4.816  10.416  0.6111  0.0371  0.0010
  138SAPE   C3114986   0.935   4.689  10.384 -0.1864 -0.0620  0.1424
  138SAPE   O3214987   0.999   4.603  10.436 -0.2701  0.4739  0.3376
  138SAPE   C3214988   0.836   4.672  10.267 -0.1456 -0.2537 -0.1609
  138SAPE   H2X14989   0.796   4.568  10.262  3.2952 -1.6424 -0.9278
  138SAPE   H2Y14990   0.897   4.685  10.175 -2.1470  2.9550 -1.0976
  138SAPE   C2314991   1.549   4.873  10.368  0.1116  0.0501 -0.6543
  138SAPE   H3R14992   1.582   4.769  10.391  1.4329  0.1454 -2.0279
  138SAPE   H3S14993   1.584   4.931  10.456 -0.5859 -0.1282 -0.2606
  138SAPE   C2414994   1.619   4.929  10.238 -0.3319  0.4401 -0.4132
  138SAPE   H4R14995   1.726   4.936  10.264  0.1470  0.3134 -2.2738
  138SAPE   H4S14996   1.580   5.031  10.216 -0.0373  0.5618 -0.3678
  138SAPE   C2514997   1.604   4.843  10.111  0.0373  0.5252 -0.0649
  138SAPE   H5R14998   1.510   4.786  10.103 -0.3305  0.6051  3.0037
  138SAPE   C2614999   1.694   4.834  10.011 -0.0734  0.4505  0.2954
  138SAPE   H6R15000   1.669   4.780   9.919 -0.3862  0.3402  0.4428
  138SAPE   C2715001   1.833   4.899  10.012  0.1675 -0.3701  0.0316
  138SAPE   H7R15002   1.904   4.820   9.979 -0.0056  0.8450 -3.4979
  138SAPE   H7S15003   1.870   4.928  10.113 -0.0791  1.0195 -0.2647
  138SAPE   C2815004   1.839   5.024   9.928 -0.1444  0.3381 -0.4645
  138SAPE   H8R15005   1.784   5.106   9.975 -0.7335 -0.3029 -0.0152
  138SAPE   C2915006   1.900   5.051   9.812 -0.2586 -0.2514  0.1359
  138SAPE   H9R15007   1.891   5.154   9.772 -2.2662 -0.2176  0.6154
  138SAPE  C21015008   1.977   4.942   9.741 -0.4852  0.1488  0.5980
  138SAPE  H10R15009   2.015   4.863   9.808 -0.3896  0.5951  1.0686
  138SAPE  H10S15010   2.057   4.994   9.683  1.4305 -0.4603  2.6332
  138SAPE  C21115011   1.896   4.860   9.639 -0.3821  0.0273 -0.2122
  138SAPE  H11R15012   1.857   4.767   9.683  1.5362 -0.7522 -0.1183
  138SAPE  C21215013   1.866   4.888   9.511 -0.4496  0.1069 -0.2376
  138SAPE  H12R15014   1.824   4.805   9.453 -0.0216  0.0810 -0.5146
  138SAPE  C21315015   1.912   5.009   9.430 -0.5806  0.6363  0.0895
  138SAPE  H13R15016   1.918   5.092   9.503  3.7149 -0.1355  0.7588
  138SAPE  H13S15017   1.835   5.032   9.354 -0.0623 -0.9264 -0.9315
  138SAPE  C21415018   2.036   4.987   9.343 -0.4133  0.2293 -0.2928
  138SAPE  H14R15019   2.128   4.986   9.404 -1.0345 -1.4150  0.6436
  138SAPE  C21515020   2.058   4.978   9.211 -0.5838 -0.3668  0.3603
  138SAPE  H15R15021   2.160   4.962   9.172 -0.7576 -1.0696  0.1868
  138SAPE  C21615022   1.950   4.984   9.102 -0.2496  0.1982  0.0505
  138SAPE  H16R15023   1.935   5.085   9.058  0.9412  0.0359 -0.7470
  138SAPE  H16S15024   1.856   4.947   9.148 -0.8662  2.2481  0.5073
  138SAPE  C21715025   1.985   4.908   8.969 -0.1783 -0.1751  0.2095
  138SAPE  H17R15026   2.001   4.802   8.999 -1.6652 -1.4356 -3.1393
  138SAPE  H17S15027   2.087   4.937   8.936 -1.0170  0.5214 -1.9025
  138SAPE  C21815028   1.879   4.935   8.860  0.5890 -0.1876  0.3258
  138SAPE  H18R15029   1.779   4.940   8.909  0.9210 -1.3524  1.1310
  138SAPE  H18S15030   1.894   4.849   8.791 -1.5013 -0.2678 -0.0722
  138SAPE  C21915031   1.898   5.075   8.789 -0.1327  0.6627 -0.7400
  138SAPE  H19R15032   1.990   5.062   8.728 -0.4213  0.7412 -1.1971
  138SAPE  H19S15033   1.905   5.144   8.876  0.5627 -1.6866  1.1316
  138SAPE  C22015034   1.788   5.106   8.681 -1.1449 -0.2337  0.2951
  138SAPE  H20R15035   1.777   5.015   8.618  0.5448 -1.5974  1.8885
  138SAPE  H20S15036   1.816   5.184   8.607 -2.7016 -0.4804 -0.5736
  138SAPE  H20T15037   1.689   5.135   8.721 -1.0214 -1.8618  1.8576
  138SAPE   C3315038   0.718   4.773  10.269 -0.5968 -0.8506  0.6874
  138SAPE   H3X15039   0.754   4.877  10.253  1.3958 -1.4323  1.2010
  138SAPE   H3Y15040   0.655   4.769  10.360  1.5587 -0.5835  2.2571
  138SAPE   C3415041   0.621   4.756  10.152 -0.1315  0.4059  0.4226
  138SAPE   H4X15042   0.526   4.811  10.169 -0.9940 -0.5966 -1.0268
  138SAPE   H4Y15043   0.593   4.648  10.146 -0.4479  0.4426  1.1255
  138SAPE   C3515044   0.669   4.807  10.021  0.3860 -0.7425 -0.1761
  138SAPE   H5X15045   0.768   4.772   9.985  0.9955  2.0037 -1.3440
  138SAPE   H5Y15046   0.690   4.916  10.024  2.6572 -1.1955  1.5692
  138SAPE   C3615047   0.562   4.775   9.917 -0.4773 -1.0962 -0.6436
  138SAPE   H6X15048   0.482   4.852   9.927 -1.4726 -1.5970 -4.0615
  138SAPE   H6Y15049   0.514   4.676   9.933  0.3193 -1.1933  1.3936
  138SAPE   C3715050   0.620   4.786   9.771 -0.2495 -0.1579  0.2323
  138SAPE   H7X15051   0.728   4.761   9.779 -0.6683 -2.0806  0.1582
  138SAPE   H7Y15052   0.616   4.895   9.750  0.5796 -0.0539  0.5801
  138SAPE   C3815053   0.546   4.703   9.655  0.5628  0.7262  0.2714
  138SAPE   H8X15054   0.437   4.708   9.676  0.5254 -0.3073  0.3193
  138SAPE   H8Y15055   0.566   4.594   9.662 -2.6907  0.1466  1.6757
  138SAPE   C3915056   0.588   4.779   9.530 -0.6296 -0.0841 -0.1281
  138SAPE   H9X15057   0.697   4.789   9.517 -0.9757  0.4162 -2.9481
  138SAPE   H9Y15058   0.556   4.883   9.549  2.3089  0.7034  0.7242
  138SAPE  C31015059   0.517   4.728   9.405  0.1701  0.0385  0.0612
  138SAPE  H10X15060   0.410   4.756   9.413 -0.0313 -0.4897 -0.8039
  138SAPE  H10Y15061   0.529   4.617   9.407 -0.0547  0.0294  2.5783
  138SAPE  C31115062   0.587   4.770   9.276  0.1138 -0.2292  0.5026
  138SAPE  H11X15063   0.694   4.737   9.277  0.0122 -0.6581  3.7950
  138SAPE  H11Y15064   0.595   4.880   9.274 -0.1585 -0.2194 -1.9004
  138SAPE  C31215065   0.500   4.732   9.160  0.2331  0.0076 -0.6623
  138SAPE  H12X15066   0.402   4.783   9.164 -0.5833 -1.6101  0.3758
  138SAPE  H12Y15067   0.489   4.621   9.154  0.9937 -0.1028 -0.1292
  138SAPE  C31315068   0.569   4.775   9.024 -0.1271 -0.3583  0.4496
  138SAPE  H13X15069   0.668   4.728   9.007 -0.3044 -0.0079 -1.7277
  138SAPE  H13Y15070   0.603   4.880   9.020  0.9483 -0.7322 -0.5680
  138SAPE  C31415071   0.471   4.750   8.900  0.2191 -0.6450  0.0889
  138SAPE  H14X15072   0.503   4.815   8.816 -0.8986 -1.7557 -1.2125
  138SAPE  H14Y15073   0.367   4.780   8.925  0.8988  0.4881  1.6973
  138SAPE  C31515074   0.463   4.602   8.855  0.3063 -0.5474  0.0131
  138SAPE  H15X15075   0.412   4.549   8.938  2.1214  0.0988  1.5777
  138SAPE  H15Y15076   0.571   4.580   8.844 -0.0222 -0.3489 -4.6664
  138SAPE  C31615077   0.381   4.566   8.735 -0.0847 -0.0175 -0.3260
  138SAPE  H16X15078   0.412   4.625   8.646  0.0330  1.5955  0.7646
  138SAPE  H16Y15079   0.275   4.574   8.768  0.2859  1.3276  0.5463
  138SAPE  C31715080   0.381   4.416   8.693 -0.0976  0.5796  0.1068
  138SAPE  H17X15081   0.323   4.406   8.599  0.6195  1.7457 -0.4742
  138SAPE  H17Y15082   0.319   4.360   8.766  0.6610  1.1699  1.2308
  138SAPE  C31815083   0.520   4.353   8.692  0.3685  0.4112  0.9656
  138SAPE  H18X15084   0.518   4.251   8.649  0.8398 -0.2801  2.5471
  138SAPE  H18Y15085   0.563   4.349   8.794  1.3275 -0.1740  0.5473
  138SAPE  H18Z15086   0.581   4.420   8.627 -0.4342 -1.5883 -1.9311
  139SAPE     N15087   6.685   3.137  10.908 -0.0868 -0.0557  0.3005
  139SAPE   HN115088   6.687   3.115  11.009  2.0579  1.5877  0.6416
  139SAPE   HN215089   6.745   3.218  10.886 -0.5863 -0.1118 -1.3778
  139SAPE   HN315090   6.584   3.150  10.884 -0.6781 -1.0324  2.1799
  139SAPE   C1215091   6.733   3.019  10.830  0.0906 -0.7941  0.1643
  139SAPE  H12A15092   6.651   2.945  10.822 -2.3547  1.9309 -0.6366
  139SAPE  H12B15093   6.815   2.965  10.882  0.2334 -0.2661  0.4919
  139SAPE   C1115094   6.770   3.066  10.693 -0.4097  0.0845 -0.6779
  139SAPE  H11A15095   6.673   3.097  10.649 -0.6907 -0.3630 -0.3817
  139SAPE  H11B15096   6.811   2.985  10.630  0.3392  0.8039 -1.1312
  139SAPE     P15097   6.995   3.194  10.604 -0.5836  0.0451 -0.0199
  139SAPE   O1315098   7.001   3.334  10.565  0.5864 -0.3448  0.0227
  139SAPE   O1415099   7.117   3.138  10.667  0.0882 -0.3136 -0.3306
  139SAPE   O1215100   6.867   3.177  10.702  0.6775 -0.3689  0.1611
  139SAPE   O1115101   6.958   3.114  10.473 -0.7109  0.4888 -0.0882
  139SAPE    C115102   7.051   3.036  10.387 -0.0814 -0.1615  0.2457
  139SAPE    HA15103   7.092   2.953  10.449 -1.0242 -0.2894  0.7150
  139SAPE    HB15104   6.990   2.982  10.312  2.2194 -0.7701 -1.2017
  139SAPE    C215105   7.157   3.121  10.301  0.9417 -0.5706 -0.2853
  139SAPE    HS15106   7.241   3.147  10.369 -0.2528 -1.2731  1.4817
  139SAPE   O2115107   7.086   3.242  10.255 -0.6713  0.4199  0.4508
  139SAPE   C2115108   7.167   3.347  10.231 -0.4906  0.3864 -0.5777
  139SAPE   O2215109   7.290   3.336  10.237  0.9508 -0.3632  0.0184
  139SAPE   C2215110   7.086   3.468  10.193  0.0284  0.0119 -0.3153
  139SAPE   H2R15111   7.029   3.500  10.283  0.0517  0.7470 -0.5650
  139SAPE   H2S15112   7.155   3.548  10.160  0.0100 -0.6832 -2.0885
  139SAPE    C315113   7.217   3.042  10.185  0.7083 -0.4977 -0.4061
  139SAPE    HX15114   7.297   3.107  10.142 -0.8289  2.8085  1.5137
  139SAPE    HY15115   7.139   3.028  10.106  0.8985  1.8051 -1.0438
  139SAPE   O3115116   7.264   2.914  10.238  0.0967 -0.0282 -0.2581
  139SAPE   C3115117   7.397   2.901  10.254  0.0390 -0.2184 -0.0431
  139SAPE   O3215118   7.476   2.987  10.239 -0.5878  0.1687 -0.0097
  139SAPE   C3215119   7.430   2.767  10.321  0.0081  0.6197 -0.1305
  139SAPE   H2X15120   7.411   2.786  10.429  2.0469 -1.8020  0.7285
  139SAPE   H2Y15121   7.539   2.744  10.318 -0.1493 -0.3415  0.8609
  139SAPE   C2315122   6.992   3.424  10.077 -0.9255  0.3296  0.2356
  139SAPE   H3R15123   6.917   3.505  10.066 -1.4057 -0.1897 -0.4122
  139SAPE   H3S15124   6.929   3.340  10.113 -1.5630  0.8223  0.2876
  139SAPE   C2415125   7.064   3.402   9.938  0.0395 -0.3399  0.9415
  139SAPE   H4R15126   7.148   3.330   9.932  1.3981  1.3379 -0.6172
  139SAPE   H4S15127   7.104   3.503   9.916 -2.4795 -0.2664 -4.1373
  139SAPE   C2515128   6.962   3.357   9.833  0.3624  0.1115  0.4408
  139SAPE   H5R15129   6.881   3.294   9.874  1.9746 -2.3025 -0.0153
  139SAPE   C2615130   6.970   3.362   9.698  0.3837  0.5920  0.3886
  139SAPE   H6R15131   6.879   3.338   9.641  0.9203  2.5438 -1.3368
  139SAPE   C2715132   7.078   3.433   9.616  0.3597 -0.1156 -0.8257
  139SAPE   H7R15133   7.157   3.477   9.680 -1.4658  1.9645  0.0794
  139SAPE   H7S15134   7.036   3.528   9.575  0.3753 -0.1816 -0.9954
  139SAPE   C2815135   7.133   3.341   9.507 -0.4353 -0.4788  0.6182
  139SAPE   H8R15136   7.209   3.272   9.547 -0.1149 -0.9588 -0.7978
  139SAPE   C2915137   7.098   3.331   9.380 -0.0609 -0.3311 -0.2030
  139SAPE   H9R15138   7.149   3.265   9.309 -1.9032  1.3905 -3.2572
  139SAPE  C21015139   6.984   3.408   9.321 -0.6042  0.3785  0.0582
  139SAPE  H10R15140   6.998   3.518   9.311 -0.4611  0.4211  0.7008
  139SAPE  H10S15141   6.907   3.407   9.402 -1.8729 -2.2809 -1.1129
  139SAPE  C21115142   6.919   3.335   9.205 -0.0089  0.0955  0.1539
  139SAPE  H11R15143   6.827   3.283   9.237 -0.0851 -0.3302 -0.7420
  139SAPE  C21215144   6.967   3.312   9.085 -0.0650  0.1305  0.0362
  139SAPE  H12R15145   6.896   3.266   9.014  0.1264 -0.8783  0.4914
  139SAPE  C21315146   7.096   3.385   9.044 -0.3566 -0.1117  0.0939
  139SAPE  H13R15147   7.141   3.438   9.130  3.0749 -2.7234  0.0123
  139SAPE  H13S15148   7.073   3.463   8.969  1.7241  1.4028  0.9778
  139SAPE  C21415149   7.192   3.278   8.998  0.1157  0.5220  0.2780
  139SAPE  H14R15150   7.198   3.190   9.063 -1.6163 -0.7569 -1.2264
  139SAPE  C21515151   7.270   3.282   8.888 -0.1809  0.5661 -0.3315
  139SAPE  H15R15152   7.336   3.200   8.857  0.9214 -0.3056  3.9376
  139SAPE  C21615153   7.291   3.405   8.802 -0.2755  0.7997 -0.2019
  139SAPE  H16R15154   7.255   3.499   8.849  1.6668  0.4570  2.0549
  139SAPE  H16S15155   7.237   3.402   8.704 -0.3297  0.5731 -0.1654
  139SAPE  C21715156   7.437   3.434   8.763  0.3117 -0.1431 -0.1081
  139SAPE  H17R15157   7.448   3.533   8.714  0.7501 -0.0791  0.1106
  139SAPE  H17S15158   7.474   3.348   8.704  1.8444  1.7728 -1.9952
  139SAPE  C21815159   7.534   3.457   8.879 -0.0201 -0.2613 -0.8693
  139SAPE  H18R15160   7.635   3.455   8.834 -0.9274 -1.8759 -2.9394
  139SAPE  H18S15161   7.529   3.370   8.948  2.1017  0.3822  0.1242
  139SAPE  C21915162   7.525   3.589   8.949  0.1196  0.2110 -0.0030
  139SAPE  H19R15163   7.426   3.604   8.998 -1.5877 -2.0771 -2.5676
  139SAPE  H19S15164   7.543   3.678   8.885  2.9725 -0.9913 -0.9521
  139SAPE  C22015165   7.629   3.606   9.057 -1.1065 -1.0030  0.5765
  139SAPE  H20R15166   7.728   3.613   9.007 -0.8068 -1.9485  1.0188
  139SAPE  H20S15167   7.632   3.521   9.129  1.6945 -1.7306 -0.3127
  139SAPE  H20T15168   7.625   3.704   9.109  1.0875  0.2617 -1.5290
  139SAPE   C3315169   7.329   2.657  10.285  0.1294  0.5310 -0.4235
  139SAPE   H3X15170   7.225   2.697  10.292  0.6085  1.3840  2.1259
  139SAPE   H3Y15171   7.326   2.581  10.366 -2.8753  1.5944  0.5508
  139SAPE   C3415172   7.366   2.590  10.151  0.7913  0.0582  0.5098
  139SAPE   H4X15173   7.470   2.554  10.166  0.2685 -1.8016 -0.1492
  139SAPE   H4Y15174   7.368   2.670  10.074 -1.6176  1.2450  1.6149
  139SAPE   C3515175   7.268   2.478  10.100 -0.3486  0.3050  0.3085
  139SAPE   H5X15176   7.170   2.523  10.074 -0.2810  1.8190  2.5539
  139SAPE   H5Y15177   7.252   2.390  10.166  1.3059 -1.4585 -1.6048
  139SAPE   C3615178   7.320   2.417   9.962  0.1959  0.0164  0.3128
  139SAPE   H6X15179   7.343   2.497   9.888 -1.3604 -0.2543 -0.4833
  139SAPE   H6Y15180   7.227   2.366   9.930  0.5143 -0.3722 -0.0083
  139SAPE   C3715181   7.431   2.310   9.972  0.0551  0.5053  0.3587
  139SAPE   H7X15182   7.400   2.246  10.058  1.2480  1.2217  1.3300
  139SAPE   H7Y15183   7.522   2.363  10.008  0.1433  0.3893  0.3085
  139SAPE   C3815184   7.477   2.226   9.857 -0.4928  0.3119  0.2854
  139SAPE   H8X15185   7.399   2.158   9.815 -0.7313  2.7708 -3.4635
  139SAPE   H8Y15186   7.555   2.153   9.888 -0.3985 -0.5803 -1.8979
  139SAPE   C3915187   7.524   2.316   9.739 -0.3186 -0.3518 -0.1005
  139SAPE   H9X15188   7.624   2.353   9.768  0.3485 -0.7150 -1.9119
  139SAPE   H9Y15189   7.453   2.402   9.736 -0.4307 -0.4692 -0.8615
  139SAPE  C31015190   7.523   2.251   9.602 -0.4299  0.2098 -0.3696
  139SAPE  H10X15191   7.418   2.222   9.578 -0.2472  0.0652 -0.9841
  139SAPE  H10Y15192   7.599   2.171   9.603 -1.1763 -0.4926  1.1232
  139SAPE  C31115193   7.563   2.344   9.484  0.5130  0.6431 -0.3839
  139SAPE  H11X15194   7.660   2.388   9.515  1.0720 -1.2176  0.5662
  139SAPE  H11Y15195   7.484   2.421   9.468 -0.9073 -0.9198 -1.0680
  139SAPE  C31215196   7.574   2.270   9.354 -0.2000  0.5675 -0.2320
  139SAPE  H12X15197   7.482   2.208   9.340  1.6363 -2.0368 -1.0716
  139SAPE  H12Y15198   7.661   2.202   9.356 -1.1657 -0.7559 -1.7967
  139SAPE  C31315199   7.603   2.359   9.228 -0.2895 -0.4384 -0.9313
  139SAPE  H13X15200   7.701   2.409   9.239 -1.1286  1.0449  0.0410
  139SAPE  H13Y15201   7.529   2.442   9.231 -1.8834 -1.8627  2.7617
  139SAPE  C31415202   7.591   2.289   9.091  0.7820  0.2056  0.1273
  139SAPE  H14X15203   7.488   2.249   9.074  1.0510 -0.4118 -0.0424
  139SAPE  H14Y15204   7.661   2.203   9.083  1.7696  0.7665  2.5406
  139SAPE  C31515205   7.633   2.384   8.980  0.2781 -0.5221 -0.6462
  139SAPE  H15X15206   7.735   2.426   8.996 -1.1276  2.5386  0.4935
  139SAPE  H15Y15207   7.572   2.476   8.983 -1.4052 -1.6607  2.6543
  139SAPE  C31615208   7.609   2.313   8.846 -0.4016  0.3644 -0.0906
  139SAPE  H16X15209   7.537   2.228   8.851 -1.0737  0.9336 -0.1068
  139SAPE  H16Y15210   7.555   2.375   8.772 -0.3640 -0.8461 -1.1466
  139SAPE  C31715211   7.736   2.251   8.778 -0.2862  0.1688  0.0637
  139SAPE  H17X15212   7.698   2.175   8.706 -1.9485  0.2527  0.8334
  139SAPE  H17Y15213   7.801   2.209   8.857 -1.7226  1.7981  2.1631
  139SAPE  C31815214   7.823   2.352   8.699  0.7431  0.2483 -0.3223
  139SAPE  H18X15215   7.920   2.298   8.691  0.5182 -0.4758  1.5218
  139SAPE  H18Y15216   7.829   2.438   8.769  2.6595  0.3098 -0.5203
  139SAPE  H18Z15217   7.773   2.386   8.606  1.4962 -3.0722 -2.0183
  140SAPE     N15218   4.195   0.755  11.012 -0.5525  0.1235 -0.2709
  140SAPE   HN115219   4.257   0.824  10.966 -0.8041  1.3680  1.1945
  140SAPE   HN215220   4.112   0.792  11.063 -1.8306  0.7582 -2.7581
  140SAPE   HN315221   4.256   0.703  11.079  0.3281  0.4286 -0.8328
  140SAPE   C1215222   4.151   0.660  10.905  0.3541  0.1680 -0.7806
  140SAPE  H12A15223   4.131   0.558  10.944  0.4136  0.6270  0.5014
  140SAPE  H12B15224   4.232   0.669  10.829  1.8809  2.2537  1.0231
  140SAPE   C1115225   4.032   0.713  10.825 -0.1419  0.1302  0.4174
  140SAPE  H11A15226   4.025   0.660  10.727  0.1974 -0.7403  0.8550
  140SAPE  H11B15227   4.059   0.817  10.798  0.1394  0.0116  0.2303
  140SAPE     P15228   3.825   0.579  10.902 -0.2877  0.5186 -0.5038
  140SAPE   O1315229   3.906   0.465  10.964  0.4915 -0.1168 -0.1524
  140SAPE   O1415230   3.695   0.611  10.968  0.0071 -0.9614 -0.4527
  140SAPE   O1215231   3.907   0.704  10.900  0.6584  0.0419  0.0107
  140SAPE   O1115232   3.797   0.562  10.745 -0.4664 -0.6648  0.4799
  140SAPE    C115233   3.734   0.436  10.707 -0.4167  0.1978  0.5248
  140SAPE    HA15234   3.796   0.344  10.722 -1.5569 -0.2813  2.4315
  140SAPE    HB15235   3.639   0.415  10.759  0.6461 -1.5993  1.8061
  140SAPE    C215236   3.700   0.426  10.555 -0.0132  0.2932 -0.3294
  140SAPE    HS15237   3.697   0.320  10.522  0.0724 -0.0227  0.6641
  140SAPE   O2115238   3.793   0.501  10.478  0.4296 -0.0901 -0.4306
  140SAPE   C2115239   3.914   0.441  10.477  0.3532 -0.5199  1.1219
  140SAPE   O2215240   3.938   0.333  10.524  0.0451 -0.0139  0.3767
  140SAPE   C2215241   4.002   0.522  10.388  0.6404 -0.1295 -0.6556
  140SAPE   H2R15242   3.984   0.632  10.387  0.2131 -0.2019 -1.4101
  140SAPE   H2S15243   4.107   0.502  10.418  0.1387  0.4684  1.6049
  140SAPE    C315244   3.552   0.475  10.531  0.5155 -0.8475 -0.0609
  140SAPE    HX15245   3.548   0.581  10.564 -0.4055 -0.8990 -0.0074
  140SAPE    HY15246   3.488   0.419  10.602 -1.3261  0.5097 -0.6378
  140SAPE   O3115247   3.497   0.453  10.398 -0.1334 -0.1748 -0.0635
  140SAPE   C3115248   3.425   0.550  10.351  0.2913  0.1136  0.6521
  140SAPE   O3215249   3.403   0.657  10.398 -0.1984 -0.2711  0.0707
  140SAPE   C3215250   3.383   0.517  10.205  0.0557  0.6822  0.2119
  140SAPE   H2X15251   3.294   0.452  10.220 -0.6602  1.8359  1.0606
  140SAPE   H2Y15252   3.461   0.462  10.148  1.3797  1.4125  1.2878
  140SAPE   C2315253   3.991   0.471  10.243 -0.1524 -0.6765 -0.7912
  140SAPE   H3R15254   4.002   0.361  10.231 -3.6350 -0.8600 -3.0381
  140SAPE   H3S15255   4.078   0.513  10.188  1.8864 -1.9186  1.4037
  140SAPE   C2415256   3.855   0.517  10.174  0.0305  0.1940 -0.0969
  140SAPE   H4R15257   3.778   0.528  10.254 -2.2566  0.0062 -2.2029
  140SAPE   H4S15258   3.814   0.441  10.104  1.4267  0.1712 -0.9067
  140SAPE   C2515259   3.870   0.645  10.094  0.0690 -1.2054  0.1008
  140SAPE   H5R15260   3.897   0.727  10.161 -0.6932 -0.0884 -0.9383
  140SAPE   C2615261   3.860   0.659   9.958 -0.6651  0.3415  0.5245
  140SAPE   H6R15262   3.891   0.758   9.919 -0.0844  0.0662  0.2843
  140SAPE   C2715263   3.828   0.553   9.853 -0.7637  0.4504  0.5609
  140SAPE   H7R15264   3.826   0.457   9.909 -0.0415 -1.2181 -2.1357
  140SAPE   H7S15265   3.914   0.539   9.783 -1.3350 -1.5218  0.2058
  140SAPE   C2815266   3.700   0.572   9.775 -0.2448 -0.3065  0.3761
  140SAPE   H8R15267   3.616   0.589   9.845 -0.0098  0.6735  0.4299
  140SAPE   C2915268   3.687   0.568   9.640 -0.0530  0.3157  0.9042
  140SAPE   H9R15269   3.586   0.593   9.603 -0.5289 -0.3413  1.7369
  140SAPE  C21015270   3.784   0.534   9.528  0.0929  0.2674  0.5882
  140SAPE  H10R15271   3.863   0.466   9.563 -2.0316 -0.3938  4.3775
  140SAPE  H10S15272   3.835   0.628   9.497  0.1913 -0.1240 -0.4367
  140SAPE  C21115273   3.707   0.469   9.410  0.1759 -0.1843  0.0095
  140SAPE  H11R15274   3.620   0.410   9.445 -0.1652 -0.7205 -1.6947
  140SAPE  C21215275   3.729   0.469   9.276 -0.5537 -0.2610 -0.0714
  140SAPE  H12R15276   3.658   0.411   9.216 -0.0858 -0.3964 -0.4994
  140SAPE  C21315277   3.852   0.521   9.209 -0.9295 -0.4367  0.2117
  140SAPE  H13R15278   3.927   0.442   9.187  0.3441  0.7761  0.1151
  140SAPE  H13S15279   3.921   0.586   9.268  0.4533 -0.7357 -1.0424
  140SAPE  C21415280   3.833   0.587   9.078 -0.8837 -0.0882 -0.0666
  140SAPE  H14R15281   3.773   0.679   9.065  0.0915  0.6959  0.9476
  140SAPE  C21515282   3.873   0.538   8.959  0.2317 -0.0136  0.0789
  140SAPE  H15R15283   3.845   0.602   8.873 -1.0475  0.7442  1.0478
  140SAPE  C21615284   3.965   0.418   8.932  0.0831  0.3229  0.1016
  140SAPE  H16R15285   3.936   0.323   8.981  0.7637 -0.2875 -0.6664
  140SAPE  H16S15286   4.069   0.435   8.966 -0.5739 -0.5650  2.6923
  140SAPE  C21715287   3.972   0.390   8.777 -0.1603 -0.2851  0.3879
  140SAPE  H17R15288   4.007   0.482   8.727  0.0590  0.7294  2.3477
  140SAPE  H17S15289   3.870   0.358   8.748 -0.4361  0.6577  0.3299
  140SAPE  C21815290   4.076   0.286   8.728  0.2554  0.5175  0.0524
  140SAPE  H18R15291   4.079   0.196   8.793  2.0010  0.5162 -0.0092
  140SAPE  H18S15292   4.178   0.331   8.724  0.0032  1.0269 -0.8256
  140SAPE  C21915293   4.037   0.244   8.577  0.7679 -0.6209  1.0974
  140SAPE  H19R15294   4.131   0.209   8.530 -0.9203 -0.7911 -2.2587
  140SAPE  H19S15295   3.998   0.337   8.530 -2.3303 -2.7613 -0.7345
  140SAPE  C22015296   3.925   0.142   8.569  0.1911  0.4256  0.0871
  140SAPE  H20R15297   3.835   0.181   8.622  0.6893  0.0684  1.2140
  140SAPE  H20S15298   3.956   0.048   8.619  0.2054  0.1744 -0.4025
  140SAPE  H20T15299   3.904   0.124   8.462 -1.1389 -0.5732  0.5008
  140SAPE   C3315300   3.340   0.640  10.121 -0.0905 -0.3390 -0.8868
  140SAPE   H3X15301   3.410   0.725  10.135  0.0212 -0.4195 -0.9543
  140SAPE   H3Y15302   3.245   0.675  10.167  0.5715 -0.0421  0.2463
  140SAPE   C3415303   3.334   0.611   9.970  0.9395 -0.6838  0.3107
  140SAPE   H4X15304   3.443   0.604   9.948  1.1782 -1.6661  1.7137
  140SAPE   H4Y15305   3.282   0.684   9.905  1.2973 -0.2698  0.4891
  140SAPE   C3515306   3.263   0.475   9.920 -0.4259  0.4701  0.3264
  140SAPE   H5X15307   3.152   0.478   9.926 -0.3781  0.0425  1.5052
  140SAPE   H5Y15308   3.314   0.405   9.990  0.3782  1.1282  0.4167
  140SAPE   C3615309   3.311   0.423   9.787  0.0048  0.3690 -0.9752
  140SAPE   H6X15310   3.270   0.323   9.762  1.7481 -0.6419  0.1377
  140SAPE   H6Y15311   3.421   0.408   9.786 -0.2858 -1.8104 -0.8774
  140SAPE   C3715312   3.281   0.517   9.665  0.0755 -0.0731 -0.4089
  140SAPE   H7X15313   3.349   0.605   9.662 -0.3952  0.2824 -0.7776
  140SAPE   H7Y15314   3.180   0.556   9.690 -0.0013 -0.7285  0.3402
  140SAPE   C3815315   3.278   0.451   9.524  0.2426 -0.8173 -0.2146
  140SAPE   H8X15316   3.198   0.374   9.525 -0.5134 -0.1665 -3.3058
  140SAPE   H8Y15317   3.371   0.398   9.496 -0.9799 -3.1509 -0.0249
  140SAPE   C3915318   3.247   0.561   9.413  0.6416 -0.4418 -0.5803
  140SAPE   H9X15319   3.324   0.638   9.432  1.2442 -0.9624 -0.8842
  140SAPE   H9Y15320   3.149   0.612   9.420 -0.0367 -1.7864  0.0892
  140SAPE  C31015321   3.265   0.509   9.274 -0.0386 -0.0610  0.3001
  140SAPE  H10X15322   3.202   0.421   9.248 -0.2319  0.2637 -0.3367
  140SAPE  H10Y15323   3.370   0.477   9.254 -0.1437 -0.5471  0.5016
  140SAPE  C31115324   3.247   0.611   9.159 -0.2913  0.5018 -0.3842
  140SAPE  H11X15325   3.317   0.693   9.186  0.5259  0.0759 -1.1698
  140SAPE  H11Y15326   3.144   0.646   9.178 -0.0012  1.1317  0.0323
  140SAPE  C31215327   3.269   0.564   9.016 -0.0267 -0.2350 -0.5778
  140SAPE  H12X15328   3.240   0.653   8.957 -0.5484 -0.1073 -0.1374
  140SAPE  H12Y15329   3.193   0.483   9.008  0.3608 -0.9516  2.1479
  140SAPE  C31315330   3.411   0.527   8.973  0.1079 -0.0973  0.3126
  140SAPE  H13X15331   3.459   0.441   9.025  2.7992  1.7606  1.0008
  140SAPE  H13Y15332   3.480   0.613   8.989  4.1101 -3.0232 -0.3158
  140SAPE  C31415333   3.431   0.510   8.821  0.1958  0.9178  0.0730
  140SAPE  H14X15334   3.412   0.603   8.764 -0.7525  0.8318  0.2346
  140SAPE  H14Y15335   3.361   0.432   8.783  0.4207 -0.8531  3.1166
  140SAPE  C31515336   3.570   0.467   8.783 -0.4555  0.9552 -0.3381
  140SAPE  H15X15337   3.589   0.377   8.846  1.2461  1.2930 -0.3446
  140SAPE  H15Y15338   3.638   0.546   8.819  2.1263 -1.0311 -0.6824
  140SAPE  C31615339   3.603   0.442   8.632  0.4142  0.4108 -0.1042
  140SAPE  H16X15340   3.507   0.474   8.585  1.4345 -0.3146 -2.7925
  140SAPE  H16Y15341   3.629   0.336   8.613 -2.5469 -0.4776  0.5986
  140SAPE  C31715342   3.707   0.525   8.567  0.0072 -0.1019 -0.2562
  140SAPE  H17X15343   3.797   0.504   8.629  0.9513 -0.5554 -1.7748
  140SAPE  H17Y15344   3.684   0.634   8.580 -0.6266 -0.1939 -0.5698
  140SAPE  C31815345   3.739   0.484   8.418 -0.2662 -0.0583  0.3381
  140SAPE  H18X15346   3.819   0.544   8.371 -2.8292  2.8936 -0.4257
  140SAPE  H18Y15347   3.658   0.505   8.345  1.3694  2.2925 -0.8239
  140SAPE  H18Z15348   3.769   0.377   8.417  0.4973  0.1414  1.3328
  141SAPE     N15349   4.701   1.076  10.577 -0.9721  0.2777  0.2167
  141SAPE   HN115350   4.654   1.167  10.559 -2.0203 -0.3551 -0.2788
  141SAPE   HN215351   4.765   1.056  10.497  0.4284  2.9759  0.5889
  141SAPE   HN315352   4.628   1.003  10.571 -0.0697 -0.7943  1.8624
  141SAPE   C1215353   4.783   1.079  10.702  0.1321  0.4845  0.5329
  141SAPE  H12A15354   4.870   1.147  10.694  0.9220 -0.6681 -0.8687
  141SAPE  H12B15355   4.803   0.971  10.718  1.1623  0.2678 -1.9371
  141SAPE   C1115356   4.691   1.134  10.812 -0.0835  0.0404 -0.0903
  141SAPE  H11A15357   4.675   1.244  10.812  2.7589  0.4984  0.1241
  141SAPE  H11B15358   4.749   1.118  10.905  0.8894  0.2826 -0.6446
  141SAPE     P15359   4.531   0.935  10.883 -0.3478 -0.1972 -0.2964
  141SAPE   O1315360   4.616   0.899  10.994 -0.1162 -0.3891  0.5159
  141SAPE   O1415361   4.384   0.929  10.911 -0.3993 -0.0719 -0.0087
  141SAPE   O1215362   4.559   1.083  10.824 -0.4379 -0.4327 -0.2346
  141SAPE   O1115363   4.572   0.848  10.753  0.4036  0.4348  0.0706
  141SAPE    C115364   4.528   0.710  10.758  0.5855 -0.0902  0.3754
  141SAPE    HA15365   4.623   0.653  10.765 -0.8748 -2.6956 -0.5239
  141SAPE    HB15366   4.467   0.670  10.842 -0.0817 -1.1834 -0.6161
  141SAPE    C215367   4.471   0.666  10.623 -0.8303 -0.0756  0.0770
  141SAPE    HS15368   4.553   0.684  10.550  0.1048  2.6523  1.7430
  141SAPE   O2115369   4.356   0.741  10.598 -0.0812 -0.2409  0.8076
  141SAPE   C2115370   4.381   0.861  10.539 -0.1212 -0.3176 -0.2254
  141SAPE   O2215371   4.491   0.904  10.496  0.4974 -0.2341  0.5263
  141SAPE   C2215372   4.256   0.942  10.547  0.3596 -0.0767 -0.3407
  141SAPE   H2R15373   4.232   0.965  10.653  0.7211 -1.8199  0.1397
  141SAPE   H2S15374   4.285   1.036  10.495  0.6217 -0.4276 -0.8299
  141SAPE    C315375   4.437   0.518  10.638 -0.3288  0.3364 -0.0812
  141SAPE    HX15376   4.366   0.499  10.722  2.1779 -0.8858  1.8582
  141SAPE    HY15377   4.538   0.473  10.654  0.2083  0.3313 -3.1494
  141SAPE   O3115378   4.389   0.478  10.509  0.2544 -0.3111 -0.7335
  141SAPE   C3115379   4.479   0.456  10.415  0.3612 -0.1369  0.4047
  141SAPE   O3215380   4.601   0.473  10.420  0.6608 -0.1531  0.1508
  141SAPE   C3215381   4.404   0.401  10.292  0.1433  0.3633  0.0156
  141SAPE   H2X15382   4.295   0.403  10.312 -0.0510 -0.8595 -0.8432
  141SAPE   H2Y15383   4.434   0.294  10.281 -5.9468 -1.7605  2.3706
  141SAPE   C2315384   4.140   0.869  10.483  0.0796  0.4826  0.1079
  141SAPE   H3R15385   4.048   0.915  10.523  1.6625  1.9170  2.2262
  141SAPE   H3S15386   4.138   0.759  10.497  1.8550  0.0871 -2.3023
  141SAPE   C2415387   4.136   0.906  10.333 -0.3535  0.0582 -0.8567
  141SAPE   H4R15388   4.143   1.016  10.327  2.3792 -0.0983 -1.2248
  141SAPE   H4S15389   4.031   0.888  10.303 -0.4286 -1.7784  0.3772
  141SAPE   C2515390   4.236   0.844  10.237 -0.5239 -0.4865  0.9703
  141SAPE   H5R15391   4.314   0.776  10.273 -0.7232 -1.0825  0.2940
  141SAPE   C2615392   4.237   0.837  10.098 -0.5343  0.7629  0.2122
  141SAPE   H6R15393   4.315   0.775  10.052 -0.0514 -0.8246  3.0790
  141SAPE   C2715394   4.131   0.901  10.016  0.4074  0.4537 -0.0174
  141SAPE   H7R15395   4.040   0.921  10.076  0.1478  3.4884 -1.3596
  141SAPE   H7S15396   4.111   0.827   9.936 -1.2257 -0.3745  1.1066
  141SAPE   C2815397   4.168   1.030   9.940 -0.4234  0.1136  0.2274
  141SAPE   H8R15398   4.162   1.121  10.000 -0.5621  1.5981 -1.9908
  141SAPE   C2915399   4.200   1.044   9.814  0.2762 -0.1025  0.0051
  141SAPE   H9R15400   4.214   1.146   9.776  1.7684 -0.5731 -0.7663
  141SAPE  C21015401   4.208   0.930   9.716 -0.0800 -0.2673  0.0732
  141SAPE  H10R15402   4.213   0.970   9.613 -1.1826 -0.0305  0.0956
  141SAPE  H10S15403   4.110   0.878   9.708  0.0590 -0.4764 -0.2479
  141SAPE  C21115404   4.318   0.833   9.736 -0.1843  0.1306  0.3348
  141SAPE  H11R15405   4.403   0.871   9.795  0.5776  1.2923 -1.4661
  141SAPE  C21215406   4.311   0.699   9.719 -0.6037 -0.4509  0.0157
  141SAPE  H12R15407   4.404   0.640   9.715 -1.0941 -1.2928  0.6787
  141SAPE  C21315408   4.185   0.635   9.664 -0.6340  0.3786  0.1546
  141SAPE  H13R15409   4.162   0.686   9.568  1.5884 -1.8839 -1.6305
  141SAPE  H13S15410   4.107   0.670   9.735 -0.7297  0.6868 -0.0991
  141SAPE  C21415411   4.211   0.487   9.656  0.3343  0.0842 -0.1326
  141SAPE  H14R15412   4.210   0.428   9.749 -2.1818  2.8513  1.7109
  141SAPE  C21515413   4.215   0.412   9.543 -0.3555  0.0435 -0.4915
  141SAPE  H15R15414   4.240   0.305   9.557  0.2511 -0.0642 -2.3866
  141SAPE  C21615415   4.203   0.458   9.401  0.0359  0.0397 -0.5999
  141SAPE  H16R15416   4.156   0.558   9.405 -3.3643 -1.5623  2.1755
  141SAPE  H16S15417   4.139   0.389   9.341  0.9136  0.1422 -1.6924
  141SAPE  C21715418   4.330   0.455   9.322 -0.0710 -0.5222  0.0330
  141SAPE  H17R15419   4.411   0.393   9.367  0.1198  0.5511  1.2236
  141SAPE  H17S15420   4.375   0.556   9.321  0.5963 -0.8060  0.6934
  141SAPE  C21815421   4.319   0.416   9.178 -0.1947 -0.5771  0.7717
  141SAPE  H18R15422   4.251   0.493   9.135  1.8233  1.9157  1.9187
  141SAPE  H18S15423   4.265   0.319   9.176  1.1739 -1.3603  1.3150
  141SAPE  C21915424   4.446   0.418   9.100 -0.2359 -0.5521  0.3476
  141SAPE  H19R15425   4.524   0.354   9.146  1.6772 -0.3435 -2.4912
  141SAPE  H19S15426   4.490   0.520   9.088 -2.7950  0.4170 -1.0964
  141SAPE  C22015427   4.407   0.360   8.955 -0.0117 -0.4273 -0.4023
  141SAPE  H20R15428   4.490   0.352   8.881 -0.2904  0.7795 -0.8570
  141SAPE  H20S15429   4.335   0.422   8.899 -1.0126 -1.8261 -0.6819
  141SAPE  H20T15430   4.357   0.261   8.966 -0.5132 -0.0242  1.1805
  141SAPE   C3315431   4.438   0.465  10.150  0.5820 -0.8631 -0.5004
  141SAPE   H3X15432   4.545   0.436  10.139  1.4587  3.0508 -3.5579
  141SAPE   H3Y15433   4.417   0.572  10.169 -0.1667 -1.0015 -0.5596
  141SAPE   C3415434   4.366   0.404  10.023  0.0108  0.2099 -0.1224
  141SAPE   H4X15435   4.427   0.427   9.933 -1.3857  1.7311 -0.6944
  141SAPE   H4Y15436   4.272   0.463  10.034  0.5885  1.0231  0.6082
  141SAPE   C3515437   4.359   0.253  10.031 -0.3502 -0.9722 -0.1567
  141SAPE   H5X15438   4.292   0.215  10.110 -0.7428  1.6684  0.8340
  141SAPE   H5Y15439   4.459   0.203  10.032 -1.2112 -2.7068  0.9056
  141SAPE   C3615440   4.320   0.195   9.891 -0.2288 -1.0134 -0.0013
  141SAPE   H6X15441   4.400   0.230   9.821  0.6641  1.4071  2.1272
  141SAPE   H6Y15442   4.228   0.241   9.850  0.3355  0.2274  0.1078
  141SAPE   C3715443   4.289   0.047   9.897 -0.1480 -0.3717  0.3450
  141SAPE   H7X15444   4.206   0.036   9.971  0.1102  0.4667  0.7678
  141SAPE   H7Y15445   4.383  -0.004   9.927  1.3637  3.5868  2.7101
  141SAPE   C3815446   4.255  -0.005   9.759  0.2754  0.4670 -0.0096
  141SAPE   H8X15447   4.155   0.035   9.731 -0.2643 -0.4167  0.6189
  141SAPE   H8Y15448   4.256  -0.115   9.776  1.2780  0.6176  0.9220
  141SAPE   C3915449   4.355   0.026   9.650 -0.2765 -0.1263  0.3664
  141SAPE   H9X15450   4.454  -0.009   9.687 -0.2249 -0.8187 -0.4111
  141SAPE   H9Y15451   4.373   0.134   9.627 -0.8568  0.2505  1.6486
  141SAPE  C31015452   4.322  -0.041   9.517 -0.3157 -0.2270 -0.2870
  141SAPE  H10X15453   4.212  -0.041   9.502 -0.2570  2.9983 -1.1200
  141SAPE  H10Y15454   4.364  -0.140   9.544  0.3211  0.1123 -0.0117
  141SAPE  C31115455   4.382   0.027   9.394 -0.5868 -0.1373  0.2435
  141SAPE  H11X15456   4.488   0.059   9.409 -0.8318  1.1283 -0.6242
  141SAPE  H11Y15457   4.321   0.118   9.376  2.3579  1.8527 -0.1964
  141SAPE  C31215458   4.369  -0.055   9.266 -0.3035  0.4241  0.1086
  141SAPE  H12X15459   4.260  -0.070   9.252 -0.9970  1.6796  3.5653
  141SAPE  H12Y15460   4.422  -0.153   9.262  0.6619  0.9882 -1.3886
  141SAPE  C31315461   4.427   0.026   9.150  0.2361 -0.5419 -0.4043
  141SAPE  H13X15462   4.529   0.063   9.173 -0.4372  0.3404  1.2618
  141SAPE  H13Y15463   4.367   0.119   9.141 -1.1264 -0.9882  3.2187
  141SAPE  C31415464   4.421  -0.042   9.010 -0.4974 -0.1145 -0.7304
  141SAPE  H14X15465   4.463  -0.145   9.007  0.0780  0.0930  0.0219
  141SAPE  H14Y15466   4.482   0.011   8.933  1.3920 -0.5000  0.4677
  141SAPE  C31515467   4.282  -0.040   8.952  0.0944 -0.0449 -0.1360
  141SAPE  H15X15468   4.239   0.061   8.938 -0.6149 -0.2661  0.3841
  141SAPE  H15Y15469   4.214  -0.086   9.027 -0.4325 -1.2090 -1.3119
  141SAPE  C31615470   4.278  -0.128   8.826  0.0880 -0.8306  0.1966
  141SAPE  H16X15471   4.318  -0.224   8.864 -0.6037 -1.3804 -0.4585
  141SAPE  H16Y15472   4.342  -0.088   8.744  0.9703  0.6998  1.5978
  141SAPE  C31715473   4.133  -0.129   8.781 -0.3795 -0.3711 -0.1381
  141SAPE  H17X15474   4.075  -0.034   8.772  1.6539  0.9798  0.4925
  141SAPE  H17Y15475   4.062  -0.175   8.853  0.0404  0.4632  0.8324
  141SAPE  C31815476   4.123  -0.202   8.652 -0.3868  0.8767  0.5931
  141SAPE  H18X15477   4.157  -0.134   8.571  0.5614 -0.6142 -0.2843
  141SAPE  H18Y15478   4.019  -0.238   8.635  0.5740 -1.9942  0.4395
  141SAPE  H18Z15479   4.190  -0.290   8.640  0.5550  1.7451 -0.5655
  142SAPE     N15480   3.956   0.328  11.190  0.3979 -0.2408  0.1066
  142SAPE   HN115481   3.939   0.393  11.110 -1.6132 -1.0655 -0.1605
  142SAPE   HN215482   3.943   0.233  11.150 -2.8330 -0.3533  1.2825
  142SAPE   HN315483   3.888   0.348  11.266 -1.4113 -0.7745 -1.3073
  142SAPE   C1215484   4.100   0.352  11.233 -0.4327  0.2861 -0.2930
  142SAPE  H12A15485   4.120   0.293  11.325 -0.5712  0.8805  0.1231
  142SAPE  H12B15486   4.118   0.462  11.238 -0.1271  0.2627 -0.8902
  142SAPE   C1115487   4.195   0.301  11.122  0.0919  0.2581 -0.2208
  142SAPE  H11A15488   4.172   0.350  11.025  0.6373  1.5831  0.3091
  142SAPE  H11B15489   4.179   0.193  11.104  0.1561 -0.2654  2.6204
  142SAPE     P15490   4.420   0.435  11.105 -0.3364 -0.0547 -0.1736
  142SAPE   O1315491   4.346   0.565  11.100  0.0681  0.2470 -0.5595
  142SAPE   O1415492   4.549   0.442  11.171 -0.3023 -0.4027  0.0773
  142SAPE   O1215493   4.329   0.324  11.173 -0.0442  0.2681 -0.7208
  142SAPE   O1115494   4.434   0.372  10.956 -0.3349 -0.2431 -0.6006
  142SAPE    C115495   4.454   0.229  10.956  0.4232 -0.3303  0.4341
  142SAPE    HA15496   4.535   0.206  11.029  2.4880  1.8894 -1.0964
  142SAPE    HB15497   4.366   0.174  10.996 -0.3529  0.9960  0.5629
  142SAPE    C215498   4.477   0.172  10.816 -0.3822 -0.0476 -0.0969
  142SAPE    HS15499   4.570   0.214  10.772 -0.0029 -1.0475 -0.2783
  142SAPE   O2115500   4.352   0.179  10.739 -0.4628 -0.6516  0.3004
  142SAPE   C2115501   4.362   0.166  10.609  0.4455  0.0416 -0.2752
  142SAPE   O2215502   4.462   0.165  10.542  0.1596 -0.5314  0.2255
  142SAPE   C2215503   4.228   0.176  10.550  1.0238  0.2161  0.8101
  142SAPE   H2R15504   4.161   0.234  10.616 -3.2959 -2.4329 -1.0046
  142SAPE   H2S15505   4.240   0.224  10.451  2.2639 -0.5929  0.5534
  142SAPE    C315506   4.518   0.020  10.829  0.6877 -0.5049  0.3916
  142SAPE    HX15507   4.424  -0.040  10.829  1.4265 -1.6950 -0.7611
  142SAPE    HY15508   4.581   0.008  10.920 -1.1012 -3.5621  1.3060
  142SAPE   O3115509   4.604  -0.014  10.714 -0.1846  0.2287  0.3003
  142SAPE   C3115510   4.657  -0.132  10.709 -0.5118  0.2967  0.1275
  142SAPE   O3215511   4.647  -0.221  10.795  0.4432 -0.6544  0.5073
  142SAPE   C3215512   4.726  -0.152  10.574  0.4536  0.5677  0.7588
  142SAPE   H2X15513   4.725  -0.057  10.516  1.2482 -0.0699 -0.3030
  142SAPE   H2Y15514   4.656  -0.218  10.518  1.2749  0.5397 -0.2343
  142SAPE   C2315515   4.143   0.039  10.545  0.0072  0.5013  0.4157
  142SAPE   H3R15516   4.036   0.064  10.562 -0.2627 -1.1695  1.1882
  142SAPE   H3S15517   4.174  -0.018  10.634  0.2013 -1.2575 -0.7544
  142SAPE   C2415518   4.154  -0.037  10.411  0.1934 -0.6196  0.0780
  142SAPE   H4R15519   4.190   0.019  10.322 -0.9111 -2.4807 -1.5952
  142SAPE   H4S15520   4.048  -0.067  10.395 -0.4869  1.4928  0.5763
  142SAPE   C2515521   4.244  -0.156  10.432  0.6981 -0.1124  0.2046
  142SAPE   H5R15522   4.221  -0.209  10.525  1.4571 -0.2948  0.2933
  142SAPE   C2615523   4.350  -0.187  10.355 -0.3968 -0.2452 -0.0321
  142SAPE   H6R15524   4.407  -0.276  10.386  0.5108 -0.0706 -1.1623
  142SAPE   C2715525   4.401  -0.112  10.235  0.3744 -0.0050 -0.0208
  142SAPE   H7R15526   4.394  -0.002  10.249  3.0673  0.5393 -2.5612
  142SAPE   H7S15527   4.326  -0.136  10.156  0.1274  0.1794  0.1600
  142SAPE   C2815528   4.540  -0.153  10.188 -0.4819 -0.1023 -0.6931
  142SAPE   H8R15529   4.624  -0.109  10.244 -0.7377  0.4337 -0.7310
  142SAPE   C2915530   4.571  -0.228  10.080  0.3433 -0.3203 -0.8715
  142SAPE   H9R15531   4.676  -0.247  10.051 -0.1671 -2.4650 -1.4354
  142SAPE  C21015532   4.471  -0.284   9.987  0.1375 -0.2300 -0.0643
  142SAPE  H10R15533   4.371  -0.236   9.976  0.7861  0.8290 -1.7278
  142SAPE  H10S15534   4.454  -0.387  10.025 -1.5423  0.3105  0.6926
  142SAPE  C21115535   4.541  -0.274   9.848  0.2183 -0.2484  0.1446
  142SAPE  H11R15536   4.567  -0.175   9.809 -1.4909  0.2771  0.2848
  142SAPE  C21215537   4.566  -0.381   9.771  0.8056 -0.3145 -0.3810
  142SAPE  H12R15538   4.622  -0.371   9.678  1.3309 -0.3315 -0.0669
  142SAPE  C21315539   4.540  -0.526   9.799  0.6445  0.0019  0.7287
  142SAPE  H13R15540   4.497  -0.536   9.901 -1.2530 -2.7306 -0.2743
  142SAPE  H13S15541   4.633  -0.587   9.789  0.5729 -0.0921  0.6405
  142SAPE  C21415542   4.415  -0.568   9.718 -0.2465  0.2215 -0.1636
  142SAPE  H14R15543   4.365  -0.494   9.654 -1.7758 -0.4644  0.2180
  142SAPE  C21515544   4.376  -0.694   9.722 -0.3963 -0.1090  0.2347
  142SAPE  H15R15545   4.284  -0.725   9.670  0.4204  2.2060 -2.7309
  142SAPE  C21615546   4.449  -0.811   9.795 -0.5202  0.6339 -0.2535
  142SAPE  H16R15547   4.518  -0.777   9.875  0.4010  2.2295 -1.6982
  142SAPE  H16S15548   4.518  -0.857   9.721 -0.6401 -0.3505  0.2328
  142SAPE  C21715549   4.342  -0.921   9.832  0.2618  0.7373  0.0267
  142SAPE  H17R15550   4.379  -1.025   9.848 -0.4481  0.4324 -0.3071
  142SAPE  H17S15551   4.268  -0.936   9.751  1.6839 -0.1319 -1.1274
  142SAPE  C21815552   4.268  -0.872   9.963  0.4617 -0.3783  0.4682
  142SAPE  H18R15553   4.234  -0.767   9.964  1.3285 -0.0834 -0.0320
  142SAPE  H18S15554   4.347  -0.881  10.041  0.3147 -0.5428  0.6010
  142SAPE  C21915555   4.152  -0.967  10.000  0.1468 -0.7080  0.2159
  142SAPE  H19R15556   4.083  -0.946   9.916 -0.2029  1.6875  1.0706
  142SAPE  H19S15557   4.116  -0.921  10.095  1.5693  2.0436 -0.5297
  142SAPE  C22015558   4.191  -1.114  10.002 -0.6132 -0.0296  0.0925
  142SAPE  H20R15559   4.254  -1.143  10.089 -0.7997 -1.4890 -0.2517
  142SAPE  H20S15560   4.231  -1.150   9.905  1.0347  0.0362  0.7392
  142SAPE  H20T15561   4.101  -1.179  10.006 -1.5960  1.2193 -1.1064
  142SAPE   C3315562   4.862  -0.217  10.578 -0.3172 -0.1407  0.0761
  142SAPE   H3X15563   4.866  -0.302  10.649 -0.2475  0.0095  0.2483
  142SAPE   H3Y15564   4.942  -0.158  10.627  0.2952 -0.8616 -0.0407
  142SAPE   C3415565   4.910  -0.284  10.445  0.1115  0.0020  0.8684
  142SAPE   H4X15566   4.838  -0.365  10.419  1.4752 -0.3474 -2.0394
  142SAPE   H4Y15567   5.009  -0.335  10.451 -0.3653 -1.0892 -0.3134
  142SAPE   C3515568   4.911  -0.175  10.340  0.2645  0.2037 -0.1013
  142SAPE   H5X15569   4.985  -0.097  10.368 -0.6383  0.9804  0.1695
  142SAPE   H5Y15570   4.814  -0.123  10.327 -0.5987 -1.0675  1.0703
  142SAPE   C3615571   4.947  -0.234  10.202  0.2284  0.1013  0.4599
  142SAPE   H6X15572   4.878  -0.313  10.167 -2.5131  3.1728 -1.3354
  142SAPE   H6Y15573   5.039  -0.296  10.208  0.0718 -0.1028  0.7995
  142SAPE   C3715574   4.951  -0.132  10.089  0.2016 -0.7280  0.1186
  142SAPE   H7X15575   5.022  -0.050  10.115  1.2815 -0.1098 -4.3583
  142SAPE   H7Y15576   4.854  -0.078  10.092  2.1321  2.9904 -0.2617
  142SAPE   C3815577   4.978  -0.187   9.946  0.1957  0.1442 -0.5569
  142SAPE   H8X15578   4.913  -0.278   9.945 -0.2183  0.3357  2.6481
  142SAPE   H8Y15579   5.077  -0.237   9.940 -0.4925 -1.7768  2.7522
  142SAPE   C3915580   4.946  -0.097   9.824  0.2766  0.3787  0.6378
  142SAPE   H9X15581   5.030  -0.028   9.802  0.5529  0.1022  0.8391
  142SAPE   H9Y15582   4.850  -0.050   9.856 -0.4985 -2.0625  1.9786
  142SAPE  C31015583   4.927  -0.187   9.700  1.1282 -0.3408 -0.3608
  142SAPE  H10X15584   4.859  -0.271   9.723 -1.9132  1.6373 -1.7548
  142SAPE  H10Y15585   5.028  -0.231   9.684  0.4140 -2.0468 -0.2743
  142SAPE  C31115586   4.882  -0.108   9.574  0.9296 -0.4206  0.0230
  142SAPE  H11X15587   4.948  -0.019   9.565 -1.2256  1.0961 -1.0287
  142SAPE  H11Y15588   4.780  -0.068   9.589  1.0169 -0.4345  0.6817
  142SAPE  C31215589   4.905  -0.182   9.438 -0.0100  0.1346 -0.7633
  142SAPE  H12X15590   4.839  -0.272   9.433 -2.8468  2.0566  0.6879
  142SAPE  H12Y15591   5.010  -0.218   9.441  0.8593  2.6877  0.1725
  142SAPE  C31315592   4.886  -0.097   9.311 -0.3465  0.4797  0.0112
  142SAPE  H13X15593   4.952  -0.009   9.323  0.5843 -0.4691  2.2658
  142SAPE  H13Y15594   4.779  -0.070   9.309 -1.0984 -2.1984  1.4850
  142SAPE  C31415595   4.912  -0.166   9.179  0.2581  0.2187 -0.6029
  142SAPE  H14X15596   4.841  -0.249   9.158 -0.7828  0.9212  0.1246
  142SAPE  H14Y15597   5.018  -0.200   9.180  0.9202  2.1976  1.7443
  142SAPE  C31515598   4.913  -0.065   9.061  0.4260  0.0404  0.8321
  142SAPE  H15X15599   4.971   0.026   9.090 -0.7000  1.3499 -0.8999
  142SAPE  H15Y15600   4.806  -0.034   9.063 -0.3192 -2.4946  1.0003
  142SAPE  C31615601   4.944  -0.117   8.917  0.0758  0.0196  0.0654
  142SAPE  H16X15602   4.869  -0.081   8.843 -0.1981  0.2933  0.4772
  142SAPE  H16Y15603   4.945  -0.228   8.923 -1.3872 -0.0503 -0.7779
  142SAPE  C31715604   5.075  -0.063   8.856 -0.2007 -0.2572  0.1108
  142SAPE  H17X15605   5.161  -0.109   8.909  0.4775  0.6417 -0.2010
  142SAPE  H17Y15606   5.078   0.045   8.883  0.6749 -0.5046  1.0432
  142SAPE  C31815607   5.063  -0.057   8.702 -1.2185 -0.1366 -0.7657
  142SAPE  H18X15608   5.159  -0.018   8.662 -1.4899 -0.3730 -1.6664
  142SAPE  H18Y15609   4.984   0.016   8.673 -1.5281 -0.2013 -0.1090
  142SAPE  H18Z15610   5.039  -0.154   8.653 -0.6840  0.2080 -1.7105
  143SAPE     N15611   0.047   6.567  10.920 -0.1121  0.2433 -0.3637
  143SAPE   HN115612  -0.047   6.581  10.878 -0.6800 -2.3517 -0.0282
  143SAPE   HN215613   0.116   6.642  10.899 -0.9274  0.7048 -1.4689
  143SAPE   HN315614   0.065   6.473  10.881 -1.3168 -0.4634  0.7519
  143SAPE   C1215615   0.028   6.564  11.065  0.0123 -0.3998  0.0191
  143SAPE  H12A15616  -0.038   6.481  11.099  0.2994 -0.5111  0.2963
  143SAPE  H12B15617  -0.012   6.664  11.093 -0.9565 -1.0062  0.8749
  143SAPE   C1115618   0.166   6.550  11.132  0.4946 -0.2789 -0.1870
  143SAPE  H11A15619   0.144   6.566  11.240 -0.5787  0.8884 -0.5680
  143SAPE  H11B15620   0.240   6.627  11.102  1.1014 -1.1979 -1.1212
  143SAPE     P15621   0.165   6.282  11.169 -0.0733 -0.2109  0.3074
  143SAPE   O1315622   0.278   6.190  11.166  0.0393  0.4390 -0.6800
  143SAPE   O1415623   0.099   6.317  11.300 -0.1641  0.3611  0.3478
  143SAPE   O1215624   0.225   6.417  11.117 -0.2784  0.3329 -0.2965
  143SAPE   O1115625   0.055   6.244  11.064 -0.2481  0.1601 -0.2044
  143SAPE    C115626  -0.025   6.122  11.074  0.5710  0.7234 -0.1809
  143SAPE    HA15627   0.050   6.041  11.062  2.7904  2.4969  1.2109
  143SAPE    HB15628  -0.075   6.119  11.172  4.1106 -4.0842  1.6823
  143SAPE    C215629  -0.128   6.129  10.959  0.0706  0.9285  1.0625
  143SAPE    HS15630  -0.190   6.037  10.964  1.8540 -0.2643  1.4009
  143SAPE   O2115631  -0.060   6.148  10.839 -0.1209 -0.3836 -0.2829
  143SAPE   C2115632  -0.099   6.093  10.729  0.0122 -0.4287 -0.3366
  143SAPE   O2215633  -0.180   6.002  10.724 -0.0242  0.1709  0.0411
  143SAPE   C2215634  -0.021   6.151  10.615  0.4884  0.0353 -0.7518
  143SAPE   H2R15635  -0.028   6.262  10.609 -0.1320  0.1243  1.2244
  143SAPE   H2S15636   0.086   6.133  10.636  0.1740 -1.1794 -0.1778
  143SAPE    C315637  -0.237   6.235  10.979 -0.1813  0.6795  0.0921
  143SAPE    HX15638  -0.187   6.334  10.983  1.3562 -0.1481  2.4302
  143SAPE    HY15639  -0.287   6.226  11.078  2.3100  0.1007  1.3394
  143SAPE   O3115640  -0.327   6.234  10.869 -0.4109  0.0624  0.4380
  143SAPE   C3115641  -0.450   6.208  10.892  0.7123  0.1403  1.0372
  143SAPE   O3215642  -0.497   6.171  10.997 -0.1621 -0.2758 -0.0903
  143SAPE   C3215643  -0.518   6.212  10.754  0.0951  0.3672  0.6510
  143SAPE   H2X15644  -0.441   6.163  10.690 -0.2661  1.3455 -0.5516
  143SAPE   H2Y15645  -0.531   6.319  10.728 -5.5353  0.2146  2.3831
  143SAPE   C2315646  -0.043   6.075  10.477 -0.4761  0.5439  0.0182
  143SAPE   H3R15647  -0.109   5.986  10.483 -0.7579  0.8302  1.4348
  143SAPE   H3S15648   0.059   6.037  10.454 -0.5760 -0.1078  0.6325
  143SAPE   C2415649  -0.091   6.157  10.354  0.9677  0.2619  0.4924
  143SAPE   H4R15650  -0.081   6.106  10.256 -0.7108  2.0308 -0.6201
  143SAPE   H4S15651  -0.024   6.245  10.338  0.1004  0.3462 -3.2504
  143SAPE   C2515652  -0.226   6.210  10.367 -0.2336 -0.5227  0.4742
  143SAPE   H5R15653  -0.232   6.300  10.430  0.8782 -0.0440 -0.0968
  143SAPE   C2615654  -0.334   6.165  10.299  0.9451 -0.4035 -0.1049
  143SAPE   H6R15655  -0.432   6.214  10.308  0.3847 -1.5423  0.1317
  143SAPE   C2715656  -0.348   6.050  10.202 -0.1628 -0.8987  0.5334
  143SAPE   H7R15657  -0.293   5.960  10.237  2.9424  1.4324  1.9160
  143SAPE   H7S15658  -0.301   6.081  10.106 -0.5921 -0.9655  0.3060
  143SAPE   C2815659  -0.488   6.012  10.168  0.2394  0.0890  0.6277
  143SAPE   H8R15660  -0.556   5.989  10.251 -0.2432 -1.2481 -0.1210
  143SAPE   C2915661  -0.542   5.996  10.044  0.4041  0.7948  0.5541
  143SAPE   H9R15662  -0.646   5.965  10.029  0.9531  0.1569 -2.1254
  143SAPE  C21015663  -0.476   6.009   9.913 -0.2451 -0.2684 -0.2379
  143SAPE  H10R15664  -0.365   6.018   9.918 -0.2952 -0.6367  1.9668
  143SAPE  H10S15665  -0.524   6.093   9.859 -0.8135 -0.2772  0.2522
  143SAPE  C21115666  -0.479   5.885   9.831 -0.5056 -0.4340 -0.4656
  143SAPE  H11R15667  -0.446   5.795   9.886  0.8737  0.3362 -0.0251
  143SAPE  C21215668  -0.505   5.871   9.699 -0.1241 -0.7264 -0.4076
  143SAPE  H12R15669  -0.513   5.767   9.662  2.4441 -1.2793  0.5353
  143SAPE  C21315670  -0.548   5.978   9.605  0.2465 -0.1237  0.5806
  143SAPE  H13R15671  -0.472   5.981   9.524 -0.7412 -0.2851 -0.3565
  143SAPE  H13S15672  -0.544   6.083   9.641  1.1149  0.6065 -1.5403
  143SAPE  C21415673  -0.685   5.958   9.542 -0.1625  0.2788  0.2079
  143SAPE  H14R15674  -0.765   5.969   9.617 -0.1288 -1.8222  0.5884
  143SAPE  C21515675  -0.708   5.906   9.416  0.3866 -0.2076  0.1915
  143SAPE  H15R15676  -0.808   5.884   9.376  0.3305  1.6757 -0.7812
  143SAPE  C21615677  -0.600   5.863   9.321  0.5850 -0.1719  0.1022
  143SAPE  H16R15678  -0.591   5.752   9.319  4.7756  0.0760 -2.6708
  143SAPE  H16S15679  -0.496   5.881   9.358  0.6734 -0.1187 -0.1660
  143SAPE  C21715680  -0.613   5.923   9.174  0.5298 -0.1921  0.2756
  143SAPE  H17R15681  -0.520   5.896   9.119  0.7286  3.6690 -1.3975
  143SAPE  H17S15682  -0.620   6.033   9.181  0.3863 -0.3124  2.3910
  143SAPE  C21815683  -0.736   5.873   9.099 -0.1105  0.2017 -0.4101
  143SAPE  H18R15684  -0.826   5.908   9.155 -0.9441 -1.2096 -0.8520
  143SAPE  H18S15685  -0.724   5.763   9.113  0.7276  0.0093 -2.5432
  143SAPE  C21915686  -0.752   5.920   8.953 -0.4477  0.0874 -0.3123
  143SAPE  H19R15687  -0.655   5.893   8.906  0.0216  0.5040  0.4161
  143SAPE  H19S15688  -0.761   6.031   8.962  1.8416  0.4450 -1.9215
  143SAPE  C22015689  -0.873   5.844   8.880 -0.4612 -0.1453  0.2581
  143SAPE  H20R15690  -0.961   5.889   8.930 -0.3188  1.6612 -1.0580
  143SAPE  H20S15691  -0.849   5.738   8.898  2.5173 -0.1559 -3.2732
  143SAPE  H20T15692  -0.867   5.861   8.770 -0.4762 -0.3603  0.2243
  143SAPE   C3315693  -0.654   6.134  10.748 -0.7238  0.3426  0.1347
  143SAPE   H3X15694  -0.713   6.169  10.834  1.0832  1.6851  0.8534
  143SAPE   H3Y15695  -0.634   6.024  10.756 -3.0087 -0.1084 -0.1072
  143SAPE   C3415696  -0.725   6.164  10.614  0.7294  0.0232 -0.2013
  143SAPE   H4X15697  -0.674   6.121  10.525  1.7732  1.5497 -0.3629
  143SAPE   H4Y15698  -0.737   6.273  10.597  2.4493  0.0891 -1.0560
  143SAPE   C3515699  -0.865   6.097  10.603 -0.4033 -0.0368  0.3136
  143SAPE   H5X15700  -0.935   6.155  10.667 -0.1357 -0.0189  0.5902
  143SAPE   H5Y15701  -0.856   5.997  10.650 -1.6231 -0.5363 -0.4775
  143SAPE   C3615702  -0.923   6.095  10.462 -0.5404 -0.5301 -0.0830
  143SAPE   H6X15703  -0.921   6.193  10.411  1.3620  0.0552  1.0796
  143SAPE   H6Y15704  -1.026   6.057  10.481 -0.6444  0.6593  1.8320
  143SAPE   C3715705  -0.869   5.986  10.378 -0.2093  0.2422  0.1295
  143SAPE   H7X15706  -0.842   5.894  10.433  1.7793  1.2008  0.8075
  143SAPE   H7Y15707  -0.777   6.024  10.328  0.1469  0.2098  0.7630
  143SAPE   C3815708  -0.961   5.951  10.265 -0.4899 -0.3708  0.4229
  143SAPE   H8X15709  -0.999   6.040  10.210 -2.1720 -1.0167  0.4837
  143SAPE   H8Y15710  -1.056   5.903  10.298  0.1813 -0.5552  2.1136
  143SAPE   C3915711  -0.909   5.845  10.167  0.0022 -0.3335 -0.3379
  143SAPE   H9X15712  -0.875   5.756  10.224  1.3193 -0.5047 -1.3624
  143SAPE   H9Y15713  -0.820   5.886  10.114 -0.3138 -0.8148 -1.2570
  143SAPE  C31015714  -1.005   5.798  10.059  0.0713 -0.0432 -0.3813
  143SAPE  H10X15715  -1.053   5.890  10.016  0.2869  1.0041  1.5637
  143SAPE  H10Y15716  -1.076   5.725  10.102 -0.1783  0.1841 -0.4018
  143SAPE  C31115717  -0.932   5.728   9.937 -0.0332  0.6365 -0.2896
  143SAPE  H11X15718  -0.924   5.617   9.944 -0.7480  0.5335 -1.0992
  143SAPE  H11Y15719  -0.830   5.774   9.934  0.5975 -0.6125  1.1379
  143SAPE  C31215720  -1.010   5.762   9.803 -0.6890  0.5107 -0.2332
  143SAPE  H12X15721  -1.035   5.870   9.809 -0.0610  0.6293  0.2831
  143SAPE  H12Y15722  -1.111   5.716   9.799 -0.1412 -0.6469 -1.0204
  143SAPE  C31315723  -0.937   5.721   9.682  0.0766 -0.5234 -0.0021
  143SAPE  H13X15724  -0.827   5.722   9.698  0.6308 -0.3981 -3.3694
  143SAPE  H13Y15725  -0.968   5.796   9.606  1.4375 -0.1413 -0.2057
  143SAPE  C31415726  -0.972   5.581   9.617  0.4956 -0.3393 -0.1332
  143SAPE  H14X15727  -1.081   5.566   9.628  0.6134  0.3789  2.1260
  143SAPE  H14Y15728  -0.922   5.508   9.685  0.5981 -1.8430 -1.7579
  143SAPE  C31515729  -0.914   5.555   9.472 -0.9221  0.3265  0.1772
  143SAPE  H15X15730  -0.907   5.445   9.458  1.3717  0.1175  2.5360
  143SAPE  H15Y15731  -0.816   5.606   9.462 -0.2723 -1.0696 -0.7672
  143SAPE  C31615732  -1.009   5.630   9.370  0.2698  0.3157 -0.2257
  143SAPE  H16X15733  -1.002   5.739   9.388 -3.1296  0.6554 -0.7006
  143SAPE  H16Y15734  -1.116   5.612   9.393  0.1324 -0.5154 -1.4851
  143SAPE  C31715735  -0.984   5.599   9.227  0.0219 -0.4258 -0.3062
  143SAPE  H17X15736  -0.877   5.625   9.210  0.2544  1.1186  3.1463
  143SAPE  H17Y15737  -1.042   5.674   9.169 -1.2393  1.0031  2.6883
  143SAPE  C31815738  -1.005   5.452   9.191 -0.3137 -0.7558 -1.2351
  143SAPE  H18X15739  -1.111   5.425   9.210 -1.5974  4.0314 -0.8783
  143SAPE  H18Y15740  -0.945   5.378   9.248 -0.9863 -0.5825 -0.2978
  143SAPE  H18Z15741  -0.998   5.445   9.080 -0.4090  1.9527 -1.4449
  144SAPE     N15742   2.375   4.484  11.200 -0.0672 -0.0059  0.1178
  144SAPE   HN115743   2.388   4.399  11.142 -1.2949  1.4858 -2.4348
  144SAPE   HN215744   2.467   4.521  11.231  0.1122  1.0007 -1.5344
  144SAPE   HN315745   2.340   4.461  11.295 -2.1737  2.3300 -0.0374
  144SAPE   C1215746   2.286   4.586  11.140 -1.0784 -0.3606  0.1576
  144SAPE  H12A15747   2.348   4.653  11.077 -0.5691 -1.9646 -1.0642
  144SAPE  H12B15748   2.255   4.652  11.225  0.0392 -2.3211  2.1532
  144SAPE   C1115749   2.167   4.526  11.059  0.3710 -0.2099 -0.4785
  144SAPE  H11A15750   2.116   4.618  11.025  0.2006  0.7256  2.2270
  144SAPE  H11B15751   2.099   4.474  11.130 -1.1920  0.7381 -1.2538
  144SAPE     P15752   2.217   4.284  10.961 -0.0887 -0.0339 -0.1635
  144SAPE   O1315753   2.332   4.258  11.052 -0.5158  0.4927  0.0851
  144SAPE   O1415754   2.093   4.211  11.008  0.0385  0.0190  0.0275
  144SAPE   O1215755   2.200   4.443  10.956  0.0607 -0.0429 -0.4527
  144SAPE   O1115756   2.255   4.239  10.809 -0.2202  0.3419 -0.1227
  144SAPE    C115757   2.137   4.220  10.721  0.7259 -0.2056 -0.2192
  144SAPE    HA15758   2.076   4.133  10.754 -1.3353  0.1190 -3.0222
  144SAPE    HB15759   2.068   4.307  10.720 -2.5951 -2.7198 -3.3223
  144SAPE    C215760   2.175   4.186  10.581 -0.0699  0.0549 -0.2785
  144SAPE    HS15761   2.243   4.098  10.592  0.9272  0.6958 -1.2618
  144SAPE   O2115762   2.258   4.286  10.517 -0.1202  0.1236 -0.1121
  144SAPE   C2115763   2.198   4.396  10.485 -0.5431 -0.4306 -0.6926
  144SAPE   O2215764   2.085   4.438  10.514 -0.2180 -0.2717  0.0692
  144SAPE   C2215765   2.298   4.482  10.395 -0.2589 -0.4626  0.0197
  144SAPE   H2R15766   2.242   4.578  10.393 -0.3828 -0.5177  0.9182
  144SAPE   H2S15767   2.399   4.480  10.441 -0.3475 -0.2250  0.2191
  144SAPE    C315768   2.053   4.139  10.498  0.5072 -0.3140 -0.3541
  144SAPE    HX15769   1.974   4.216  10.491  2.1877  1.6200  1.4511
  144SAPE    HY15770   2.004   4.051  10.545 -0.9008  0.1844 -0.8585
  144SAPE   O3115771   2.091   4.115  10.362  0.1326  0.5909  0.0672
  144SAPE   C3115772   2.015   4.027  10.306  0.0488  0.4566  0.5715
  144SAPE   O3215773   1.926   3.957  10.358  0.9312 -0.1222 -0.4473
  144SAPE   C3215774   2.066   4.004  10.159 -0.3813  1.0907 -0.3655
  144SAPE   H2X15775   2.137   3.919  10.155 -1.3792  0.1459  1.6048
  144SAPE   H2Y15776   2.131   4.091  10.134 -0.5568  1.3123 -0.0577
  144SAPE   C2315777   2.338   4.422  10.245  0.2085 -0.5368 -0.3883
  144SAPE   H3R15778   2.387   4.323  10.253 -0.1542 -0.6896 -0.0764
  144SAPE   H3S15779   2.419   4.487  10.205  0.4261  1.7146  3.4082
  144SAPE   C2415780   2.218   4.408  10.152  0.0648 -0.2202  0.2401
  144SAPE   H4R15781   2.142   4.347  10.205 -1.6488  2.7547  1.2952
  144SAPE   H4S15782   2.245   4.346  10.063 -0.5238  0.8599 -0.7022
  144SAPE   C2515783   2.154   4.545  10.117 -0.9842  0.2880  0.1088
  144SAPE   H5R15784   2.093   4.585  10.200 -1.1878  0.7412 -0.2610
  144SAPE   C2615785   2.161   4.599   9.994 -0.2107 -0.1915 -0.0093
  144SAPE   H6R15786   2.109   4.696   9.986 -1.1262 -0.6150  0.6930
  144SAPE   C2715787   2.227   4.546   9.871 -0.2544  0.8028  0.1684
  144SAPE   H7R15788   2.305   4.472   9.899  1.7435  3.0371  0.6769
  144SAPE   H7S15789   2.285   4.630   9.827  0.1786  1.2102  1.4790
  144SAPE   C2815790   2.134   4.481   9.773  0.5292 -0.6306  0.4456
  144SAPE   H8R15791   2.084   4.390   9.811  1.1222 -1.6776 -1.2030
  144SAPE   C2915792   2.121   4.513   9.642 -0.0249  0.0326 -0.5818
  144SAPE   H9R15793   2.034   4.459   9.600 -1.2119  1.4169  0.0296
  144SAPE  C21015794   2.185   4.611   9.554  0.5294  0.8924 -0.5505
  144SAPE  H10R15795   2.263   4.672   9.605  1.2524 -0.7000  0.2984
  144SAPE  H10S15796   2.108   4.683   9.519  0.0223  0.0515 -1.1691
  144SAPE  C21115797   2.266   4.556   9.445 -0.2547  0.2196 -0.4904
  144SAPE  H11R15798   2.354   4.495   9.470 -0.5161  0.9049  2.2634
  144SAPE  C21215799   2.235   4.559   9.312  0.4703  0.2378  0.1551
  144SAPE  H12R15800   2.309   4.517   9.243  2.6695  0.0237  2.5896
  144SAPE  C21315801   2.115   4.621   9.248  0.5788  0.5157 -0.3456
  144SAPE  H13R15802   2.158   4.701   9.183  0.1384  0.5757 -0.5753
  144SAPE  H13S15803   2.051   4.671   9.324 -0.0655 -1.0659  0.1623
  144SAPE  C21415804   2.037   4.524   9.171  0.5036 -0.3919 -0.1998
  144SAPE  H14R15805   1.957   4.483   9.234  0.7921 -2.0649 -0.8962
  144SAPE  C21515806   2.039   4.480   9.045  0.9662  0.0735  0.2121
  144SAPE  H15R15807   1.961   4.412   9.008  1.4482  0.2490 -1.1546
  144SAPE  C21615808   2.149   4.510   8.944  0.1900 -0.3800  0.0543
  144SAPE  H16R15809   2.202   4.603   8.975 -2.0713  0.3682  1.8326
  144SAPE  H16S15810   2.090   4.519   8.850 -0.7602 -1.9912  0.4810
  144SAPE  C21715811   2.243   4.389   8.956 -0.6908 -0.5891  0.3142
  144SAPE  H17R15812   2.271   4.372   9.062 -2.1144 -0.7918  0.6731
  144SAPE  H17S15813   2.329   4.404   8.888  0.8337  3.0603  2.9009
  144SAPE  C21815814   2.188   4.261   8.890  0.5821 -0.3169  0.7589
  144SAPE  H18R15815   2.115   4.223   8.965 -0.7100  0.7133  0.0260
  144SAPE  H18S15816   2.251   4.171   8.872 -0.1958 -0.5760 -0.6724
  144SAPE  C21915817   2.101   4.269   8.763  0.0335 -0.5037 -0.3083
  144SAPE  H19R15818   2.153   4.335   8.690  0.9821 -2.5726 -1.5240
  144SAPE  H19S15819   2.000   4.303   8.794  0.7287  0.7111  0.6808
  144SAPE  C22015820   2.099   4.123   8.708 -0.1212 -0.2441  0.7044
  144SAPE  H20R15821   2.196   4.091   8.664  0.6753  3.5701 -0.5450
  144SAPE  H20S15822   2.034   4.104   8.620  0.0430 -0.5582  0.6512
  144SAPE  H20T15823   2.073   4.052   8.790 -1.3962  0.8930  1.3112
  144SAPE   C3315824   1.964   4.015  10.049  0.7095  0.1465 -0.9817
  144SAPE   H3X15825   1.910   4.112  10.056 -1.1968 -0.9927  0.2393
  144SAPE   H3Y15826   1.885   3.941  10.070 -0.8998  1.6446 -1.6229
  144SAPE   C3415827   2.030   3.994   9.916  0.3419  0.1391 -0.5295
  144SAPE   H4X15828   2.068   3.890   9.920 -1.5066 -0.4925  1.8223
  144SAPE   H4Y15829   2.109   4.070   9.898  0.6820 -0.4433 -1.5544
  144SAPE   C3515830   1.929   4.016   9.803  0.5890 -0.1896  0.1040
  144SAPE   H5X15831   1.832   4.053   9.842  1.0899 -0.7081  1.8917
  144SAPE   H5Y15832   1.907   3.918   9.755  0.2694 -0.0886  0.0467
  144SAPE   C3615833   1.988   4.102   9.692 -0.4899 -0.0824  0.3256
  144SAPE   H6X15834   2.088   4.060   9.668 -0.3401 -1.4901  3.2661
  144SAPE   H6Y15835   2.000   4.211   9.710 -0.7381 -0.0911  0.5504
  144SAPE   C3715836   1.911   4.084   9.563  0.3817 -0.0957 -0.1730
  144SAPE   H7X15837   1.806   4.119   9.569  0.0736 -1.0996  0.4661
  144SAPE   H7Y15838   1.902   3.975   9.543 -2.6367  0.2644 -0.9278
  144SAPE   C3815839   1.975   4.154   9.438  0.7652  0.0126 -0.5443
  144SAPE   H8X15840   2.083   4.129   9.432  0.7681 -0.2025  0.3925
  144SAPE   H8Y15841   1.970   4.265   9.438  0.8930  0.0292  0.8591
  144SAPE   C3915842   1.913   4.107   9.304 -0.8705 -0.5828 -0.6370
  144SAPE   H9X15843   1.903   3.997   9.305 -0.6904 -0.6257 -2.1128
  144SAPE   H9Y15844   1.986   4.128   9.222 -0.3749 -0.8321 -0.2630
  144SAPE  C31015845   1.795   4.196   9.265  0.4356 -1.2881 -0.6877
  144SAPE  H10X15846   1.796   4.305   9.285 -0.6294 -1.0484 -1.8408
  144SAPE  H10Y15847   1.704   4.174   9.325 -1.1555  0.7005 -2.2996
  144SAPE  C31115848   1.753   4.196   9.117 -0.1750  0.1986 -0.9090
  144SAPE  H11X15849   1.845   4.217   9.059  0.3871  0.6209  0.1279
  144SAPE  H11Y15850   1.674   4.271   9.096 -0.5012  0.0383 -0.2625
  144SAPE  C31215851   1.688   4.055   9.080  0.7207 -0.6010  0.2970
  144SAPE  H12X15852   1.595   4.056   9.140  0.1393  1.0436 -0.6065
  144SAPE  H12Y15853   1.755   3.971   9.107 -0.3343 -1.1459  1.2478
  144SAPE  C31315854   1.664   4.040   8.929 -0.0144  0.1894 -0.8149
  144SAPE  H13X15855   1.645   4.140   8.882  0.1713  1.2547  1.3441
  144SAPE  H13Y15856   1.572   3.978   8.918  0.8079 -0.7728 -2.4104
  144SAPE  C31415857   1.778   3.977   8.850 -0.4906  0.2778  0.5163
  144SAPE  H14X15858   1.807   3.873   8.877 -2.0318 -0.5479 -0.9296
  144SAPE  H14Y15859   1.863   4.046   8.870 -0.3354  0.4529 -0.7542
  144SAPE  C31515860   1.736   3.967   8.701 -0.2702 -0.5726  0.4106
  144SAPE  H15X15861   1.836   3.945   8.658 -0.2997  0.3109 -0.1223
  144SAPE  H15Y15862   1.708   4.065   8.656  1.3846  0.6288  1.9206
  144SAPE  C31615863   1.648   3.853   8.659  0.4546 -0.1982 -0.1162
  144SAPE  H16X15864   1.545   3.893   8.671  1.3666  2.7581 -1.6048
  144SAPE  H16Y15865   1.649   3.774   8.738 -1.7195  1.9925  2.1831
  144SAPE  C31715866   1.673   3.779   8.525 -0.1059  0.4775  0.5744
  144SAPE  H17X15867   1.783   3.766   8.510  0.0318  1.5849  0.5280
  144SAPE  H17Y15868   1.650   3.846   8.439 -1.7498 -1.8990 -0.9060
  144SAPE  C31815869   1.593   3.654   8.514  0.2938 -0.2783 -0.4323
  144SAPE  H18X15870   1.601   3.603   8.415 -1.3213  0.7386 -1.1193
  144SAPE  H18Y15871   1.483   3.661   8.532  0.3278 -0.1369 -0.2780
  144SAPE  H18Z15872   1.634   3.580   8.586  0.2004 -1.6988 -1.7976
  145SAPE     N15873   0.405   5.958  11.174  0.7316  0.0527  0.0036
  145SAPE   HN115874   0.505   5.981  11.189  0.1324  2.0058  1.2814
  145SAPE   HN215875   0.413   5.885  11.100  0.7542 -2.4656  2.4249
  145SAPE   HN315876   0.348   6.041  11.146  0.3592 -0.0162  0.5529
  145SAPE   C1215877   0.338   5.912  11.302  0.6658  0.4106  0.0762
  145SAPE  H12A15878   0.335   5.995  11.376  0.1321  0.5239 -0.0677
  145SAPE  H12B15879   0.393   5.825  11.344 -2.2827 -1.9890 -0.8519
  145SAPE   C1115880   0.192   5.881  11.263  0.3191 -0.1727  0.4208
  145SAPE  H11A15881   0.192   5.807  11.180  1.4472  0.5147 -0.2017
  145SAPE  H11B15882   0.152   5.981  11.235 -0.6129 -0.7095 -0.2131
  145SAPE     P15883  -0.032   5.882  11.413  0.0441 -0.3797  0.5125
  145SAPE   O1315884  -0.090   5.799  11.523 -0.6408  0.7166 -0.2224
  145SAPE   O1415885  -0.036   6.023  11.436 -0.1361  0.0801  0.2181
  145SAPE   O1215886   0.116   5.833  11.370 -0.9125 -0.0892 -0.5610
  145SAPE   O1115887  -0.114   5.861  11.279  0.1112 -0.1449 -0.0458
  145SAPE    C115888  -0.158   5.730  11.243 -0.1014  0.7053  0.2069
  145SAPE    HA15889  -0.081   5.652  11.262 -0.1897  0.6947  0.5145
  145SAPE    HB15890  -0.245   5.699  11.304  1.0431 -2.2006  0.4506
  145SAPE    C215891  -0.199   5.721  11.089 -0.5618 -0.0958 -0.1555
  145SAPE    HS15892  -0.247   5.624  11.066 -2.2932  0.9748 -1.1342
  145SAPE   O2115893  -0.081   5.750  11.006 -0.2533  0.5262 -0.0804
  145SAPE   C2115894  -0.064   5.684  10.894  0.3804 -0.4066 -0.1344
  145SAPE   O2215895  -0.143   5.607  10.842 -0.0309 -0.1547 -0.0734
  145SAPE   C2215896   0.060   5.737  10.828 -0.0017 -0.6181 -0.6928
  145SAPE   H2R15897   0.047   5.848  10.834 -0.9342 -0.8291  1.7616
  145SAPE   H2S15898   0.150   5.701  10.883  0.2560  0.1979 -0.5697
  145SAPE    C315899  -0.308   5.827  11.065 -0.6259  0.2867  0.6940
  145SAPE    HX15900  -0.265   5.925  11.092 -1.7368  1.7590 -2.6412
  145SAPE    HY15901  -0.398   5.811  11.127 -2.1507  1.8030 -1.0630
  145SAPE   O3115902  -0.338   5.843  10.927 -0.3976 -0.2005 -0.7689
  145SAPE   C3115903  -0.435   5.792  10.866 -0.1924  0.3589 -0.1899
  145SAPE   O3215904  -0.524   5.730  10.924 -1.0161  0.2464 -0.7955
  145SAPE   C3215905  -0.424   5.798  10.715 -0.3446 -0.2369  0.3930
  145SAPE   H2X15906  -0.318   5.771  10.692 -0.3252 -1.6899  2.0464
  145SAPE   H2Y15907  -0.434   5.906  10.690  2.6433  0.6244  2.4795
  145SAPE   C2315908   0.075   5.671  10.684 -0.6888  0.6234  0.8183
  145SAPE   H3R15909   0.069   5.563  10.709  3.3925  0.2558  0.6103
  145SAPE   H3S15910   0.182   5.696  10.665 -0.4703 -0.1461  1.0128
  145SAPE   C2415911  -0.017   5.714  10.567  0.4370 -0.7033 -0.1384
  145SAPE   H4R15912   0.033   5.803  10.522  0.3434 -0.6221 -0.0845
  145SAPE   H4S15913  -0.116   5.750  10.603 -0.2312 -0.6115 -2.0370
  145SAPE   C2515914  -0.040   5.606  10.467  0.6248 -0.2207 -0.0045
  145SAPE   H5R15915  -0.049   5.506  10.512  0.2569  0.3053  1.1139
  145SAPE   C2615916  -0.056   5.615  10.335 -0.4432 -0.5929  0.2384
  145SAPE   H6R15917  -0.060   5.521  10.277  1.4942 -0.6647  0.2017
  145SAPE   C2715918  -0.060   5.735  10.248  0.2287 -0.1310 -0.3678
  145SAPE   H7R15919  -0.049   5.819  10.319  1.1485 -0.3304 -0.2653
  145SAPE   H7S15920  -0.163   5.739  10.206  0.1872 -0.0588 -0.2593
  145SAPE   C2815921   0.038   5.746  10.136 -0.3618 -0.2924  0.3723
  145SAPE   H8R15922   0.140   5.706  10.148  1.1393  3.1296 -0.5586
  145SAPE   C2915923   0.016   5.811  10.024  0.0404 -0.0075  0.4720
  145SAPE   H9R15924   0.106   5.816   9.961  0.2255 -3.1187  0.4066
  145SAPE  C21015925  -0.103   5.878   9.967  0.3155  0.2584 -0.0009
  145SAPE  H10R15926  -0.181   5.900  10.043  0.5719  0.1942  0.2795
  145SAPE  H10S15927  -0.149   5.820   9.884  1.3086 -2.0480  1.0344
  145SAPE  C21115928  -0.077   6.017   9.920  0.4488 -0.6627  0.4403
  145SAPE  H11R15929  -0.043   6.083  10.002  0.3872 -1.1852  0.8834
  145SAPE  C21215930  -0.080   6.061   9.795  0.1652  0.6053 -0.0016
  145SAPE  H12R15931  -0.047   6.164   9.776 -1.3165  0.8114 -1.6873
  145SAPE  C21315932  -0.113   5.981   9.671 -0.2530 -0.3445 -0.3237
  145SAPE  H13R15933  -0.148   5.879   9.693 -3.6425  0.6736 -0.7761
  145SAPE  H13S15934  -0.016   5.966   9.619  0.2916  0.1216  0.5415
  145SAPE  C21415935  -0.211   6.054   9.582 -0.3976 -0.0684 -0.0740
  145SAPE  H14R15936  -0.303   6.088   9.631 -0.0592 -0.5047  0.8846
  145SAPE  C21515937  -0.191   6.071   9.447  0.8182  0.5800 -0.2947
  145SAPE  H15R15938  -0.276   6.121   9.398 -1.0548 -0.8234  1.4440
  145SAPE  C21615939  -0.069   6.027   9.367 -0.3688 -0.7150 -0.0061
  145SAPE  H16R15940  -0.029   5.930   9.403 -0.4340 -0.6230  0.3117
  145SAPE  H16S15941   0.016   6.099   9.360 -0.2824 -0.7335  0.9061
  145SAPE  C21715942  -0.118   5.991   9.220  0.6296  0.2529 -0.6084
  145SAPE  H17R15943  -0.026   5.981   9.157  0.1170  0.7329 -1.4377
  145SAPE  H17S15944  -0.178   6.076   9.183  2.3897  1.8535  0.1367
  145SAPE  C21815945  -0.196   5.856   9.213  0.2744 -1.5704 -0.3416
  145SAPE  H18R15946  -0.276   5.868   9.289  0.4111 -1.3816 -0.2254
  145SAPE  H18S15947  -0.142   5.767   9.251  3.1999  0.2591 -0.0627
  145SAPE  C21915948  -0.247   5.814   9.079  0.5573  0.6770  0.3109
  145SAPE  H19R15949  -0.157   5.791   9.018  0.6834  1.0934  0.3401
  145SAPE  H19S15950  -0.302   5.892   9.023  0.7224 -0.3079 -1.2821
  145SAPE  C22015951  -0.338   5.691   9.092 -0.5216  0.2495  0.3335
  145SAPE  H20R15952  -0.434   5.719   9.142 -0.4849  1.2287 -0.1270
  145SAPE  H20S15953  -0.290   5.604   9.142  1.3392  1.2840  0.3656
  145SAPE  H20T15954  -0.370   5.649   8.994  1.8341 -1.1691  0.1516
  145SAPE   C3315955  -0.516   5.709  10.628  0.5544  0.5080 -0.2754
  145SAPE   H3X15956  -0.619   5.705  10.669 -0.1749 -2.3087 -2.1803
  145SAPE   H3Y15957  -0.479   5.604  10.620 -4.5426 -1.3463 -1.4779
  145SAPE   C3415958  -0.533   5.760  10.484  0.9727  0.0765 -0.6922
  145SAPE   H4X15959  -0.432   5.778  10.442  2.1350 -2.7982  0.7337
  145SAPE   H4Y15960  -0.601   5.846  10.464  0.9298  0.3011  0.3823
  145SAPE   C3515961  -0.594   5.651  10.398  0.6213  0.3749 -0.3648
  145SAPE   H5X15962  -0.693   5.610  10.425  0.6712 -0.0601 -0.8229
  145SAPE   H5Y15963  -0.525   5.564  10.392  1.4673  1.0131  0.0296
  145SAPE   C3615964  -0.595   5.677  10.252  0.0557  0.0824  0.5754
  145SAPE   H6X15965  -0.491   5.709  10.229 -0.1438 -0.0963 -0.5820
  145SAPE   H6Y15966  -0.659   5.767  10.240 -2.1232 -1.4716  0.2474
  145SAPE   C3715967  -0.626   5.552  10.167 -0.3118  0.3621 -1.3909
  145SAPE   H7X15968  -0.732   5.526  10.189  0.0782 -0.7280 -0.7647
  145SAPE   H7Y15969  -0.563   5.468  10.201  1.1114  1.1536 -2.0271
  145SAPE   C3815970  -0.591   5.577  10.028 -0.2133  0.4221  0.7731
  145SAPE   H8X15971  -0.482   5.600  10.027 -0.5953  2.3449 -1.8605
  145SAPE   H8Y15972  -0.630   5.674   9.992  0.5566  0.6922  0.6439
  145SAPE   C3915973  -0.614   5.467   9.932 -0.2783  0.1641  0.3812
  145SAPE   H9X15974  -0.722   5.445   9.921 -0.4957  1.9809 -1.5235
  145SAPE   H9Y15975  -0.578   5.375   9.982  2.1011  1.0440  0.3671
  145SAPE  C31015976  -0.554   5.486   9.792  0.7106  0.1221  0.3300
  145SAPE  H10X15977  -0.444   5.480   9.805  0.5326  1.4052  2.8092
  145SAPE  H10Y15978  -0.584   5.584   9.751  2.4374 -0.2682 -1.9331
  145SAPE  C31115979  -0.596   5.367   9.698 -0.2550 -0.6925 -0.1951
  145SAPE  H11X15980  -0.705   5.349   9.712 -0.9321  2.3096 -1.1152
  145SAPE  H11Y15981  -0.533   5.279   9.724  1.0437  0.4778  0.6619
  145SAPE  C31215982  -0.564   5.408   9.548  0.5053 -0.1334 -0.1669
  145SAPE  H12X15983  -0.454   5.415   9.536  0.7432 -2.1489  0.5607
  145SAPE  H12Y15984  -0.607   5.507   9.523 -0.6507 -0.1271  1.7841
  145SAPE  C31315985  -0.608   5.298   9.444  0.4135  0.8227  0.6236
  145SAPE  H13X15986  -0.718   5.296   9.436  0.5002 -0.4026 -0.4686
  145SAPE  H13Y15987  -0.587   5.196   9.483  1.5948  0.3670 -1.1431
  145SAPE  C31415988  -0.568   5.313   9.300 -0.1858 -0.3058  0.1664
  145SAPE  H14X15989  -0.460   5.338   9.300 -0.0246 -0.9925 -0.3419
  145SAPE  H14Y15990  -0.627   5.398   9.257  1.6766  0.4390 -0.9912
  145SAPE  C31515991  -0.595   5.181   9.221 -0.4074  0.2798 -0.4238
  145SAPE  H15X15992  -0.704   5.160   9.222 -0.0018 -1.9599  1.0096
  145SAPE  H15Y15993  -0.533   5.116   9.287 -1.7857  1.6812  2.2980
  145SAPE  C31615994  -0.535   5.193   9.079 -0.4473  0.7417  0.2957
  145SAPE  H16X15995  -0.547   5.095   9.029  3.4277 -0.3749  1.3178
  145SAPE  H16Y15996  -0.425   5.205   9.092 -0.1544 -1.2876 -0.1622
  145SAPE  C31715997  -0.591   5.320   9.006  0.3653  0.3509  0.4455
  145SAPE  H17X15998  -0.545   5.411   9.049 -0.0794  0.9977 -0.4177
  145SAPE  H17Y15999  -0.702   5.325   9.004  0.3785  0.6080  0.3419
  145SAPE  C31816000  -0.551   5.310   8.857 -0.6503  0.0981 -0.2231
  145SAPE  H18X16001  -0.594   5.214   8.820 -0.0826 -0.8149  1.4408
  145SAPE  H18Y16002  -0.441   5.311   8.842 -0.4691  1.2597  1.0668
  145SAPE  H18Z16003  -0.599   5.395   8.802  2.0140  1.0757 -1.0941
  146SAPE     N16004   4.128   5.841  11.070  0.5426  0.3453 -0.4016
  146SAPE   HN116005   4.229   5.853  11.046  0.2635  1.1605 -1.1586
  146SAPE   HN216006   4.134   5.856  11.173  2.9318  1.0239 -0.5946
  146SAPE   HN316007   4.100   5.743  11.048  1.2054 -0.1286  0.7910
  146SAPE   C1216008   4.031   5.933  11.000  0.5023  0.5336 -0.3973
  146SAPE  H12A16009   4.078   6.033  10.992  2.1465 -0.1717  0.0497
  146SAPE  H12B16010   3.943   5.933  11.067  0.6405 -1.1683 -0.1921
  146SAPE   C1116011   3.995   5.879  10.863  0.4243 -0.6141  0.7976
  146SAPE  H11A16012   4.087   5.884  10.801  0.3446  0.9003  0.7738
  146SAPE  H11B16013   3.919   5.946  10.817 -1.1599 -2.5771  0.5108
  146SAPE     P16014   3.875   5.647  10.772 -0.3079  0.1136 -0.2569
  146SAPE   O1316015   3.912   5.504  10.794  0.1885 -0.0133  0.0664
  146SAPE   O1416016   3.734   5.687  10.772 -0.0654 -0.0005  0.0233
  146SAPE   O1216017   3.947   5.743  10.879 -0.1910 -0.3226 -0.3568
  146SAPE   O1116018   3.954   5.688  10.646  0.1189 -0.2628 -0.2200
  146SAPE    C116019   3.947   5.619  10.523  0.1937 -0.1884 -0.5698
  146SAPE    HA16020   3.932   5.509  10.531  1.5096 -0.4774 -1.8968
  146SAPE    HB16021   3.858   5.663  10.473  1.6128  2.0058 -1.2743
  146SAPE    C216022   4.081   5.624  10.433  0.4003  0.2260  0.5750
  146SAPE    HS16023   4.163   5.588  10.499  1.7065 -0.5751 -1.4568
  146SAPE   O2116024   4.117   5.756  10.389 -0.1738  0.1126 -0.3350
  146SAPE   C2116025   4.175   5.839  10.473  0.4583  0.0518  0.4730
  146SAPE   O2216026   4.213   5.808  10.584 -0.1169 -0.0042  0.2146
  146SAPE   C2216027   4.194   5.984  10.410  0.4951  0.3682 -1.3008
  146SAPE   H2R16028   4.101   6.026  10.365 -0.1378  0.3175 -0.0523
  146SAPE   H2S16029   4.205   6.047  10.500 -0.5042  0.8811 -1.5280
  146SAPE    C316030   4.082   5.531  10.308 -0.1346  0.2162  0.4537
  146SAPE    HX16031   4.061   5.424  10.329  2.0076  0.3384  3.4954
  146SAPE    HY16032   4.190   5.533  10.282  0.0115 -0.9416  0.9326
  146SAPE   O3116033   4.007   5.578  10.191  0.0043  0.0649  0.7249
  146SAPE   C3116034   3.880   5.539  10.201  0.3600  0.7985  0.2412
  146SAPE   O3216035   3.834   5.476  10.295 -0.4714 -0.5237 -0.8103
  146SAPE   C3216036   3.819   5.562  10.062  0.1498 -0.4636  0.4305
  146SAPE   H2X16037   3.856   5.483   9.994 -1.9572  1.6649 -3.4102
  146SAPE   H2Y16038   3.851   5.657  10.014 -0.3637 -0.2692  0.4691
  146SAPE   C2316039   4.317   5.996  10.323 -0.1358  0.2349  0.7277
  146SAPE   H3R16040   4.330   5.924  10.239 -0.5598  1.4375 -0.3968
  146SAPE   H3S16041   4.401   5.970  10.390 -0.2770 -1.4571  0.2769
  146SAPE   C2416042   4.338   6.137  10.264 -0.3473  0.5917 -0.0886
  146SAPE   H4R16043   4.238   6.177  10.237  0.6272  2.4185 -1.0706
  146SAPE   H4S16044   4.385   6.126  10.164 -2.8627  0.4043 -1.3060
  146SAPE   C2516045   4.416   6.227  10.356 -0.4097  0.1877 -1.0668
  146SAPE   H5R16046   4.354   6.262  10.439 -0.5105  0.9816 -1.4721
  146SAPE   C2616047   4.543   6.275  10.353  0.4507  0.2511  0.2308
  146SAPE   H6R16048   4.569   6.354  10.426  0.4587 -0.3794  0.9122
  146SAPE   C2716049   4.645   6.240  10.246 -0.6598 -0.6707  0.3882
  146SAPE   H7R16050   4.658   6.329  10.181  0.0773 -1.9849 -1.3263
  146SAPE   H7S16051   4.608   6.163  10.175 -0.2479  0.7227 -1.3811
  146SAPE   C2816052   4.782   6.212  10.305 -0.5328  0.5795  0.9000
  146SAPE   H8R16053   4.774   6.220  10.414 -1.4961 -2.7377  1.1367
  146SAPE   C2916054   4.889   6.162  10.241 -0.7962  0.5403 -0.1196
  146SAPE   H9R16055   4.983   6.142  10.295 -1.1065 -1.7210 -0.3789
  146SAPE  C21016056   4.901   6.129  10.094 -0.6377 -0.7720  0.3589
  146SAPE  H10R16057   4.804   6.145  10.042  0.8772 -1.1878 -2.6750
  146SAPE  H10S16058   4.926   6.021  10.081 -2.0799 -0.8628 -1.9113
  146SAPE  C21116059   5.008   6.212  10.030 -0.4734  0.1437 -0.1834
  146SAPE  H11R16060   5.079   6.269  10.091 -0.7207  1.2697 -0.9287
  146SAPE  C21216061   5.024   6.222   9.902  0.0265 -0.0116 -0.0129
  146SAPE  H12R16062   5.097   6.291   9.856  0.8084 -0.3351  0.7354
  146SAPE  C21316063   4.948   6.143   9.795  0.7479 -0.0629  0.1148
  146SAPE  H13R16064   4.842   6.131   9.823  0.3076  0.9334 -1.0902
  146SAPE  H13S16065   5.003   6.046   9.793  1.6718  0.4629 -0.7566
  146SAPE  C21416066   4.970   6.194   9.656  0.3109  0.3135  0.4717
  146SAPE  H14R16067   5.058   6.256   9.637 -0.6864  1.6809  0.2648
  146SAPE  C21516068   4.895   6.168   9.552  0.1222 -0.1601  0.0536
  146SAPE  H15R16069   4.910   6.219   9.456  1.0448 -2.9264 -1.3453
  146SAPE  C21616070   4.776   6.081   9.537  0.2853  0.4789  0.5774
  146SAPE  H16R16071   4.760   6.026   9.632  1.4035 -1.1772 -0.1668
  146SAPE  H16S16072   4.812   6.002   9.468 -1.2573 -0.1201  0.4441
  146SAPE  C21716073   4.653   6.165   9.490  0.0508 -0.0822 -0.4665
  146SAPE  H17R16074   4.634   6.254   9.554 -1.1767 -0.8403  0.2458
  146SAPE  H17S16075   4.565   6.098   9.493  1.2034 -1.5840  0.6168
  146SAPE  C21816076   4.664   6.209   9.344  0.4670  0.4019 -0.5606
  146SAPE  H18R16077   4.689   6.119   9.284  1.1160  0.1010  0.1553
  146SAPE  H18S16078   4.756   6.269   9.327  0.0108  1.0634 -0.7052
  146SAPE  C21916079   4.537   6.286   9.299  0.9857 -0.2541  0.0633
  146SAPE  H19R16080   4.513   6.368   9.371  1.4045  1.0750 -1.2663
  146SAPE  H19S16081   4.457   6.211   9.314  0.3080  0.8171  2.0830
  146SAPE  C22016082   4.551   6.359   9.169 -0.0560  0.2785  0.0338
  146SAPE  H20R16083   4.603   6.294   9.096 -1.3039 -0.1051 -0.5327
  146SAPE  H20S16084   4.627   6.438   9.183  0.7435 -1.0355  3.7862
  146SAPE  H20T16085   4.452   6.401   9.140 -1.7627 -2.9799  0.8300
  146SAPE   C3316086   3.666   5.562  10.066  0.1645  0.0382  0.4707
  146SAPE   H3X16087   3.617   5.644  10.122 -0.2551  0.3020 -0.2706
  146SAPE   H3Y16088   3.635   5.472  10.123  0.7559 -0.9858 -0.8013
  146SAPE   C3416089   3.603   5.561   9.924  0.0939  0.6755  0.0212
  146SAPE   H4X16090   3.494   5.543   9.918  0.3359 -0.3393 -1.6550
  146SAPE   H4Y16091   3.651   5.479   9.866  1.8809  0.7502  1.3632
  146SAPE   C3516092   3.639   5.692   9.847 -0.1466  0.4260 -0.0981
  146SAPE   H5X16093   3.745   5.708   9.817 -0.1560  0.1474 -0.2818
  146SAPE   H5Y16094   3.608   5.782   9.905  1.2609  1.4894 -0.9603
  146SAPE   C3616095   3.560   5.707   9.721 -0.9557 -0.7603 -0.1578
  146SAPE   H6X16096   3.558   5.812   9.685  1.1074 -1.0298 -1.1767
  146SAPE   H6Y16097   3.458   5.666   9.732 -0.9070 -0.5328  1.2064
  146SAPE   C3716098   3.622   5.642   9.593 -0.0216  0.1426 -0.8954
  146SAPE   H7X16099   3.600   5.534   9.607  0.4385  0.1741  0.0610
  146SAPE   H7Y16100   3.732   5.650   9.603 -0.2327  0.7917  1.1172
  146SAPE   C3816101   3.571   5.703   9.469 -0.1097  0.6453 -0.7022
  146SAPE   H8X16102   3.570   5.814   9.474  0.4652  0.6487 -0.5722
  146SAPE   H8Y16103   3.465   5.677   9.449 -0.5428 -1.3964  3.6011
  146SAPE   C3916104   3.647   5.642   9.347 -0.1791 -0.3485  0.3217
  146SAPE   H9X16105   3.634   5.532   9.336  0.4725 -0.3918 -0.0321
  146SAPE   H9Y16106   3.757   5.655   9.345 -0.1954 -0.3602 -1.0962
  146SAPE  C31016107   3.592   5.722   9.231 -0.3741 -0.4187 -0.2034
  146SAPE  H10X16108   3.616   5.829   9.243  2.1117 -0.8738 -0.9361
  146SAPE  H10Y16109   3.482   5.706   9.217  0.0422  0.3182 -5.3270
  146SAPE  C31116110   3.653   5.684   9.095 -0.2090 -0.2415  0.5668
  146SAPE  H11X16111   3.677   5.576   9.104 -0.2552 -0.4496 -1.5678
  146SAPE  H11Y16112   3.754   5.723   9.074 -0.6375  0.7863  0.4031
  146SAPE  C31216113   3.564   5.708   8.967  0.1129 -0.6980 -0.0451
  146SAPE  H12X16114   3.566   5.815   8.937  0.8273 -0.5845  0.4109
  146SAPE  H12Y16115   3.463   5.672   8.995  0.2577  0.1482  1.6270
  146SAPE  C31316116   3.613   5.623   8.849  0.3556 -0.6200  0.5306
  146SAPE  H13X16117   3.617   5.515   8.876 -1.5984 -0.8713 -0.1160
  146SAPE  H13Y16118   3.718   5.657   8.837 -0.2751  1.6017  1.0285
  146SAPE  C31416119   3.536   5.667   8.722 -0.0131  0.1144 -0.6726
  146SAPE  H14X16120   3.534   5.778   8.729  0.3572  0.1918 -1.8642
  146SAPE  H14Y16121   3.433   5.629   8.743  0.7320 -1.0281  1.0538
  146SAPE  C31516122   3.594   5.615   8.589  0.5503 -0.3628 -0.3626
  146SAPE  H15X16123   3.566   5.508   8.580  0.4195 -0.3671  0.0825
  146SAPE  H15Y16124   3.702   5.639   8.597  0.5722 -1.0230  1.5831
  146SAPE  C31616125   3.537   5.702   8.480  0.3341  0.2497 -0.3817
  146SAPE  H16X16126   3.570   5.807   8.495  0.9154  0.1643 -1.0546
  146SAPE  H16Y16127   3.427   5.693   8.489  0.3298  0.6325 -0.0170
  146SAPE  C31716128   3.574   5.649   8.338  0.1523 -0.3268 -0.6452
  146SAPE  H17X16129   3.552   5.540   8.329 -1.1325 -0.0479 -0.9474
  146SAPE  H17Y16130   3.684   5.652   8.323  0.2849 -0.4729  0.2520
  146SAPE  C31816131   3.510   5.717   8.215  0.5304  0.0503  0.3016
  146SAPE  H18X16132   3.545   5.822   8.200 -1.2008  0.8182  1.5037
  146SAPE  H18Y16133   3.399   5.720   8.216  0.5411  1.2028 -0.6357
  146SAPE  H18Z16134   3.545   5.658   8.128  3.2700 -0.3194  1.6134
  147SAPE     N16135   1.212   4.307   6.143  0.0722 -0.1013  0.9528
  147SAPE   HN116136   1.225   4.216   6.093  1.4537 -0.3071  1.6703
  147SAPE   HN216137   1.155   4.371   6.084 -1.2454 -1.7377  0.4114
  147SAPE   HN316138   1.302   4.355   6.163  1.7204 -2.6592  0.0247
  147SAPE   C1216139   1.152   4.290   6.274  0.5793  0.5677 -0.4111
  147SAPE  H12A16140   1.053   4.242   6.262 -0.0497  1.2586  1.8508
  147SAPE  H12B16141   1.122   4.392   6.307  0.3862  0.0180  1.1106
  147SAPE   C1116142   1.234   4.229   6.390 -0.3487  0.0600  0.4247
  147SAPE  H11A16143   1.205   4.242   6.496 -1.2183 -2.4948  0.5438
  147SAPE  H11B16144   1.330   4.285   6.383 -0.3157  0.6817  4.6675
  147SAPE     P16145   1.172   3.975   6.428  0.2721  0.0887 -0.0994
  147SAPE   O1316146   1.036   4.010   6.396  0.6052  0.8278 -0.1262
  147SAPE   O1416147   1.223   3.849   6.369 -0.2763 -0.0604 -0.2546
  147SAPE   O1216148   1.268   4.090   6.375  0.8400 -0.1249 -0.2226
  147SAPE   O1116149   1.181   3.968   6.577  0.0835  0.4768 -0.0489
  147SAPE    C116150   1.273   4.019   6.672  0.3837 -0.3747 -0.7197
  147SAPE    HA16151   1.299   4.125   6.655 -1.1415  0.1470  0.0688
  147SAPE    HB16152   1.223   4.026   6.771  1.1420  1.4011 -0.4604
  147SAPE    C216153   1.398   3.927   6.685  0.3688 -0.5972  0.6128
  147SAPE    HS16154   1.432   3.913   6.580 -1.3811 -1.2065  0.1191
  147SAPE   O2116155   1.352   3.803   6.738  0.0497 -0.2492 -0.1396
  147SAPE   C2116156   1.439   3.705   6.741  0.3393  0.2036  0.4799
  147SAPE   O2216157   1.551   3.701   6.694 -0.2311 -0.0737  0.6940
  147SAPE   C2216158   1.378   3.591   6.818 -0.5239 -0.1806 -0.1203
  147SAPE   H2R16159   1.409   3.607   6.924  0.9575 -0.5434 -0.4831
  147SAPE   H2S16160   1.267   3.595   6.810 -0.4618 -1.8349 -2.1624
  147SAPE    C316161   1.506   3.995   6.765 -0.3432 -0.0258  0.4992
  147SAPE    HX16162   1.529   4.095   6.725  1.0646 -0.2322  0.7592
  147SAPE    HY16163   1.602   3.941   6.752  0.8711  1.6935  2.0672
  147SAPE   O3116164   1.473   4.000   6.906 -0.3492  0.1421 -0.0098
  147SAPE   C3116165   1.482   4.107   6.974 -0.6984  0.2074  0.6698
  147SAPE   O3216166   1.509   4.220   6.927  0.0773  0.1389 -0.1832
  147SAPE   C3216167   1.449   4.075   7.116  0.1030  0.3100 -0.1647
  147SAPE   H2X16168   1.518   3.997   7.156  0.2800  1.2297  1.3247
  147SAPE   H2Y16169   1.345   4.036   7.114 -0.4191  1.7242 -2.3424
  147SAPE   C2316170   1.423   3.459   6.771 -0.0650 -0.1397  0.3145
  147SAPE   H3R16171   1.532   3.443   6.760 -0.1883 -0.0845 -1.1291
  147SAPE   H3S16172   1.387   3.444   6.667 -1.8316  1.1348  0.7107
  147SAPE   C2416173   1.360   3.345   6.843  0.0622  0.2648 -0.3789
  147SAPE   H4R16174   1.253   3.355   6.818  0.3884 -1.3902 -2.5978
  147SAPE   H4S16175   1.379   3.357   6.952  4.0881 -2.5033 -0.6597
  147SAPE   C2516176   1.417   3.211   6.786  0.0291 -0.4963 -0.2987
  147SAPE   H5R16177   1.370   3.167   6.697 -0.4536  0.9027 -0.7362
  147SAPE   C2616178   1.509   3.138   6.848  0.3646 -0.1264 -0.0677
  147SAPE   H6R16179   1.545   3.047   6.799  0.4302  0.2504 -0.7364
  147SAPE   C2716180   1.589   3.183   6.974  1.0416  0.1591 -0.8581
  147SAPE   H7R16181   1.521   3.216   7.055  0.8823 -3.5832  0.6176
  147SAPE   H7S16182   1.642   3.277   6.949  0.0656  1.0280  0.2932
  147SAPE   C2816183   1.691   3.089   7.038 -0.4159 -0.3093  0.4195
  147SAPE   H8R16184   1.670   2.981   7.030  1.3542 -0.7335  1.4076
  147SAPE   C2916185   1.786   3.121   7.127 -0.3900 -0.5596  0.0991
  147SAPE   H9R16186   1.855   3.043   7.160 -0.5630 -1.2213 -1.0904
  147SAPE  C21016187   1.799   3.262   7.179  0.4573 -0.0374 -0.0310
  147SAPE  H10R16188   1.700   3.304   7.206  0.5770 -0.4878  1.1204
  147SAPE  H10S16189   1.822   3.328   7.093  0.4171 -1.1398 -0.8949
  147SAPE  C21116190   1.916   3.271   7.281 -0.9616  0.2866  0.2624
  147SAPE  H11R16191   2.018   3.288   7.244 -0.4601 -0.6278  1.2014
  147SAPE  C21216192   1.902   3.242   7.407 -0.6788 -0.0330 -0.3860
  147SAPE  H12R16193   1.987   3.243   7.476 -0.8537  0.8394 -0.1809
  147SAPE  C21316194   1.775   3.195   7.474 -0.5325 -0.0010  0.2156
  147SAPE  H13R16195   1.801   3.140   7.567 -1.3965  0.5824  0.8060
  147SAPE  H13S16196   1.704   3.143   7.407 -2.7382  1.3246  1.4618
  147SAPE  C21416197   1.691   3.305   7.525  0.0727  0.1090  0.2877
  147SAPE  H14R16198   1.594   3.313   7.476 -0.8883 -0.8223  1.9804
  147SAPE  C21516199   1.711   3.396   7.622  0.0050 -0.4528 -0.6559
  147SAPE  H15R16200   1.638   3.476   7.633 -0.5095 -0.9519 -0.4153
  147SAPE  C21616201   1.834   3.395   7.703 -0.1163  0.6603  0.8020
  147SAPE  H16R16202   1.911   3.457   7.652  0.1397  0.2088  0.6365
  147SAPE  H16S16203   1.879   3.294   7.709 -0.0641  0.7337  1.6531
  147SAPE  C21716204   1.811   3.437   7.844  0.1984 -0.3771 -0.6729
  147SAPE  H17R16205   1.815   3.547   7.848 -1.8113 -0.3484  3.1649
  147SAPE  H17S16206   1.894   3.396   7.905  0.0620 -1.1979 -1.0283
  147SAPE  C21816207   1.690   3.372   7.915  0.2669  0.2711 -0.3201
  147SAPE  H18R16208   1.694   3.262   7.898 -3.2094 -0.2741  1.9842
  147SAPE  H18S16209   1.595   3.415   7.878  0.5049  0.8159 -0.2991
  147SAPE  C21916210   1.694   3.426   8.060 -0.6715  0.2313 -0.3746
  147SAPE  H19R16211   1.665   3.533   8.059 -4.6928 -0.7737 -0.9040
  147SAPE  H19S16212   1.786   3.416   8.121 -1.4657 -0.1159  0.7997
  147SAPE  C22016213   1.576   3.367   8.140  0.2597  0.6525 -0.5210
  147SAPE  H20R16214   1.556   3.412   8.240  2.3974  0.9444 -0.2067
  147SAPE  H20S16215   1.597   3.262   8.168 -0.0519  0.9128  0.7560
  147SAPE  H20T16216   1.482   3.367   8.081 -0.6084  0.1599  0.8382
  147SAPE   C3316217   1.473   4.189   7.219 -0.2849  0.8928 -0.1277
  147SAPE   H3X16218   1.419   4.161   7.312  2.1907 -1.0479  0.7845
  147SAPE   H3Y16219   1.430   4.281   7.173 -0.9291  0.0704 -1.2097
  147SAPE   C3416220   1.623   4.209   7.273  0.1569 -0.3019  0.4334
  147SAPE   H4X16221   1.620   4.305   7.329 -1.0720 -0.2855  0.3516
  147SAPE   H4Y16222   1.681   4.233   7.182  1.3917 -1.5582  0.8749
  147SAPE   C3516223   1.687   4.094   7.353 -0.2786  0.3379 -0.4552
  147SAPE   H5X16224   1.671   3.996   7.302  0.2285 -0.7224  1.3886
  147SAPE   H5Y16225   1.638   4.079   7.452  0.9068  0.5115  0.1680
  147SAPE   C3616226   1.841   4.103   7.382 -0.4179 -0.0082 -0.5612
  147SAPE   H6X16227   1.892   4.128   7.286  1.5484  2.7753  1.1504
  147SAPE   H6Y16228   1.879   4.009   7.428 -0.9021  0.5735  1.0254
  147SAPE   C3716229   1.870   4.209   7.485  0.2147 -1.3784 -0.5503
  147SAPE   H7X16230   1.830   4.305   7.449  1.5841 -0.6298 -0.1181
  147SAPE   H7Y16231   1.979   4.228   7.494 -0.1972  0.0071  2.1591
  147SAPE   C3816232   1.815   4.169   7.628 -0.1333 -0.3709  0.6845
  147SAPE   H8X16233   1.830   4.059   7.640 -1.9849 -0.6359  0.6456
  147SAPE   H8Y16234   1.708   4.197   7.638  0.1646  0.6513  1.0188
  147SAPE   C3916235   1.899   4.238   7.740  0.1033  0.1717 -0.2254
  147SAPE   H9X16236   1.867   4.345   7.750  1.0539  0.1702  3.7263
  147SAPE   H9Y16237   2.009   4.233   7.727  0.0696 -1.3088  0.0575
  147SAPE  C31016238   1.864   4.190   7.880 -0.4394  0.4640  0.3898
  147SAPE  H10X16239   1.754   4.181   7.890 -0.4123 -1.6581 -0.8698
  147SAPE  H10Y16240   1.901   4.259   7.958 -0.8279  0.1378  0.8624
  147SAPE  C31116241   1.920   4.053   7.901  0.3297 -0.4360  0.3014
  147SAPE  H11X16242   2.030   4.065   7.911  0.2046 -1.7236  3.8091
  147SAPE  H11Y16243   1.905   3.979   7.820  1.4145 -0.6661  0.2998
  147SAPE  C31216244   1.868   3.982   8.025  0.2098  1.2697 -0.0103
  147SAPE  H12X16245   1.758   3.995   8.023  0.2405  1.8542  1.2819
  147SAPE  H12Y16246   1.908   4.021   8.121  1.7804 -0.7045  0.1649
  147SAPE  C31316247   1.882   3.828   8.016  0.2682 -0.2030 -0.0226
  147SAPE  H13X16248   1.848   3.785   7.919  1.7290 -0.7149 -0.3228
  147SAPE  H13Y16249   1.830   3.773   8.098  0.7106 -1.2041 -0.4094
  147SAPE  C31416250   2.034   3.793   8.013 -0.2327  0.1694  0.4079
  147SAPE  H14X16251   2.088   3.835   8.100 -1.0553  2.9497 -0.3714
  147SAPE  H14Y16252   2.073   3.839   7.919  0.1544 -2.3611 -0.7266
  147SAPE  C31516253   2.047   3.642   7.999  0.1230 -0.5531 -0.0774
  147SAPE  H15X16254   2.014   3.611   7.897 -0.7720  0.5182 -0.1262
  147SAPE  H15Y16255   1.984   3.584   8.068  0.6126  1.6388  2.2990
  147SAPE  C31616256   2.191   3.601   8.014 -0.1196  0.8532 -0.0742
  147SAPE  H16X16257   2.221   3.603   8.121  4.4268  0.5104 -1.2093
  147SAPE  H16Y16258   2.266   3.673   7.974 -1.3585  2.8426  1.0989
  147SAPE  C31716259   2.218   3.454   7.966  0.3827 -0.2515 -0.2737
  147SAPE  H17X16260   2.215   3.452   7.855 -2.7600 -0.3426 -0.2253
  147SAPE  H17Y16261   2.153   3.371   8.002  0.6539  0.1109  1.1063
  147SAPE  C31816262   2.357   3.394   8.012 -0.3485 -0.2490 -0.0308
  147SAPE  H18X16263   2.357   3.284   7.998  1.6641 -0.1009 -1.4450
  147SAPE  H18Y16264   2.379   3.409   8.120  0.1114  2.3256 -0.4419
  147SAPE  H18Z16265   2.444   3.442   7.961 -0.4831 -0.8382 -0.8331
  148SAPE     N16266   0.667   1.658   6.785  0.6946 -0.0848 -0.2788
  148SAPE   HN116267   0.734   1.579   6.773 -0.6500 -1.1963 -0.6463
  148SAPE   HN216268   0.659   1.720   6.702 -0.0523  1.7130  1.1054
  148SAPE   HN316269   0.711   1.722   6.854  0.2386  0.1124 -0.1651
  148SAPE   C1216270   0.524   1.612   6.814 -1.4365 -0.3688 -0.1363
  148SAPE  H12A16271   0.525   1.575   6.918 -1.9524  0.6381  0.2295
  148SAPE  H12B16272   0.499   1.536   6.737 -1.8974  1.1952 -1.5843
  148SAPE   C1116273   0.423   1.727   6.812  0.4670 -0.2644 -0.2864
  148SAPE  H11A16274   0.465   1.803   6.882 -0.7323 -0.1682  0.3351
  148SAPE  H11B16275   0.322   1.705   6.853 -0.4404  3.3098 -0.4145
  148SAPE     P16276   0.322   1.887   6.636  0.0553  0.0849 -0.0176
  148SAPE   O1316277   0.365   1.962   6.518 -0.2077  0.0586 -0.2114
  148SAPE   O1416278   0.194   1.817   6.626 -0.1540  0.3453  0.0012
  148SAPE   O1216279   0.427   1.783   6.672 -0.0046 -0.0572 -0.1895
  148SAPE   O1116280   0.311   1.984   6.756 -0.4500  0.1227 -0.2422
  148SAPE    C116281   0.434   2.056   6.774 -0.8659  0.5733 -0.1305
  148SAPE    HA16282   0.517   1.988   6.804 -1.1533  0.2333 -0.1005
  148SAPE    HB16283   0.471   2.111   6.685  0.9884  1.4035  1.1181
  148SAPE    C216284   0.427   2.175   6.870 -0.0780 -0.6336 -0.2943
  148SAPE    HS16285   0.525   2.228   6.869  0.2968 -1.3073  0.0962
  148SAPE   O2116286   0.387   2.121   7.004  0.1279 -0.0234 -0.1462
  148SAPE   C2116287   0.482   2.051   7.073  0.2766 -0.0648  0.2501
  148SAPE   O2216288   0.598   2.054   7.041 -0.4253  0.6894  0.1420
  148SAPE   C2216289   0.410   1.981   7.189  0.2838  0.0086 -0.0642
  148SAPE   H2R16290   0.380   2.041   7.277 -2.1220 -2.6565  1.0285
  148SAPE   H2S16291   0.317   1.938   7.144  0.5924 -2.1520  1.2855
  148SAPE    C316292   0.329   2.293   6.826  0.1782  0.6959 -0.7170
  148SAPE    HX16293   0.233   2.240   6.812  0.6807 -0.4039 -0.0336
  148SAPE    HY16294   0.373   2.328   6.730  2.0647  3.7170  1.1533
  148SAPE   O3116295   0.319   2.393   6.925 -0.0483  0.2881  0.0656
  148SAPE   C3116296   0.406   2.492   6.925 -0.1119  0.3414 -0.4389
  148SAPE   O3216297   0.500   2.499   6.844 -0.5752 -0.5660 -0.4849
  148SAPE   C3216298   0.372   2.603   7.026  0.1275  0.0183  0.7235
  148SAPE   H2X16299   0.261   2.608   7.015  0.2999 -2.1091 -3.0034
  148SAPE   H2Y16300   0.423   2.693   6.987 -1.0109 -0.1035 -1.1726
  148SAPE   C2316301   0.494   1.852   7.235 -0.4164 -0.0885 -0.3097
  148SAPE   H3R16302   0.564   1.891   7.313  1.0675 -0.7955 -1.2733
  148SAPE   H3S16303   0.542   1.815   7.142  0.7729  1.2352 -0.2472
  148SAPE   C2416304   0.412   1.745   7.301 -0.2926 -0.0070 -0.2627
  148SAPE   H4R16305   0.335   1.712   7.229 -1.2235 -0.8146  1.0739
  148SAPE   H4S16306   0.370   1.799   7.388  1.6710 -0.1753  0.8277
  148SAPE   C2516307   0.490   1.620   7.331  0.4047  0.2438  0.2724
  148SAPE   H5R16308   0.483   1.540   7.255 -1.2576  1.2697 -0.6881
  148SAPE   C2616309   0.555   1.591   7.435  0.1402  0.5519 -0.9099
  148SAPE   H6R16310   0.602   1.492   7.437 -0.5143  0.2275 -1.6369
  148SAPE   C2716311   0.561   1.686   7.553 -0.0403 -0.0611 -0.5260
  148SAPE   H7R16312   0.549   1.791   7.520  2.0854  0.5355  0.5433
  148SAPE   H7S16313   0.663   1.681   7.595 -0.7569  2.0803  1.6039
  148SAPE   C2816314   0.449   1.626   7.645 -0.8337  0.4720  0.0711
  148SAPE   H8R16315   0.353   1.591   7.604  0.2522 -0.1389 -2.0211
  148SAPE   C2916316   0.458   1.630   7.778  0.1396 -0.2107 -0.3983
  148SAPE   H9R16317   0.379   1.573   7.829 -1.2233 -0.0579 -2.2935
  148SAPE  C21016318   0.570   1.684   7.867  0.2029  0.0657  0.0837
  148SAPE  H10R16319   0.533   1.758   7.940 -1.4488 -2.2210  1.6447
  148SAPE  H10S16320   0.651   1.724   7.803  0.1324 -0.3630 -0.2794
  148SAPE  C21116321   0.623   1.564   7.948 -0.4160  0.0635 -0.0528
  148SAPE  H11R16322   0.662   1.484   7.882 -2.1636  0.6599 -1.8540
  148SAPE  C21216323   0.603   1.546   8.074  0.0433 -0.7362 -0.6022
  148SAPE  H12R16324   0.660   1.464   8.120 -1.8738 -1.6026  0.2925
  148SAPE  C21316325   0.534   1.633   8.172  0.3442  0.2714 -0.3988
  148SAPE  H13R16326   0.569   1.738   8.179  0.3851  0.2694 -0.5692
  148SAPE  H13S16327   0.553   1.593   8.274  1.6625 -0.9116 -1.0947
  148SAPE  C21416328   0.384   1.655   8.154 -0.0059 -0.0384 -0.1481
  148SAPE  H14R16329   0.352   1.704   8.061 -1.0575 -2.7903 -1.2962
  148SAPE  C21516330   0.295   1.636   8.254 -0.4209  0.1094  0.6703
  148SAPE  H15R16331   0.194   1.618   8.215  0.9787 -0.9083 -2.7365
  148SAPE  C21616332   0.307   1.592   8.402 -0.1250 -0.3868  0.2343
  148SAPE  H16R16333   0.382   1.653   8.456 -0.1136 -0.7604  0.6432
  148SAPE  H16S16334   0.342   1.487   8.411  1.0043  0.0515  1.2070
  148SAPE  C21716335   0.180   1.604   8.488 -0.6384  0.0419  0.7794
  148SAPE  H17R16336   0.100   1.537   8.451 -1.5143  0.9828  0.9674
  148SAPE  H17S16337   0.150   1.710   8.498  2.5363  1.2696 -1.8680
  148SAPE  C21816338   0.206   1.537   8.626  0.1186  0.3205 -0.5022
  148SAPE  H18R16339   0.222   1.429   8.607  0.1147  0.7705 -3.2225
  148SAPE  H18S16340   0.111   1.546   8.682  0.0902 -0.4793 -0.4150
  148SAPE  C21916341   0.319   1.583   8.716 -0.1363  0.0197  0.8854
  148SAPE  H19R16342   0.298   1.689   8.740 -1.6397 -0.0924  0.1013
  148SAPE  H19S16343   0.414   1.579   8.658  1.1756  0.7866  2.9296
  148SAPE  C22016344   0.327   1.505   8.854 -0.8224  0.2660  0.2363
  148SAPE  H20R16345   0.428   1.532   8.895  0.0231 -0.6857 -1.1975
  148SAPE  H20S16346   0.322   1.396   8.833  0.7874 -0.1131  1.6521
  148SAPE  H20T16347   0.247   1.542   8.921 -2.6174 -0.1968 -1.6216
  148SAPE   C3316348   0.388   2.567   7.177 -1.3097  0.3152 -0.3196
  148SAPE   H3X16349   0.499   2.568   7.178 -1.2675 -1.2361 -1.2037
  148SAPE   H3Y16350   0.358   2.465   7.207  1.9014 -0.5939 -0.0444
  148SAPE   C3416351   0.310   2.667   7.258  0.3629  0.5424 -0.0584
  148SAPE   H4X16352   0.204   2.661   7.226  0.1249  2.3333  0.3767
  148SAPE   H4Y16353   0.334   2.770   7.226 -1.5195  0.8180 -0.6419
  148SAPE   C3516354   0.334   2.649   7.405  0.4462  0.5537  0.4017
  148SAPE   H5X16355   0.420   2.706   7.446  1.2389 -0.7112  0.5478
  148SAPE   H5Y16356   0.354   2.544   7.435 -1.9191 -0.3486 -1.0344
  148SAPE   C3616357   0.213   2.707   7.481 -0.1757  0.0743  0.2565
  148SAPE   H6X16358   0.122   2.649   7.455  0.6499 -0.5032 -1.4381
  148SAPE   H6Y16359   0.195   2.809   7.443 -3.5160 -0.2007  0.9644
  148SAPE   C3716360   0.233   2.716   7.634  0.4794  0.2895  0.2189
  148SAPE   H7X16361   0.341   2.740   7.644  0.6884 -0.0594 -1.0818
  148SAPE   H7Y16362   0.206   2.618   7.679  1.8828 -0.1914  0.0438
  148SAPE   C3816363   0.139   2.819   7.698 -0.4936 -0.2397 -0.0400
  148SAPE   H8X16364   0.036   2.793   7.664 -0.4829 -0.5192  0.1387
  148SAPE   H8Y16365   0.171   2.905   7.635 -0.6736 -0.5193 -0.5184
  148SAPE   C3916366   0.145   2.845   7.853 -0.3716 -0.0020  0.3341
  148SAPE   H9X16367   0.251   2.840   7.885 -0.3597 -0.2574  0.2481
  148SAPE   H9Y16368   0.093   2.759   7.899 -0.0025 -0.2870  0.2191
  148SAPE  C31016369   0.076   2.975   7.898 -0.2877 -0.0383 -0.2711
  148SAPE  H10X16370  -0.027   2.937   7.881  0.5334 -2.7766  0.6047
  148SAPE  H10Y16371   0.101   3.056   7.826  2.4407 -0.2437  0.4095
  148SAPE  C31116372   0.092   3.007   8.047 -0.5202  0.3896 -0.0547
  148SAPE  H11X16373   0.072   2.908   8.092 -1.8587 -0.3563 -2.1996
  148SAPE  H11Y16374   0.013   3.082   8.067 -0.8008  0.2577 -0.6494
  148SAPE  C31216375   0.221   3.077   8.097  0.1196  0.0606 -0.0230
  148SAPE  H12X16376   0.231   3.181   8.059 -0.5498  0.2730  0.3638
  148SAPE  H12Y16377   0.304   3.019   8.051  0.3172  1.0404 -0.9103
  148SAPE  C31316378   0.234   3.066   8.250  0.1355  0.2244  0.4459
  148SAPE  H13X16379   0.235   2.961   8.287 -1.7942  0.7479  2.0380
  148SAPE  H13Y16380   0.152   3.113   8.308 -1.0038  1.0144 -1.7254
  148SAPE  C31416381   0.368   3.135   8.299  0.7263  1.0761 -0.6426
  148SAPE  H14X16382   0.361   3.237   8.255  0.5825  1.9054  1.2692
  148SAPE  H14Y16383   0.442   3.089   8.231  1.7603  1.1268  0.4460
  148SAPE  C31516384   0.412   3.139   8.445 -0.1788 -0.2177  0.5494
  148SAPE  H15X16385   0.394   3.035   8.483 -3.6614  0.4514  0.9171
  148SAPE  H15Y16386   0.343   3.197   8.510 -0.5431 -0.6823  0.5877
  148SAPE  C31616387   0.553   3.193   8.462  0.1153  0.0097  0.5709
  148SAPE  H16X16388   0.628   3.120   8.424  0.7571  1.3900 -0.8972
  148SAPE  H16Y16389   0.577   3.193   8.570 -2.3411 -2.4931  1.1617
  148SAPE  C31716390   0.590   3.326   8.393 -0.5100  0.0488  0.1458
  148SAPE  H17X16391   0.523   3.408   8.425  0.0325  0.4739  0.1976
  148SAPE  H17Y16392   0.566   3.322   8.285 -2.4967 -1.8000  0.6165
  148SAPE  C31816393   0.743   3.362   8.394 -0.1102  0.4710  0.2205
  148SAPE  H18X16394   0.782   3.352   8.498  0.8734  0.7269 -0.1140
  148SAPE  H18Y16395   0.749   3.468   8.364 -2.1543  0.0424 -1.8247
  148SAPE  H18Z16396   0.799   3.299   8.321  0.2486  0.9975  0.0439
  149SAPE     N16397   0.401   2.553   6.332 -0.7562  0.3726 -0.2183
  149SAPE   HN116398   0.440   2.597   6.246  0.8268 -2.3022 -0.9446
  149SAPE   HN216399   0.428   2.453   6.337  0.5448  0.7253  0.0869
  149SAPE   HN316400   0.306   2.530   6.298 -0.8768  2.4813 -1.3876
  149SAPE   C1216401   0.400   2.636   6.456  0.0154 -0.0544 -0.6083
  149SAPE  H12A16402   0.393   2.741   6.420  1.3500  0.2455 -0.0061
  149SAPE  H12B16403   0.500   2.620   6.501  1.4499  1.0065 -3.2911
  149SAPE   C1116404   0.290   2.588   6.550  0.1891  1.1798 -0.2146
  149SAPE  H11A16405   0.315   2.646   6.641  1.4128  0.3076  0.0075
  149SAPE  H11B16406   0.291   2.478   6.568 -1.4694  1.4601  1.7832
  149SAPE     P16407   0.066   2.570   6.401  0.0166  0.1265 -0.0024
  149SAPE   O1316408  -0.018   2.672   6.342  0.0259 -0.4730  0.1791
  149SAPE   O1416409   0.146   2.487   6.308  0.7374 -0.3389 -0.7693
  149SAPE   O1216410   0.165   2.636   6.503  0.5747 -0.3526 -0.2085
  149SAPE   O1116411  -0.017   2.464   6.484  0.0491 -0.2875 -0.3274
  149SAPE    C116412  -0.134   2.503   6.561  0.4927 -0.1142 -0.4154
  149SAPE    HA16413  -0.189   2.592   6.523  0.5009  1.3616  2.8589
  149SAPE    HB16414  -0.209   2.420   6.564  0.5200 -0.0857  2.6314
  149SAPE    C216415  -0.098   2.537   6.708  0.0289 -0.2127 -0.2625
  149SAPE    HS16416  -0.190   2.568   6.761  1.3423  2.0375  0.7763
  149SAPE   O2116417  -0.007   2.643   6.726 -0.8215  0.2952  0.8405
  149SAPE   C2116418  -0.047   2.768   6.689 -0.2728  0.0203 -0.8046
  149SAPE   O2216419  -0.158   2.802   6.648  0.1394 -0.4858 -0.0861
  149SAPE   C2216420   0.070   2.866   6.707  0.0018  0.1511  0.4339
  149SAPE   H2R16421   0.172   2.826   6.691  0.1670  1.5964 -2.5280
  149SAPE   H2S16422   0.057   2.939   6.624  3.1613 -0.6562 -0.8471
  149SAPE    C316423  -0.047   2.409   6.780  0.0943  0.0432 -0.6063
  149SAPE    HX16424   0.050   2.376   6.738  0.0332 -1.5389  0.4119
  149SAPE    HY16425  -0.119   2.326   6.762 -0.2499  0.2762 -0.3181
  149SAPE   O3116426  -0.034   2.426   6.924 -0.6355 -0.1192  0.1795
  149SAPE   C3116427  -0.008   2.315   6.990 -0.6425 -0.1240  0.2680
  149SAPE   O3216428  -0.014   2.203   6.946  0.0653 -0.4392  0.9976
  149SAPE   C3216429   0.011   2.350   7.132  0.2854  0.1671  0.5381
  149SAPE   H2X16430  -0.091   2.365   7.173  1.2503  2.5971  2.1193
  149SAPE   H2Y16431   0.062   2.449   7.139  0.7317  0.1036 -1.3278
  149SAPE   C2316432   0.060   2.946   6.840 -1.2206  0.5446 -0.1621
  149SAPE   H3R16433  -0.042   2.985   6.855 -1.2570 -0.1478  1.4776
  149SAPE   H3S16434   0.138   3.024   6.828  0.4793 -0.9394  0.9054
  149SAPE   C2416435   0.076   2.866   6.966 -0.3055  0.5436 -0.2097
  149SAPE   H4R16436   0.184   2.838   6.960 -0.0217  1.5253  0.1319
  149SAPE   H4S16437   0.018   2.772   6.970  0.4924  0.1060  1.5390
  149SAPE   C2516438   0.056   2.958   7.085 -0.2121 -0.1440  0.3196
  149SAPE   H5R16439   0.101   3.058   7.079 -1.6464  0.4485 -0.8100
  149SAPE   C2616440  -0.017   2.933   7.199  0.0470 -0.4217  0.1334
  149SAPE   H6R16441  -0.032   3.020   7.265  0.3348 -0.0464 -0.2893
  149SAPE   C2716442  -0.085   2.800   7.228  0.7388  0.3470  0.4448
  149SAPE   H7R16443  -0.006   2.723   7.243  1.4215  1.2245  1.4594
  149SAPE   H7S16444  -0.139   2.764   7.138  0.7117 -3.5001  1.9091
  149SAPE   C2816445  -0.176   2.804   7.342  0.2084  0.4914  0.5286
  149SAPE   H8R16446  -0.213   2.907   7.357 -0.0355  0.6563 -1.0454
  149SAPE   C2916447  -0.222   2.700   7.419 -0.5424  0.1372  0.1373
  149SAPE   H9R16448  -0.303   2.717   7.492  0.4454  0.4902  1.1649
  149SAPE  C21016449  -0.185   2.552   7.394  0.6960 -0.0370  0.7819
  149SAPE  H10R16450  -0.085   2.535   7.439  1.8518 -0.2752 -1.7888
  149SAPE  H10S16451  -0.172   2.527   7.287 -0.6585  0.7194  0.4333
  149SAPE  C21116452  -0.278   2.449   7.457 -0.6188 -0.1574  0.4071
  149SAPE  H11R16453  -0.317   2.382   7.379 -1.8588  1.4054 -0.3689
  149SAPE  C21216454  -0.315   2.432   7.585  0.1401  0.3986  0.2882
  149SAPE  H12R16455  -0.363   2.337   7.609  0.5268 -0.4277 -2.0331
  149SAPE  C21316456  -0.285   2.512   7.714 -0.4195  0.7868  0.3533
  149SAPE  H13R16457  -0.376   2.530   7.775 -1.9763  0.0642 -1.6778
  149SAPE  H13S16458  -0.253   2.615   7.684  1.0465  0.5771  1.1605
  149SAPE  C21416459  -0.182   2.446   7.799 -0.5338  0.0422  0.2759
  149SAPE  H14R16460  -0.096   2.399   7.749  2.4201  1.4047  3.8290
  149SAPE  C21516461  -0.181   2.445   7.936  0.2593 -0.2400  0.3545
  149SAPE  H15R16462  -0.101   2.384   7.980 -0.9828 -0.7088  1.9989
  149SAPE  C21616463  -0.289   2.509   8.022 -0.4308 -1.1255 -0.1843
  149SAPE  H16R16464  -0.354   2.431   8.067 -1.2255  0.0848  0.8134
  149SAPE  H16S16465  -0.343   2.590   7.969  2.0096  0.2581 -0.6065
  149SAPE  C21716466  -0.210   2.579   8.141  1.0130 -0.4711 -0.8889
  149SAPE  H17R16467  -0.130   2.644   8.099  0.1987  1.9258  1.1542
  149SAPE  H17S16468  -0.168   2.493   8.197  0.1066 -1.4401 -1.6613
  149SAPE  C21816469  -0.292   2.653   8.241 -0.2680 -0.5587 -0.7449
  149SAPE  H18R16470  -0.390   2.602   8.250  0.8677 -2.2975  2.5699
  149SAPE  H18S16471  -0.317   2.751   8.195 -0.5529  0.4086  1.4127
  149SAPE  C21916472  -0.228   2.687   8.376 -0.1694 -0.1654  0.7447
  149SAPE  H19R16473  -0.189   2.584   8.392 -0.9007 -0.8708 -1.7613
  149SAPE  H19S16474  -0.307   2.718   8.448  0.7679 -0.5029  1.9311
  149SAPE  C22016475  -0.112   2.792   8.358 -0.4699 -0.1843  0.1591
  149SAPE  H20R16476  -0.042   2.745   8.286 -1.7955 -0.0957 -1.2278
  149SAPE  H20S16477  -0.048   2.808   8.447 -0.2643  0.2269 -0.0636
  149SAPE  H20T16478  -0.154   2.887   8.319  1.3049 -0.0220 -1.4365
  149SAPE   C3316479   0.079   2.239   7.218  0.2912 -0.2086  0.7351
  149SAPE   H3X16480   0.184   2.218   7.190  0.2211  0.8957 -0.3846
  149SAPE   H3Y16481   0.022   2.145   7.201  0.7516 -0.4447  0.4672
  149SAPE   C3416482   0.084   2.271   7.365 -0.5836 -0.2279 -0.4171
  149SAPE   H4X16483   0.013   2.212   7.428  1.2473 -1.2762  0.7138
  149SAPE   H4Y16484   0.056   2.378   7.370  0.2647 -0.1030  2.2879
  149SAPE   C3516485   0.219   2.256   7.440 -0.1106  0.3527 -0.5846
  149SAPE   H5X16486   0.289   2.322   7.385  0.5750  0.9677  0.9968
  149SAPE   H5Y16487   0.250   2.150   7.430 -1.5641 -0.1133 -0.2982
  149SAPE   C3616488   0.203   2.303   7.585  0.0447  0.0278  0.2496
  149SAPE   H6X16489   0.106   2.283   7.636  0.0698  0.6719  0.5524
  149SAPE   H6Y16490   0.219   2.412   7.602  4.2477 -0.3164 -0.8698
  149SAPE   C3716491   0.282   2.225   7.686 -0.8845 -0.5167 -1.2885
  149SAPE   H7X16492   0.376   2.177   7.648 -0.4025 -1.5328  1.0783
  149SAPE   H7Y16493   0.229   2.147   7.745 -0.9061 -1.4636 -2.5274
  149SAPE   C3816494   0.333   2.320   7.791 -0.6940  0.0815  0.3679
  149SAPE   H8X16495   0.379   2.409   7.742 -2.1390  0.9812  0.6167
  149SAPE   H8Y16496   0.417   2.275   7.848  0.8159  1.4055 -0.7788
  149SAPE   C3916497   0.222   2.357   7.887  0.1193 -0.0604 -0.0062
  149SAPE   H9X16498   0.168   2.265   7.919 -0.2334  0.1304 -0.0527
  149SAPE   H9Y16499   0.153   2.423   7.831  1.2942  0.8997 -0.3536
  149SAPE  C31016500   0.263   2.431   8.011  0.1408 -0.9445  0.9206
  149SAPE  H10X16501   0.313   2.529   7.993  0.4167 -1.4772 -1.3879
  149SAPE  H10Y16502   0.320   2.363   8.077  1.7551 -2.3562 -1.8721
  149SAPE  C31116503   0.130   2.477   8.089  0.3236  0.0508 -0.2377
  149SAPE  H11X16504   0.070   2.383   8.098  2.4115 -1.4933 -2.0028
  149SAPE  H11Y16505   0.067   2.552   8.036  0.1609  1.1678  1.4757
  149SAPE  C31216506   0.153   2.520   8.237  0.6876 -0.0526  0.0267
  149SAPE  H12X16507   0.226   2.445   8.273  1.3017  0.7309  0.4369
  149SAPE  H12Y16508   0.065   2.530   8.303  1.8801  0.7376  1.5246
  149SAPE  C31316509   0.227   2.657   8.246  0.1302  0.2661  0.0348
  149SAPE  H13X16510   0.169   2.743   8.205 -0.1916 -0.0075 -0.0896
  149SAPE  H13Y16511   0.325   2.676   8.197 -0.8494  0.9723 -1.7105
  149SAPE  C31416512   0.261   2.701   8.388 -0.3167  0.0339  0.0720
  149SAPE  H14X16513   0.165   2.717   8.442 -0.4342 -0.5197  0.0261
  149SAPE  H14Y16514   0.313   2.799   8.386  1.3737 -0.7919  2.1416
  149SAPE  C31516515   0.338   2.601   8.464  0.0078  0.8489 -0.0392
  149SAPE  H15X16516   0.299   2.498   8.451  0.5823  0.9169 -2.6689
  149SAPE  H15Y16517   0.329   2.616   8.574  0.5761  0.7388  0.0217
  149SAPE  C31616518   0.490   2.600   8.428 -1.2274  0.2781  0.9506
  149SAPE  H16X16519   0.531   2.701   8.449  1.2049 -0.4155 -0.2857
  149SAPE  H16Y16520   0.485   2.569   8.321 -2.0298 -3.1473  1.9029
  149SAPE  C31716521   0.583   2.492   8.484 -0.4779  0.1111  0.3345
  149SAPE  H17X16522   0.537   2.394   8.459 -2.7791  1.3009 -0.2681
  149SAPE  H17Y16523   0.589   2.498   8.595  2.8713 -0.8133  0.2703
  149SAPE  C31816524   0.720   2.504   8.429 -0.7176 -0.3466 -0.8377
  149SAPE  H18X16525   0.787   2.575   8.482  1.1490 -2.0866 -0.7864
  149SAPE  H18Y16526   0.719   2.546   8.326 -4.3564  0.8460 -0.3555
  149SAPE  H18Z16527   0.764   2.402   8.422  0.3935 -0.2208  3.1777
  150SAPE     N16528   5.459   3.777   6.396 -0.2531 -0.1371 -0.0316
  150SAPE   HN116529   5.390   3.715   6.350 -0.3049  0.1412 -0.3335
  150SAPE   HN216530   5.423   3.875   6.401 -1.4179 -0.6495  2.1457
  150SAPE   HN316531   5.544   3.787   6.336  1.4688  1.8767  2.6058
  150SAPE   C1216532   5.483   3.739   6.536 -0.6440  0.3988  0.3034
  150SAPE  H12A16533   5.499   3.629   6.545  2.1437  0.7645  0.2259
  150SAPE  H12B16534   5.390   3.760   6.593 -0.1155  0.5922  1.0993
  150SAPE   C1116535   5.611   3.819   6.595  0.2280 -0.4272  0.1802
  150SAPE  H11A16536   5.707   3.788   6.549  1.2461 -0.1593  2.0940
  150SAPE  H11B16537   5.615   3.790   6.702 -1.8227 -2.5088 -0.2522
  150SAPE     P16538   5.667   4.067   6.511 -0.3907  0.1540 -0.2309
  150SAPE   O1316539   5.593   4.077   6.384 -0.2538 -0.1269 -0.1380
  150SAPE   O1416540   5.676   4.188   6.596  0.0880 -0.4635 -0.2830
  150SAPE   O1216541   5.579   3.962   6.590 -0.4441  0.2331 -0.3918
  150SAPE   O1116542   5.795   3.981   6.494  0.3969 -0.3832  0.4398
  150SAPE    C116543   5.921   4.023   6.545  0.3602  0.3942  0.8553
  150SAPE    HA16544   5.998   4.000   6.468 -0.9174 -2.0064  0.2188
  150SAPE    HB16545   5.918   4.132   6.564  1.2241  0.8085 -1.2719
  150SAPE    C216546   5.951   3.943   6.681  0.5660  0.3502  0.2116
  150SAPE    HS16547   5.929   3.836   6.664 -1.4342  0.9778 -1.4012
  150SAPE   O2116548   5.886   4.002   6.794  0.3301 -0.5438  0.5468
  150SAPE   C2116549   5.832   3.917   6.876  0.0266  0.4018 -0.9135
  150SAPE   O2216550   5.840   3.793   6.859  0.1552  0.3701  0.3097
  150SAPE   C2216551   5.758   3.991   6.991 -0.8359  0.1050  0.5110
  150SAPE   H2R16552   5.693   4.067   6.943 -0.9474  0.3311  1.0080
  150SAPE   H2S16553   5.690   3.923   7.048  1.2516 -1.4598  1.2241
  150SAPE    C316554   6.104   3.951   6.712 -0.3349 -0.1646 -1.1097
  150SAPE    HX16555   6.138   4.056   6.707 -3.2509  0.8820 -0.1048
  150SAPE    HY16556   6.150   3.903   6.623  1.2568  3.7057 -2.4799
  150SAPE   O3116557   6.150   3.889   6.832 -0.7399  0.1682 -0.0859
  150SAPE   C3116558   6.157   3.755   6.828  0.0282 -0.1983 -0.3015
  150SAPE   O3216559   6.166   3.694   6.722 -0.4413  0.4439 -0.5704
  150SAPE   C3216560   6.172   3.701   6.968  0.6871  0.0674 -0.3101
  150SAPE   H2X16561   6.102   3.758   7.032  1.3130  0.2339  0.2276
  150SAPE   H2Y16562   6.278   3.718   6.995  1.1227 -1.3066 -1.0694
  150SAPE   C2316563   5.859   4.051   7.088  0.4169 -0.0068  0.6325
  150SAPE   H3R16564   5.946   4.104   7.042  0.2573 -0.6192 -0.3965
  150SAPE   H3S16565   5.911   3.969   7.141 -0.0535  0.0527  1.1860
  150SAPE   C2416566   5.798   4.164   7.177 -0.2062  0.6663 -0.2632
  150SAPE   H4R16567   5.752   4.234   7.104  0.4015 -0.2169 -1.5176
  150SAPE   H4S16568   5.887   4.210   7.223 -1.0105  1.7725  0.1930
  150SAPE   C2516569   5.689   4.119   7.271  0.5914  0.2694  0.5858
  150SAPE   H5R16570   5.602   4.090   7.211  0.5011 -1.4699  1.5433
  150SAPE   C2616571   5.688   4.104   7.407 -0.6472  0.2718  0.4117
  150SAPE   H6R16572   5.598   4.061   7.454  1.1670  0.9922  4.7676
  150SAPE   C2716573   5.809   4.140   7.498 -0.7796 -0.0998  0.1611
  150SAPE   H7R16574   5.763   4.154   7.598  1.1410  0.7133  0.9577
  150SAPE   H7S16575   5.847   4.243   7.478 -3.0445  0.9290  0.9122
  150SAPE   C2816576   5.920   4.044   7.488 -0.4578 -0.2436 -1.0838
  150SAPE   H8R16577   5.950   4.015   7.386 -0.3263  0.6789 -1.3138
  150SAPE   C2916578   5.976   3.980   7.601 -0.1168 -0.1019 -0.0029
  150SAPE   H9R16579   6.061   3.910   7.594 -0.7521 -1.0083  1.1058
  150SAPE  C21016580   5.935   4.006   7.744 -0.3561  0.4409  0.3741
  150SAPE  H10R16581   5.828   3.978   7.757 -0.0052 -0.0830  2.1111
  150SAPE  H10S16582   5.939   4.117   7.750 -0.2689  0.6764 -2.7947
  150SAPE  C21116583   6.020   3.951   7.852  0.2427  0.1757  0.7464
  150SAPE  H11R16584   6.127   3.963   7.831 -0.0821 -0.2767 -1.2031
  150SAPE  C21216585   5.986   3.917   7.975 -0.3871 -0.2407  0.1372
  150SAPE  H12R16586   6.063   3.902   8.052 -0.6829  1.5386  0.8015
  150SAPE  C21316587   5.844   3.908   8.032  0.0767 -0.3459 -0.1400
  150SAPE  H13R16588   5.765   3.952   7.967  0.6121  0.1924 -0.4301
  150SAPE  H13S16589   5.841   3.968   8.126 -0.1936 -0.3103 -0.1714
  150SAPE  C21416590   5.797   3.771   8.067 -0.4827 -0.3887  0.0404
  150SAPE  H14R16591   5.813   3.692   7.992  0.6665 -0.5969  0.4904
  150SAPE  C21516592   5.740   3.735   8.187 -0.2673 -0.3534  0.0400
  150SAPE  H15R16593   5.714   3.630   8.208 -1.4283  0.2190  1.5364
  150SAPE  C21616594   5.715   3.831   8.298  0.0032  0.3712 -0.0979
  150SAPE  H16R16595   5.649   3.908   8.254  0.9520  1.2078 -0.0774
  150SAPE  H16S16596   5.806   3.886   8.330 -1.3259  2.5010  0.1134
  150SAPE  C21716597   5.639   3.776   8.424  0.2315 -0.5801  0.2715
  150SAPE  H17R16598   5.554   3.721   8.380  0.9581 -1.5662  0.0829
  150SAPE  H17S16599   5.610   3.864   8.485  0.2475 -0.4896  0.1486
  150SAPE  C21816600   5.737   3.687   8.508 -0.2636  0.4741 -0.3422
  150SAPE  H18R16601   5.843   3.708   8.480  0.3225 -0.1044  1.3795
  150SAPE  H18S16602   5.719   3.581   8.479  3.5606  0.1600 -1.9378
  150SAPE  C21916603   5.710   3.705   8.659 -1.4184  0.1456 -0.2425
  150SAPE  H19R16604   5.600   3.700   8.668 -1.3625 -0.0264  0.3930
  150SAPE  H19S16605   5.739   3.808   8.689 -0.7210  0.3047 -1.4332
  150SAPE  C22016606   5.771   3.601   8.755  0.4068  0.3832  0.0083
  150SAPE  H20R16607   5.760   3.636   8.860 -0.6516 -1.3363  0.4872
  150SAPE  H20S16608   5.879   3.585   8.734  0.1974  0.7099 -1.3718
  150SAPE  H20T16609   5.716   3.506   8.739  2.4074 -0.9880  1.1186
  150SAPE   C3316610   6.133   3.551   6.979  0.4284  0.1786  0.3838
  150SAPE   H3X16611   6.197   3.488   6.913 -0.0546 -0.3920  0.4542
  150SAPE   H3Y16612   6.030   3.535   6.940  1.4327 -1.7228 -1.5941
  150SAPE   C3416613   6.130   3.506   7.126  0.8959  0.6170 -0.0439
  150SAPE   H4X16614   6.046   3.555   7.179  1.8930 -0.7960  2.9615
  150SAPE   H4Y16615   6.227   3.544   7.165 -0.4024  2.7804  1.1992
  150SAPE   C3516616   6.138   3.354   7.152  0.5324  0.0087  0.0426
  150SAPE   H5X16617   6.221   3.305   7.096  1.3923  0.4930  0.8756
  150SAPE   H5Y16618   6.047   3.297   7.123 -0.5545  1.9458 -0.4016
  150SAPE   C3616619   6.168   3.310   7.305  0.4419  0.0719 -0.1670
  150SAPE   H6X16620   6.096   3.355   7.377  1.5291  2.0280 -0.2713
  150SAPE   H6Y16621   6.267   3.350   7.335  0.8908 -0.2410 -1.2375
  150SAPE   C3716622   6.178   3.154   7.313 -0.4297 -0.2906 -0.2921
  150SAPE   H7X16623   6.224   3.109   7.222  1.2202 -0.2961  0.5321
  150SAPE   H7Y16624   6.070   3.125   7.311 -0.6242  0.4305 -0.4063
  150SAPE   C3816625   6.252   3.115   7.432  0.6043  0.0211 -0.1720
  150SAPE   H8X16626   6.208   3.156   7.525 -3.3011 -3.3462 -0.4057
  150SAPE   H8Y16627   6.357   3.151   7.431  0.5462  0.2670  1.3095
  150SAPE   C3916628   6.274   2.963   7.452 -0.0619  0.6763 -0.4876
  150SAPE   H9X16629   6.351   2.924   7.383  0.1970 -0.7182  0.5642
  150SAPE   H9Y16630   6.173   2.920   7.434  0.0891 -0.2561  0.8162
  150SAPE  C31016631   6.306   2.932   7.601  0.3975 -0.0108  0.6440
  150SAPE  H10X16632   6.300   2.822   7.610  0.4702  0.0403  1.3349
  150SAPE  H10Y16633   6.231   2.984   7.664  0.3033 -1.1399  1.4753
  150SAPE  C31116634   6.437   2.990   7.650 -0.3537 -0.4045 -0.5898
  150SAPE  H11X16635   6.439   3.100   7.639 -2.0113 -0.3726 -0.8210
  150SAPE  H11Y16636   6.523   2.951   7.592  0.5382  0.7583 -0.0501
  150SAPE  C31216637   6.476   2.957   7.805 -0.4204  0.3809 -0.0006
  150SAPE  H12X16638   6.577   2.998   7.823  0.2539 -0.1792 -2.2951
  150SAPE  H12Y16639   6.477   2.847   7.819  1.9246 -0.0969 -3.1948
  150SAPE  C31316640   6.376   3.018   7.903 -1.0105 -0.3927  0.3514
  150SAPE  H13X16641   6.273   3.012   7.861 -1.0708  1.0896  0.2421
  150SAPE  H13Y16642   6.398   3.126   7.918 -0.3553 -0.5524  0.5886
  150SAPE  C31416643   6.382   2.945   8.033 -1.0478  0.4295 -0.2232
  150SAPE  H14X16644   6.478   2.969   8.084 -1.8385  2.8093  0.2128
  150SAPE  H14Y16645   6.381   2.835   8.017  2.0484 -0.0148  2.1934
  150SAPE  C31516646   6.262   2.978   8.123 -0.4120 -0.1991  0.7011
  150SAPE  H15X16647   6.176   2.919   8.087  0.4525 -3.5009  3.7594
  150SAPE  H15Y16648   6.238   3.085   8.106  0.3434  0.3371  2.7475
  150SAPE  C31616649   6.274   2.958   8.271  0.3436 -0.5588  0.6135
  150SAPE  H16X16650   6.352   3.027   8.308 -0.0680  0.5428 -0.5513
  150SAPE  H16Y16651   6.290   2.852   8.303  2.4420 -0.4859 -0.1237
  150SAPE  C31716652   6.148   3.001   8.356 -0.0870  0.0590  0.0034
  150SAPE  H17X16653   6.065   2.943   8.310 -0.5171  1.4313 -0.9870
  150SAPE  H17Y16654   6.126   3.108   8.333  0.8883 -0.1361 -1.9032
  150SAPE  C31816655   6.155   2.982   8.509 -0.6811 -0.2614 -0.9966
  150SAPE  H18X16656   6.235   3.046   8.552 -0.3218  0.0571 -2.1290
  150SAPE  H18Y16657   6.179   2.879   8.542  1.3679 -0.0900 -1.8895
  150SAPE  H18Z16658   6.053   2.994   8.552 -1.0282 -3.7317 -0.7184
  151SAPE     N16659   1.530   1.481   6.148 -0.0867 -0.3529 -0.4269
  151SAPE   HN116660   1.606   1.477   6.219 -1.1010  1.5934  0.8386
  151SAPE   HN216661   1.532   1.578   6.110 -0.8384 -0.6705 -1.2848
  151SAPE   HN316662   1.435   1.471   6.190  0.2237 -0.6146  0.2115
  151SAPE   C1216663   1.566   1.392   6.037  0.0620 -0.6429 -0.2933
  151SAPE  H12A16664   1.661   1.432   5.995  0.7457 -0.9794  0.8819
  151SAPE  H12B16665   1.487   1.409   5.961  0.1593 -0.1272 -0.2823
  151SAPE   C1116666   1.575   1.244   6.079 -0.5079 -0.9778 -0.6904
  151SAPE  H11A16667   1.675   1.232   6.127  0.1143  0.8957 -1.4879
  151SAPE  H11B16668   1.584   1.186   5.985  0.4206 -1.7291 -0.1476
  151SAPE     P16669   1.477   1.140   6.301  0.1300  0.4265  0.0625
  151SAPE   O1316670   1.337   1.148   6.347  0.0669 -0.1424  0.3444
  151SAPE   O1416671   1.549   1.006   6.308  0.1381  0.4022 -0.7698
  151SAPE   O1216672   1.468   1.195   6.159  0.9920  0.4544 -0.1554
  151SAPE   O1116673   1.564   1.256   6.372 -0.1913 -0.3124 -0.0667
  151SAPE    C116674   1.694   1.224   6.421  1.0845  0.5658 -0.1296
  151SAPE    HA16675   1.744   1.136   6.376  0.9045  0.5842 -0.3674
  151SAPE    HB16676   1.773   1.298   6.396 -0.3324  1.5500 -1.8495
  151SAPE    C216677   1.703   1.218   6.576 -0.4776  0.4875  1.4002
  151SAPE    HS16678   1.810   1.191   6.591 -0.2129  0.4004 -0.4519
  151SAPE   O2116679   1.610   1.117   6.628 -0.2631 -0.6705  0.1833
  151SAPE   C2116680   1.661   1.062   6.740 -0.1249 -0.9459  0.0538
  151SAPE   O2216681   1.775   1.072   6.783 -0.2397  0.3971 -0.0164
  151SAPE   C2216682   1.543   0.986   6.808 -0.7968 -0.2289  0.3817
  151SAPE   H2R16683   1.474   0.946   6.731  0.5976  1.0367 -1.5752
  151SAPE   H2S16684   1.595   0.906   6.865 -2.2623  1.1641  3.8301
  151SAPE    C316685   1.683   1.357   6.638  0.5744 -0.5036  0.0075
  151SAPE    HX16686   1.592   1.410   6.602 -0.1023 -0.2771  1.9497
  151SAPE    HY16687   1.775   1.410   6.606 -0.2513 -0.3534 -2.1674
  151SAPE   O3116688   1.690   1.347   6.782  0.5320  0.0190 -0.4844
  151SAPE   C3116689   1.636   1.448   6.853 -0.0200  0.3520  0.2493
  151SAPE   O3216690   1.557   1.529   6.800  0.0253  0.4553  0.1578
  151SAPE   C3216691   1.669   1.436   7.005  0.0458  0.3271  0.3945
  151SAPE   H2X16692   1.742   1.515   7.036 -1.0943  0.7096  2.1490
  151SAPE   H2Y16693   1.714   1.336   7.019 -0.2798  0.1173 -0.0596
  151SAPE   C2316694   1.466   1.073   6.916  0.4258  0.2948 -0.1503
  151SAPE   H3R16695   1.407   1.143   6.853  0.7597 -0.1427 -0.9554
  151SAPE   H3S16696   1.542   1.132   6.970  2.1356 -1.2432 -0.8242
  151SAPE   C2416697   1.378   0.995   7.018  0.2394 -0.3983 -0.5822
  151SAPE   H4R16698   1.446   0.929   7.077  0.2326 -2.1718 -2.5010
  151SAPE   H4S16699   1.304   0.933   6.964 -0.6667  1.1424 -1.1388
  151SAPE   C2516700   1.301   1.083   7.109  0.5018  0.4492 -0.6470
  151SAPE   H5R16701   1.215   1.139   7.068  0.1675  0.3985 -0.0294
  151SAPE   C2616702   1.311   1.092   7.247  0.0350  0.5925 -0.5683
  151SAPE   H6R16703   1.248   1.169   7.295  0.3768 -0.4629  1.6537
  151SAPE   C2716704   1.409   1.025   7.337  0.1196  0.2804  0.1969
  151SAPE   H7R16705   1.506   1.001   7.290 -0.2988 -0.0711 -0.4956
  151SAPE   H7S16706   1.364   0.925   7.353  1.0680 -0.2575 -0.5203
  151SAPE   C2816707   1.432   1.091   7.471 -0.4108 -0.1614  0.5129
  151SAPE   H8R16708   1.480   1.189   7.457  1.5710 -1.3130 -0.9335
  151SAPE   C2916709   1.387   1.047   7.593 -0.5823  0.1262 -0.5786
  151SAPE   H9R16710   1.420   1.106   7.679 -2.2530 -0.4623  0.4768
  151SAPE  C21016711   1.318   0.918   7.623 -0.1174 -0.6344  0.1181
  151SAPE  H10R16712   1.276   0.882   7.527 -3.5119  1.3642  0.7473
  151SAPE  H10S16713   1.217   0.929   7.670 -0.5598 -2.7500 -0.2964
  151SAPE  C21116714   1.395   0.816   7.695 -0.0331  0.2547 -0.3319
  151SAPE  H11R16715   1.412   0.727   7.632 -0.2755 -0.1350  0.1391
  151SAPE  C21216716   1.436   0.807   7.826  0.7985 -0.1311  0.2497
  151SAPE  H12R16717   1.485   0.718   7.869  0.7045  0.2644  1.2000
  151SAPE  C21316718   1.415   0.923   7.920 -0.1000 -0.6258 -0.7990
  151SAPE  H13R16719   1.377   0.890   8.019 -1.1287  0.1221 -0.9327
  151SAPE  H13S16720   1.334   0.987   7.878  0.6593 -0.9012 -2.7449
  151SAPE  C21416721   1.537   1.015   7.926 -0.0277  0.0244  0.5326
  151SAPE  H14R16722   1.617   1.000   7.852 -0.5512  1.2757 -0.3162
  151SAPE  C21516723   1.550   1.120   8.013  0.3986  0.4839  0.2700
  151SAPE  H15R16724   1.641   1.182   8.009  1.8211 -1.4543  1.4399
  151SAPE  C21616725   1.442   1.163   8.112 -0.5953 -1.3348  0.3140
  151SAPE  H16R16726   1.350   1.101   8.114 -2.6131  1.5988  2.5371
  151SAPE  H16S16727   1.406   1.261   8.075 -0.0426 -1.5618 -0.8612
  151SAPE  C21716728   1.494   1.173   8.256  0.3476 -0.4413  0.5932
  151SAPE  H17R16729   1.572   1.251   8.257 -0.8932  0.8598 -0.5358
  151SAPE  H17S16730   1.538   1.077   8.290  0.4087 -1.0956 -1.2565
  151SAPE  C21816731   1.378   1.221   8.338  0.0188 -0.0871 -0.0963
  151SAPE  H18R16732   1.314   1.132   8.351  1.6732 -0.7914  4.0075
  151SAPE  H18S16733   1.323   1.300   8.281  1.0723 -0.2938 -1.4404
  151SAPE  C21916734   1.403   1.288   8.476  0.8309  0.6137 -0.2655
  151SAPE  H19R16735   1.473   1.373   8.463  0.8975  0.2680 -2.4720
  151SAPE  H19S16736   1.453   1.213   8.542 -0.0424  0.8679  0.6896
  151SAPE  C22016737   1.281   1.329   8.555 -0.1960  0.6539  0.4703
  151SAPE  H20R16738   1.232   1.415   8.506  0.2954  1.8221  1.9791
  151SAPE  H20S16739   1.207   1.247   8.571  0.5445 -0.2737 -0.7703
  151SAPE  H20T16740   1.311   1.370   8.654  1.2765  0.6545  0.0327
  151SAPE   C3316741   1.545   1.454   7.094 -0.4279 -0.3524  0.1165
  151SAPE   H3X16742   1.471   1.376   7.065  1.1694 -0.7075 -3.2363
  151SAPE   H3Y16743   1.492   1.551   7.080  0.1433  0.0083  0.4232
  151SAPE   C3416744   1.568   1.432   7.235  0.1133  0.1535  0.2161
  151SAPE   H4X16745   1.636   1.506   7.283 -1.4922  0.7172  1.6910
  151SAPE   H4Y16746   1.617   1.334   7.254  1.7649  1.0077  0.4775
  151SAPE   C3516747   1.439   1.433   7.328 -0.8721 -0.0683 -0.5829
  151SAPE   H5X16748   1.451   1.385   7.428  0.4415  0.9926 -0.2213
  151SAPE   H5Y16749   1.365   1.376   7.267 -1.7787  0.4836 -0.0105
  151SAPE   C3616750   1.381   1.573   7.351 -0.2273 -0.2008 -1.2068
  151SAPE   H6X16751   1.341   1.615   7.256  1.1235  1.8979 -0.8844
  151SAPE   H6Y16752   1.472   1.623   7.390 -0.6553 -1.4618  1.4596
  151SAPE   C3716753   1.263   1.595   7.455 -1.1346 -0.7379 -0.3254
  151SAPE   H7X16754   1.164   1.566   7.415 -0.1772 -2.7445 -1.3275
  151SAPE   H7Y16755   1.253   1.703   7.480 -0.3496 -0.5035 -0.9880
  151SAPE   C3816756   1.273   1.511   7.588 -0.2229 -0.2126  0.8711
  151SAPE   H8X16757   1.271   1.403   7.561 -2.9440  0.0482 -0.0863
  151SAPE   H8Y16758   1.183   1.534   7.648 -0.1361 -2.1026  1.7579
  151SAPE   C3916759   1.387   1.559   7.679  0.7199  0.2714  0.2860
  151SAPE   H9X16760   1.368   1.662   7.715 -0.4155  0.4658 -0.8111
  151SAPE   H9Y16761   1.486   1.556   7.629 -0.3725  1.0021 -1.9921
  151SAPE  C31016762   1.368   1.487   7.808  0.8917 -0.4324  0.4093
  151SAPE  H10X16763   1.385   1.377   7.808  2.9907 -0.1268  0.8707
  151SAPE  H10Y16764   1.265   1.503   7.844  0.7035 -2.6216  0.9329
  151SAPE  C31116765   1.461   1.535   7.921 -0.1451 -0.3540 -0.4548
  151SAPE  H11X16766   1.435   1.490   8.019  1.6678  1.4626  0.9119
  151SAPE  H11Y16767   1.448   1.643   7.942  1.2304 -0.2037 -0.3461
  151SAPE  C31216768   1.613   1.509   7.890  0.1383  1.0428  0.1015
  151SAPE  H12X16769   1.637   1.550   7.790 -2.1690  1.3454 -0.3716
  151SAPE  H12Y16770   1.624   1.398   7.887 -1.4199  0.8852 -0.6706
  151SAPE  C31316771   1.712   1.565   7.990 -0.7266 -0.0902  0.4986
  151SAPE  H13X16772   1.692   1.674   7.988 -0.5823 -0.0805 -2.1096
  151SAPE  H13Y16773   1.811   1.546   7.945 -1.3460 -1.9219 -0.1389
  151SAPE  C31416774   1.701   1.496   8.126  0.2318 -0.3098  0.4864
  151SAPE  H14X16775   1.710   1.388   8.103  0.9201 -0.4613  1.4107
  151SAPE  H14Y16776   1.605   1.520   8.178  0.6581 -1.2542  1.7414
  151SAPE  C31516777   1.814   1.534   8.210  0.1667  0.0946 -0.2277
  151SAPE  H15X16778   1.907   1.497   8.163 -0.3880 -1.5417 -0.0740
  151SAPE  H15Y16779   1.794   1.479   8.304  0.8515  0.8090  0.3459
  151SAPE  C31616780   1.837   1.679   8.250  0.1675 -0.2945 -0.1532
  151SAPE  H16X16781   1.751   1.708   8.314  0.4585  0.4127 -0.0766
  151SAPE  H16Y16782   1.840   1.733   8.154 -2.2452 -1.5072 -0.9406
  151SAPE  C31716783   1.973   1.695   8.319 -0.3436  0.7740  0.5829
  151SAPE  H17X16784   2.054   1.687   8.243 -0.5590  0.6462  0.3668
  151SAPE  H17Y16785   1.988   1.610   8.389 -2.7822 -0.9654 -0.9308
  151SAPE  C31816786   1.991   1.834   8.387  0.0350  0.3793  0.4238
  151SAPE  H18X16787   1.924   1.844   8.476  0.7204 -1.0584  1.1118
  151SAPE  H18Y16788   1.990   1.914   8.309 -3.5677 -0.9609 -1.0008
  151SAPE  H18Z16789   2.097   1.837   8.421  0.1810  1.4769 -0.0767
  152SAPE     N16790   4.825   4.205   6.228  0.3945 -0.1340  0.0364
  152SAPE   HN116791   4.844   4.245   6.321  0.8914  1.6994 -0.8421
  152SAPE   HN216792   4.769   4.272   6.171  3.0384  1.9403 -0.2166
  152SAPE   HN316793   4.763   4.123   6.244 -2.0233  1.8101  0.8994
  152SAPE   C1216794   4.940   4.168   6.137  0.1795  0.0225 -0.1416
  152SAPE  H12A16795   4.896   4.124   6.045  3.8715 -0.1789 -1.9206
  152SAPE  H12B16796   4.991   4.083   6.188 -0.9417  0.4906  1.8132
  152SAPE   C1116797   5.033   4.290   6.122 -0.0495 -0.1114  0.5722
  152SAPE  H11A16798   4.988   4.390   6.105 -0.4037 -0.3842 -0.1044
  152SAPE  H11B16799   5.112   4.281   6.044  1.2510  1.6910  1.6347
  152SAPE     P16800   5.237   4.269   6.295 -0.2422 -0.0729 -0.3837
  152SAPE   O1316801   5.215   4.121   6.305 -0.1687  0.0140 -0.0605
  152SAPE   O1416802   5.338   4.314   6.196  0.3820  0.0785 -0.0780
  152SAPE   O1216803   5.089   4.321   6.250 -0.3251 -0.5518 -0.1246
  152SAPE   O1116804   5.266   4.333   6.436 -0.3693 -0.0539 -0.2859
  152SAPE    C116805   5.166   4.339   6.539  0.1818  0.2938  0.3283
  152SAPE    HA16806   5.071   4.377   6.497 -0.3190 -0.0602  1.1329
  152SAPE    HB16807   5.142   4.238   6.579 -0.3128  0.8235  1.3705
  152SAPE    C216808   5.211   4.433   6.660 -0.0106 -0.3573 -0.0498
  152SAPE    HS16809   5.127   4.473   6.721  0.7064  0.2792  0.5293
  152SAPE   O2116810   5.298   4.537   6.618  0.7637 -0.4290 -0.0338
  152SAPE   C2116811   5.249   4.623   6.535  0.5003  0.5656 -0.6522
  152SAPE   O2216812   5.132   4.632   6.507  0.1922 -0.1421 -0.0632
  152SAPE   C2216813   5.359   4.710   6.478 -0.3194  0.5011 -0.1841
  152SAPE   H2R16814   5.427   4.642   6.421 -1.7939 -0.8546 -0.3606
  152SAPE   H2S16815   5.306   4.768   6.401  1.8649  0.5550 -1.7027
  152SAPE    C316816   5.294   4.350   6.756  0.2143 -0.4146  0.1704
  152SAPE    HX16817   5.366   4.294   6.692  0.3331 -1.4003  1.1470
  152SAPE    HY16818   5.234   4.272   6.807  0.2886 -1.4650 -1.3139
  152SAPE   O3116819   5.357   4.436   6.853  0.5839 -0.2574 -0.2162
  152SAPE   C3116820   5.483   4.407   6.887 -0.8155  0.3091  0.9616
  152SAPE   O3216821   5.546   4.307   6.859 -0.5130  0.2740  1.0754
  152SAPE   C3216822   5.531   4.514   6.986  0.2672 -1.1240  0.1393
  152SAPE   H2X16823   5.517   4.605   6.924  0.8691  0.2890  2.0423
  152SAPE   H2Y16824   5.640   4.502   7.007  0.5523  0.4135 -0.3719
  152SAPE   C2316825   5.436   4.814   6.569  0.6021  0.9794  0.0523
  152SAPE   H3R16826   5.495   4.870   6.493  0.1986  0.4569 -0.6526
  152SAPE   H3S16827   5.505   4.750   6.627  0.3212 -2.1563 -2.9437
  152SAPE   C2416828   5.350   4.911   6.638  0.4391  0.0679 -0.2698
  152SAPE   H4R16829   5.280   4.854   6.703  2.1362  2.2427  3.5751
  152SAPE   H4S16830   5.279   4.959   6.566 -0.8857 -0.9691  0.3144
  152SAPE   C2516831   5.398   5.031   6.727 -0.1548 -0.4635  0.1690
  152SAPE   H5R16832   5.447   5.108   6.666 -0.5009  0.9582  1.6478
  152SAPE   C2616833   5.403   5.055   6.862 -0.0953 -0.2932  0.4977
  152SAPE   H6R16834   5.426   5.159   6.890 -2.0119  0.5337 -0.9062
  152SAPE   C2716835   5.358   4.967   6.976 -0.2903  0.0667 -0.4785
  152SAPE   H7R16836   5.439   4.897   7.007  0.5568  0.7561 -1.0860
  152SAPE   H7S16837   5.278   4.892   6.958 -0.7875  0.0438  1.7081
  152SAPE   C2816838   5.311   5.059   7.089 -0.1020  0.1418  0.0804
  152SAPE   H8R16839   5.238   5.136   7.062  0.2161  0.8818  1.3485
  152SAPE   C2916840   5.320   5.019   7.215 -0.0186  0.2949  0.0581
  152SAPE   H9R16841   5.285   5.081   7.299  0.7468  0.6255  0.1385
  152SAPE  C21016842   5.383   4.895   7.268 -0.0383  0.0277  0.4814
  152SAPE  H10R16843   5.485   4.915   7.306  0.3500 -0.7040 -0.1634
  152SAPE  H10S16844   5.395   4.823   7.184 -1.5848 -0.6142  0.7936
  152SAPE  C21116845   5.305   4.834   7.378  0.0515  0.9420  0.2714
  152SAPE  H11R16846   5.215   4.782   7.343 -0.0237  0.6232  0.9532
  152SAPE  C21216847   5.335   4.839   7.508  0.5395 -0.3831  0.0384
  152SAPE  H12R16848   5.273   4.779   7.576 -0.1617 -1.2148 -1.3030
  152SAPE  C21316849   5.446   4.918   7.580  0.1787 -0.2958  0.1351
  152SAPE  H13R16850   5.503   4.982   7.509  0.2619 -1.8399 -1.2380
  152SAPE  H13S16851   5.519   4.839   7.609 -0.5450 -0.4711  1.5329
  152SAPE  C21416852   5.399   5.007   7.691 -0.1955  0.2885 -0.1909
  152SAPE  H14R16853   5.395   5.113   7.664 -0.9640  0.7276  1.5603
  152SAPE  C21516854   5.351   4.969   7.816  0.4330 -0.1742  0.4426
  152SAPE  H15R16855   5.353   5.040   7.900  1.1343 -0.7511  0.9180
  152SAPE  C21616856   5.329   4.834   7.876 -0.1285  0.5318 -0.4577
  152SAPE  H16R16857   5.306   4.754   7.802 -0.2647  0.2789 -0.1442
  152SAPE  H16S16858   5.244   4.840   7.948 -1.2831  2.0501 -1.9038
  152SAPE  C21716859   5.441   4.778   7.967 -0.7049 -0.3944  0.1565
  152SAPE  H17R16860   5.537   4.797   7.915 -1.1312  3.2893  0.5967
  152SAPE  H17S16861   5.443   4.667   7.971  0.4580 -0.5710 -3.6801
  152SAPE  C21816862   5.469   4.846   8.103 -0.0661  0.2805  0.8450
  152SAPE  H18R16863   5.450   4.954   8.086 -2.0136  0.1115  1.9011
  152SAPE  H18S16864   5.575   4.844   8.138  1.1643 -2.3024 -2.6741
  152SAPE  C21916865   5.374   4.813   8.219  0.0108 -0.2272 -0.4693
  152SAPE  H19R16866   5.396   4.707   8.242  2.7681  0.5290  0.5044
  152SAPE  H19S16867   5.268   4.796   8.189  0.1841 -1.6994 -0.2789
  152SAPE  C22016868   5.372   4.907   8.344 -0.9093 -0.8077 -0.0180
  152SAPE  H20R16869   5.476   4.925   8.378 -0.5021 -0.0666 -1.6135
  152SAPE  H20S16870   5.308   4.870   8.427 -0.8782  0.2649  0.4838
  152SAPE  H20T16871   5.323   5.003   8.319 -2.9133 -1.2230  2.0933
  152SAPE   C3316872   5.450   4.503   7.111  1.1495 -1.0837 -0.2069
  152SAPE   H3X16873   5.339   4.498   7.099  0.8851  1.4435  0.8031
  152SAPE   H3Y16874   5.470   4.596   7.169 -2.3024  0.1093 -0.7974
  152SAPE   C3416875   5.507   4.399   7.209 -0.2166 -0.7902 -0.1535
  152SAPE   H4X16876   5.610   4.383   7.172  0.2045 -0.4079  0.8549
  152SAPE   H4Y16877   5.458   4.301   7.192 -2.3992  0.1190  0.6344
  152SAPE   C3516878   5.501   4.451   7.351  0.3155 -0.4313 -0.4277
  152SAPE   H5X16879   5.548   4.551   7.356 -0.0826 -0.1430 -2.1179
  152SAPE   H5Y16880   5.558   4.373   7.406  1.9891  0.3590 -1.0253
  152SAPE   C3616881   5.365   4.449   7.420  0.0152  0.1616 -0.4667
  152SAPE   H6X16882   5.321   4.348   7.411 -0.6178  0.3937  0.0073
  152SAPE   H6Y16883   5.299   4.513   7.357  0.7611 -0.6982 -2.1738
  152SAPE   C3716884   5.340   4.485   7.569  0.3879  0.5383 -0.8516
  152SAPE   H7X16885   5.231   4.485   7.588  0.6038 -0.6237  0.4524
  152SAPE   H7Y16886   5.367   4.588   7.601  1.1891 -0.2013  0.9077
  152SAPE   C3816887   5.410   4.387   7.668  0.3542  0.3113  0.2687
  152SAPE   H8X16888   5.521   4.395   7.668  0.3987 -0.2594  1.3798
  152SAPE   H8Y16889   5.401   4.287   7.620  0.1532  0.4472  0.0248
  152SAPE   C3916890   5.355   4.393   7.811  0.3428 -0.2329  0.6345
  152SAPE   H9X16891   5.246   4.375   7.805  0.3902 -1.0639  2.0532
  152SAPE   H9Y16892   5.380   4.490   7.859  0.6208  0.5177 -0.9911
  152SAPE  C31016893   5.405   4.283   7.905 -0.1625  0.4448  0.3521
  152SAPE  H10X16894   5.515   4.281   7.911 -0.0364  2.1317 -0.9498
  152SAPE  H10Y16895   5.362   4.192   7.858 -1.7234 -0.3497  3.1998
  152SAPE  C31116896   5.349   4.302   8.045 -0.0184  0.0947  0.0365
  152SAPE  H11X16897   5.239   4.314   8.032  0.0846 -0.7589 -1.7257
  152SAPE  H11Y16898   5.376   4.395   8.099 -1.0769  0.1773  0.4310
  152SAPE  C31216899   5.360   4.168   8.125  0.5148 -0.0152  0.1065
  152SAPE  H12X16900   5.362   4.085   8.052 -1.3486  1.5414 -1.7760
  152SAPE  H12Y16901   5.273   4.145   8.190  0.2703  0.2516 -0.1238
  152SAPE  C31316902   5.485   4.149   8.214 -0.5108  0.6653 -0.5603
  152SAPE  H13X16903   5.571   4.127   8.147  0.7566  0.5021  1.0810
  152SAPE  H13Y16904   5.489   4.054   8.270  0.7141  0.0163 -1.7082
  152SAPE  C31416905   5.522   4.272   8.301 -0.3777 -1.3592  0.0839
  152SAPE  H14X16906   5.533   4.367   8.244  0.1594 -0.1639  2.1484
  152SAPE  H14Y16907   5.621   4.240   8.341  0.4830 -0.7415 -1.4675
  152SAPE  C31516908   5.422   4.299   8.412  0.4291 -0.1519 -0.8739
  152SAPE  H15X16909   5.388   4.199   8.447  2.6314 -1.5366 -2.4876
  152SAPE  H15Y16910   5.333   4.348   8.367  1.6881  1.7659 -1.3275
  152SAPE  C31616911   5.495   4.377   8.523 -0.1881  0.8954 -0.6254
  152SAPE  H16X16912   5.534   4.473   8.485 -1.0004  1.0186 -1.1554
  152SAPE  H16Y16913   5.584   4.320   8.557 -1.2933  1.0684  2.7394
  152SAPE  C31716914   5.413   4.417   8.641  0.2802  0.1467  0.9416
  152SAPE  H17X16915   5.329   4.485   8.614  0.9619  1.0819  1.1721
  152SAPE  H17Y16916   5.472   4.487   8.703  2.7839 -0.1557 -1.0452
  152SAPE  C31816917   5.368   4.300   8.727 -0.3940  0.3834 -0.3444
  152SAPE  H18X16918   5.455   4.272   8.790 -0.1821  2.8984  0.5421
  152SAPE  H18Y16919   5.326   4.213   8.673  0.2040  0.5125 -1.0358
  152SAPE  H18Z16920   5.288   4.332   8.797 -0.1558 -0.8138  0.4904
  153SAPE     N16921   1.780   6.048   5.943  0.2194  0.5415 -0.4238
  153SAPE   HN116922   1.792   5.994   5.856 -0.8288 -0.1078 -0.1675
  153SAPE   HN216923   1.724   6.130   5.911 -0.9318  0.0735  0.3489
  153SAPE   HN316924   1.874   6.086   5.969  0.3585 -0.6981  0.9511
  153SAPE   C1216925   1.732   5.962   6.063 -0.1175  0.4210  0.0474
  153SAPE  H12A16926   1.774   5.859   6.055 -0.3121  0.2923  0.6130
  153SAPE  H12B16927   1.622   5.945   6.057 -0.1824  1.1333 -0.7821
  153SAPE   C1116928   1.772   6.036   6.193 -0.2106  0.3884  0.4257
  153SAPE  H11A16929   1.730   5.975   6.276  1.2463 -2.4057 -0.8236
  153SAPE  H11B16930   1.722   6.135   6.196  0.7679  0.8652  0.7884
  153SAPE     P16931   2.008   6.021   6.313  0.0038  0.3359 -0.4186
  153SAPE   O1316932   2.119   5.942   6.255 -0.3043 -0.4630  0.4621
  153SAPE   O1416933   2.046   6.148   6.379  0.1984  0.4062  0.2784
  153SAPE   O1216934   1.912   6.061   6.193 -0.5962  0.2831  0.1794
  153SAPE   O1116935   1.924   5.925   6.409  0.2240 -0.0052  0.1062
  153SAPE    C116936   1.896   5.965   6.542  0.4823  0.1773  0.0106
  153SAPE    HA16937   1.972   6.031   6.588 -1.1301  0.5210  2.3014
  153SAPE    HB16938   1.802   6.024   6.533 -0.1130 -1.1963 -4.1954
  153SAPE    C216939   1.862   5.853   6.642 -0.8462  0.0532  1.0600
  153SAPE    HS16940   1.754   5.866   6.664 -0.7061  4.0908 -0.2446
  153SAPE   O2116941   1.953   5.870   6.762  0.3427 -0.3749  0.4146
  153SAPE   C2116942   1.908   5.834   6.876 -0.1771  0.3141 -0.3044
  153SAPE   O2216943   1.791   5.798   6.898 -0.1876  0.2539 -0.5930
  153SAPE   C2216944   2.024   5.834   6.974 -0.2124 -0.3265  0.3347
  153SAPE   H2R16945   2.115   5.852   6.914 -1.9221 -2.5082 -3.1110
  153SAPE   H2S16946   2.008   5.911   7.052  1.6416  0.0438  0.3506
  153SAPE    C316947   1.906   5.715   6.579  0.5066  0.1502 -0.0484
  153SAPE    HX16948   2.012   5.748   6.576 -0.0231  2.0861  1.2661
  153SAPE    HY16949   1.868   5.704   6.475 -0.5411 -0.8025  0.4244
  153SAPE   O3116950   1.909   5.599   6.666  0.2087  0.5302  0.1722
  153SAPE   C3116951   1.784   5.557   6.676  0.0349 -0.1727  0.4435
  153SAPE   O3216952   1.686   5.605   6.621  0.0192 -0.4682  0.2356
  153SAPE   C3216953   1.783   5.442   6.776 -0.0015  0.0180 -1.0359
  153SAPE   H2X16954   1.812   5.489   6.873 -1.0231 -0.0050 -0.7048
  153SAPE   H2Y16955   1.856   5.364   6.747 -0.2544 -0.0026 -1.6277
  153SAPE   C2316956   2.037   5.701   7.042 -0.8805  0.1801 -0.0943
  153SAPE   H3R16957   2.140   5.708   7.082 -0.9757  1.7242 -0.0603
  153SAPE   H3S16958   2.040   5.612   6.976 -1.6365 -2.2305  3.0009
  153SAPE   C2416959   1.938   5.676   7.152 -0.0870  0.1038 -0.5235
  153SAPE   H4R16960   1.829   5.679   7.131 -0.1092 -0.0353 -0.4320
  153SAPE   H4S16961   1.937   5.763   7.221  1.5129 -0.1471 -0.1545
  153SAPE   C2516962   1.958   5.542   7.224  1.0868 -0.3633  0.3969
  153SAPE   H5R16963   1.921   5.456   7.166 -0.0876 -0.3929  1.1756
  153SAPE   C2616964   2.018   5.514   7.345 -0.1357  0.2415  0.0097
  153SAPE   H6R16965   1.998   5.415   7.389  1.2402  0.4986  1.2447
  153SAPE   C2716966   2.082   5.621   7.430 -0.0549 -0.6632 -0.3471
  153SAPE   H7R16967   2.134   5.691   7.361  0.7658  0.1705  1.0910
  153SAPE   H7S16968   2.169   5.579   7.485  0.0290  0.0083  0.0278
  153SAPE   C2816969   2.004   5.690   7.542 -0.6666 -0.2800 -0.2167
  153SAPE   H8R16970   1.971   5.793   7.522  0.6333  0.8989  3.3051
  153SAPE   C2916971   1.960   5.629   7.649 -0.3597  0.1695 -0.3011
  153SAPE   H9R16972   1.908   5.695   7.721  1.9239  2.6350 -0.8487
  153SAPE  C21016973   1.978   5.482   7.687  0.3877 -0.5805  0.1066
  153SAPE  H10R16974   2.054   5.475   7.767  0.1097 -1.4311  0.3066
  153SAPE  H10S16975   2.026   5.426   7.603  0.3343 -0.9180  0.2988
  153SAPE  C21116976   1.846   5.428   7.733  0.6850  0.7685  0.4625
  153SAPE  H11R16977   1.768   5.396   7.663  0.2427  0.7976  0.9421
  153SAPE  C21216978   1.807   5.421   7.860 -0.0371  0.7718 -0.3972
  153SAPE  H12R16979   1.705   5.389   7.882 -0.4395  2.3825  0.1749
  153SAPE  C21316980   1.886   5.458   7.986 -0.3164  0.6585  0.1671
  153SAPE  H13R16981   1.995   5.475   7.971 -0.2959  2.7399  2.3403
  153SAPE  H13S16982   1.875   5.375   8.058 -1.6095 -0.6180 -1.4770
  153SAPE  C21416983   1.819   5.577   8.051  0.0775 -0.7582 -0.6749
  153SAPE  H14R16984   1.788   5.658   7.983 -2.9977 -3.5168 -2.6952
  153SAPE  C21516985   1.787   5.585   8.184 -0.1195 -0.3857  1.2180
  153SAPE  H15R16986   1.722   5.669   8.211 -2.0956 -1.9556  1.3884
  153SAPE  C21616987   1.819   5.488   8.293  0.0297 -0.1190 -0.3910
  153SAPE  H16R16988   1.914   5.432   8.281 -1.9349 -3.6885  0.1837
  153SAPE  H16S16989   1.747   5.404   8.297  2.2013 -2.0146 -0.4839
  153SAPE  C21716990   1.841   5.557   8.430 -0.5354  0.4794 -0.1439
  153SAPE  H17R16991   1.854   5.476   8.504  0.2597 -0.6700 -1.5052
  153SAPE  H17S16992   1.754   5.619   8.461 -0.8530 -0.2134  0.3379
  153SAPE  C21816993   1.969   5.638   8.429 -0.2578  0.2523  0.2346
  153SAPE  H18R16994   1.962   5.735   8.377  1.4607 -0.6822 -1.8099
  153SAPE  H18S16995   2.053   5.591   8.373 -0.6080  0.1007 -0.1571
  153SAPE  C21916996   2.014   5.673   8.575 -0.4453 -0.3540 -0.9554
  153SAPE  H19R16997   1.921   5.701   8.629  0.1989 -0.3885  0.1656
  153SAPE  H19S16998   2.087   5.756   8.565  0.5384 -1.1844 -0.7674
  153SAPE  C22016999   2.074   5.554   8.652 -0.4281 -0.4516 -0.1110
  153SAPE  H20R17000   2.153   5.518   8.583  1.3705  0.6524  1.3127
  153SAPE  H20S17001   1.990   5.485   8.673 -1.0417  0.6665  1.2587
  153SAPE  H20T17002   2.122   5.587   8.747  1.2380 -1.0679 -0.7187
  153SAPE   C3317003   1.643   5.376   6.786 -0.4618  0.1002  0.1586
  153SAPE   H3X17004   1.618   5.323   6.692  0.2638  0.2235 -0.1055
  153SAPE   H3Y17005   1.566   5.452   6.812  1.0035  1.7129 -0.1538
  153SAPE   C3417006   1.636   5.260   6.891 -0.4463  0.0398 -0.0411
  153SAPE   H4X17007   1.710   5.183   6.859  2.0078  1.9468  0.8523
  153SAPE   H4Y17008   1.540   5.205   6.890 -1.0846  1.1718 -1.7846
  153SAPE   C3517009   1.675   5.294   7.034 -0.3738 -0.3068 -0.0166
  153SAPE   H5X17010   1.598   5.356   7.084  0.6765  0.3443  0.7976
  153SAPE   H5Y17011   1.766   5.356   7.049  0.7274 -1.8294 -0.2921
  153SAPE   C3617012   1.695   5.170   7.128 -0.4241  0.2731  0.2214
  153SAPE   H6X17013   1.781   5.119   7.079 -0.9030 -0.6432  0.3269
  153SAPE   H6Y17014   1.604   5.106   7.133 -0.6371  0.5457 -0.1292
  153SAPE   C3717015   1.724   5.217   7.270  0.0540  0.9657  0.7092
  153SAPE   H7X17016   1.659   5.299   7.305  2.8646  3.8332 -0.5804
  153SAPE   H7Y17017   1.830   5.251   7.270  0.9880 -1.7820 -0.4035
  153SAPE   C3817018   1.698   5.099   7.361  1.0875  0.0118  0.8111
  153SAPE   H8X17019   1.743   5.014   7.304  2.4100  1.2467 -0.0088
  153SAPE   H8Y17020   1.592   5.072   7.382  1.2500  0.0416  1.6492
  153SAPE   C3917021   1.766   5.116   7.497 -0.1161  0.6200 -0.3558
  153SAPE   H9X17022   1.715   5.204   7.541 -0.1798 -0.1548  1.1351
  153SAPE   H9Y17023   1.870   5.149   7.473 -0.8852  2.9731 -0.6315
  153SAPE  C31017024   1.759   4.995   7.587 -0.0525  0.0390  0.6629
  153SAPE  H10X17025   1.789   4.903   7.533  1.3040  1.5445 -1.2692
  153SAPE  H10Y17026   1.652   4.981   7.611 -0.1434 -0.8720 -0.2519
  153SAPE  C31117027   1.845   5.021   7.708  0.5060 -0.3493  0.4137
  153SAPE  H11X17028   1.842   5.131   7.725 -0.5130 -0.0631 -1.5379
  153SAPE  H11Y17029   1.954   5.001   7.702  0.5027 -0.9797  2.0800
  153SAPE  C31217030   1.791   4.940   7.823  0.1302  0.1836  0.5189
  153SAPE  H12X17031   1.777   4.832   7.798 -0.7236 -0.2004  2.5133
  153SAPE  H12Y17032   1.688   4.977   7.844 -0.8376 -2.3126  0.3980
  153SAPE  C31317033   1.877   4.940   7.947 -0.0276 -0.1553 -0.4694
  153SAPE  H13X17034   1.981   4.907   7.923  0.2702 -0.9237  1.6838
  153SAPE  H13Y17035   1.824   4.868   8.013 -0.4752  0.7642  0.1846
  153SAPE  C31417036   1.885   5.079   8.029 -0.4262 -0.3179  1.2872
  153SAPE  H14X17037   1.781   5.106   8.056 -0.5174  2.0331 -1.1614
  153SAPE  H14Y17038   1.921   5.160   7.962 -0.9885 -0.3029  1.0045
  153SAPE  C31517039   1.991   5.053   8.137  0.3350  0.1234 -0.0158
  153SAPE  H15X17040   2.092   5.031   8.097 -0.5545 -2.5185 -0.9120
  153SAPE  H15Y17041   1.951   4.961   8.186 -0.2751 -0.6246 -1.8901
  153SAPE  C31617042   1.999   5.170   8.237  0.0117 -0.2364  0.0076
  153SAPE  H16X17043   1.900   5.219   8.247 -0.2054 -0.7656  0.4547
  153SAPE  H16Y17044   2.076   5.244   8.208 -2.1203  1.2936 -2.0028
  153SAPE  C31717045   2.039   5.112   8.371 -0.0417  0.1578  0.2272
  153SAPE  H17X17046   2.128   5.047   8.363 -0.1265  0.0145  0.4555
  153SAPE  H17Y17047   1.955   5.048   8.407 -1.2530  1.4962 -0.1493
  153SAPE  C31817048   2.073   5.224   8.471  0.1660 -0.4844  0.1142
  153SAPE  H18X17049   2.109   5.177   8.565 -0.9357 -1.1078  0.2376
  153SAPE  H18Y17050   1.987   5.287   8.503  2.6276  2.2452  1.5223
  153SAPE  H18Z17051   2.149   5.296   8.436  0.2083  0.2335  1.6372
  154SAPE     N17052   6.565   4.771   6.468 -0.0278  0.3752 -0.7192
  154SAPE   HN117053   6.526   4.703   6.537 -1.4105  1.0280 -0.8463
  154SAPE   HN217054   6.546   4.869   6.496 -2.1577 -0.4558  0.8861
  154SAPE   HN317055   6.512   4.741   6.384  0.7466 -0.7694 -0.8140
  154SAPE   C1217056   6.719   4.747   6.471  0.4209 -0.0716 -0.1816
  154SAPE  H12A17057   6.736   4.640   6.497  0.9600  0.6754  2.6583
  154SAPE  H12B17058   6.760   4.813   6.551  1.3484 -2.0605  1.0250
  154SAPE   C1117059   6.789   4.786   6.336  0.6570 -0.2743 -0.1240
  154SAPE  H11A17060   6.898   4.764   6.348  0.8410 -0.7818 -2.4425
  154SAPE  H11B17061   6.772   4.895   6.325 -0.0419 -0.3915 -0.1986
  154SAPE     P17062   6.787   4.591   6.152  0.1454 -0.2052  0.1659
  154SAPE   O1317063   6.706   4.558   6.037  0.2840 -0.1996  0.0410
  154SAPE   O1417064   6.932   4.607   6.120 -0.6129  0.3499 -0.0166
  154SAPE   O1217065   6.726   4.717   6.228  0.3873 -0.0648  0.2657
  154SAPE   O1117066   6.781   4.483   6.266 -0.1477 -1.0347  0.2769
  154SAPE    C117067   6.664   4.409   6.299  0.4741  0.3279 -0.5992
  154SAPE    HA17068   6.575   4.468   6.331  0.0691 -0.0384 -1.0538
  154SAPE    HB17069   6.628   4.354   6.210 -0.9355 -1.5933  1.1006
  154SAPE    C217070   6.707   4.317   6.411 -0.0439 -0.0786 -0.5313
  154SAPE    HS17071   6.727   4.380   6.500 -1.3563  0.3435 -0.5166
  154SAPE   O2117072   6.824   4.242   6.372  0.0545 -0.5070 -0.2791
  154SAPE   C2117073   6.916   4.232   6.468 -0.9972 -0.3115 -0.2441
  154SAPE   O2217074   6.912   4.286   6.584 -0.4102  0.3654  0.9186
  154SAPE   C2217075   7.039   4.153   6.408  0.1242 -0.0427 -0.9060
  154SAPE   H2R17076   7.015   4.051   6.372  3.8320 -1.2200 -0.2585
  154SAPE   H2S17077   7.066   4.218   6.322  2.4399 -0.6715 -0.6834
  154SAPE    C317078   6.589   4.220   6.444  0.0305  0.6828 -0.4499
  154SAPE    HX17079   6.565   4.155   6.357  0.8372 -1.7447  1.0859
  154SAPE    HY17080   6.496   4.275   6.471 -0.4681 -0.5706  0.4338
  154SAPE   O3117081   6.629   4.136   6.555  0.4408 -0.2707  0.0169
  154SAPE   C3117082   6.616   4.182   6.677 -0.2955  0.3238  0.1765
  154SAPE   O3217083   6.588   4.298   6.702 -0.1179 -0.1011 -0.0959
  154SAPE   C3217084   6.629   4.072   6.785  0.1376  0.2537  0.4560
  154SAPE   H2X17085   6.732   4.092   6.822 -0.4924 -0.4233  2.6469
  154SAPE   H2Y17086   6.616   3.972   6.740  0.2201  1.0129 -1.3083
  154SAPE   C2317087   7.171   4.158   6.489 -0.4257 -0.5040 -0.0139
  154SAPE   H3R17088   7.188   4.263   6.522 -1.1603 -0.7560  1.1891
  154SAPE   H3S17089   7.258   4.142   6.421 -0.5098 -1.0037 -0.0062
  154SAPE   C2417090   7.184   4.056   6.600 -0.1834 -0.2586  0.2421
  154SAPE   H4R17091   7.144   3.961   6.558 -0.5328  0.7131 -1.7234
  154SAPE   H4S17092   7.109   4.101   6.668 -0.4997  0.4270 -0.5488
  154SAPE   C2517093   7.309   4.027   6.664 -0.1701  0.0577 -0.0347
  154SAPE   H5R17094   7.375   3.956   6.613 -2.8720 -1.1757 -1.9566
  154SAPE   C2617095   7.351   4.082   6.780 -0.2259  0.3382  0.2158
  154SAPE   H6R17096   7.444   4.047   6.827 -0.0120  1.1342  0.4015
  154SAPE   C2717097   7.268   4.170   6.869 -0.7791 -0.3226  0.3808
  154SAPE   H7R17098   7.195   4.102   6.919  0.5484 -2.3451 -0.3876
  154SAPE   H7S17099   7.209   4.250   6.820 -0.8316 -0.6495 -0.0925
  154SAPE   C2817100   7.356   4.231   6.971  0.2280 -0.4816 -0.3236
  154SAPE   H8R17101   7.437   4.274   6.911  0.3177  0.5380  0.5257
  154SAPE   C2917102   7.330   4.245   7.104 -0.7741 -0.7041 -0.6184
  154SAPE   H9R17103   7.398   4.304   7.167 -1.9183 -0.0468  0.0159
  154SAPE  C21017104   7.229   4.182   7.193 -0.3299  0.0957  0.6970
  154SAPE  H10R17105   7.148   4.137   7.132  1.1405 -1.8472  0.1488
  154SAPE  H10S17106   7.169   4.253   7.254 -2.6845  0.5518 -2.0847
  154SAPE  C21117107   7.265   4.061   7.280  0.3345  0.0990 -0.2954
  154SAPE  H11R17108   7.319   3.986   7.220  2.4055 -0.0946  1.7629
  154SAPE  C21217109   7.244   4.047   7.413  0.4444  0.0814 -0.4605
  154SAPE  H12R17110   7.280   3.948   7.444 -0.6117 -0.3969 -0.7300
  154SAPE  C21317111   7.183   4.149   7.513 -0.0150  0.0453 -0.3746
  154SAPE  H13R17112   7.088   4.115   7.559 -1.1753  1.5081 -1.6273
  154SAPE  H13S17113   7.160   4.245   7.462 -0.0409  0.7663  0.9835
  154SAPE  C21417114   7.287   4.182   7.617  0.0095 -0.1207 -1.0076
  154SAPE  H14R17115   7.383   4.210   7.572  0.0243  1.6978  0.1051
  154SAPE  C21517116   7.272   4.180   7.751  0.2027  0.5269  0.6865
  154SAPE  H15R17117   7.360   4.230   7.794 -0.3400  0.9602  1.2994
  154SAPE  C21617118   7.146   4.162   7.835  0.2422 -1.1314 -0.4093
  154SAPE  H16R17119   7.098   4.065   7.812  0.1616 -1.3580  0.6790
  154SAPE  H16S17120   7.075   4.246   7.819  0.1001 -0.8270  1.7169
  154SAPE  C21717121   7.198   4.141   7.977 -0.2058 -0.9330  0.2591
  154SAPE  H17R17122   7.290   4.078   7.974  0.1093 -0.4843  0.5268
  154SAPE  H17S17123   7.125   4.080   8.034  0.4007  0.0388  2.0870
  154SAPE  C21817124   7.235   4.270   8.059 -0.3928  0.1753  0.6919
  154SAPE  H18R17125   7.151   4.343   8.052 -0.7020 -0.2393 -0.0328
  154SAPE  H18S17126   7.334   4.311   8.030  0.3801 -0.4210  2.4186
  154SAPE  C21917127   7.252   4.210   8.206  0.0688  0.0540 -1.0734
  154SAPE  H19R17128   7.323   4.124   8.207  1.1271  0.9224 -0.0059
  154SAPE  H19S17129   7.157   4.171   8.247  0.4944  1.2407  1.1111
  154SAPE  C22017130   7.308   4.302   8.311  0.0697 -0.3509 -0.1086
  154SAPE  H20R17131   7.237   4.384   8.333 -1.9751 -2.4145  1.3370
  154SAPE  H20S17132   7.399   4.351   8.272 -0.4547 -1.5768 -2.9561
  154SAPE  H20T17133   7.337   4.241   8.400 -0.4094 -0.5163 -0.0633
  154SAPE   C3317134   6.523   4.085   6.902 -0.1377  0.0499 -0.2138
  154SAPE   H3X17135   6.420   4.084   6.860 -0.6418 -1.0003  1.0349
  154SAPE   H3Y17136   6.542   4.173   6.966 -3.1767  0.3319  0.4039
  154SAPE   C3417137   6.544   3.961   7.006 -0.6372  0.0705  0.4207
  154SAPE   H4X17138   6.648   3.964   7.045  0.3052 -4.4334 -1.4250
  154SAPE   H4Y17139   6.537   3.874   6.937  2.2670  1.7277 -2.0684
  154SAPE   C3517140   6.442   3.966   7.113  0.4378  0.3990  0.1722
  154SAPE   H5X17141   6.340   3.945   7.074  0.1276  1.2146  0.5347
  154SAPE   H5Y17142   6.436   4.067   7.159  1.5666 -0.1157  1.4912
  154SAPE   C3617143   6.458   3.864   7.233  0.1181  0.1972  0.3514
  154SAPE   H6X17144   6.555   3.896   7.279 -0.6046  2.6173  0.2493
  154SAPE   H6Y17145   6.474   3.762   7.191 -0.1782 -0.7129  2.3885
  154SAPE   C3717146   6.339   3.851   7.334  0.7057 -0.5387 -0.1644
  154SAPE   H7X17147   6.248   3.824   7.277  0.3402 -1.2201  0.7184
  154SAPE   H7Y17148   6.332   3.951   7.381  0.1599 -0.5293 -0.2670
  154SAPE   C3817149   6.358   3.740   7.439  0.2140 -0.0001  0.4247
  154SAPE   H8X17150   6.465   3.757   7.465  0.8431 -0.1934 -1.9103
  154SAPE   H8Y17151   6.351   3.640   7.389 -3.8035  0.1495  0.5262
  154SAPE   C3917152   6.276   3.742   7.562  0.2317 -0.9116 -0.2485
  154SAPE   H9X17153   6.171   3.718   7.534 -0.4836  1.7152  0.0356
  154SAPE   H9Y17154   6.285   3.845   7.600  1.6698 -0.7495 -0.9840
  154SAPE  C31017155   6.331   3.644   7.662 -0.2399  0.6663 -0.4109
  154SAPE  H10X17156   6.427   3.680   7.704 -1.7575  2.5984  1.5241
  154SAPE  H10Y17157   6.360   3.551   7.610 -1.1265  0.3459 -0.3537
  154SAPE  C31117158   6.239   3.641   7.782  0.2320 -0.2533 -0.0590
  154SAPE  H11X17159   6.136   3.626   7.742 -0.5359  3.1048  0.4403
  154SAPE  H11Y17160   6.225   3.739   7.833  0.2585  0.6003 -1.6782
  154SAPE  C31217161   6.267   3.530   7.881 -0.1708 -0.0396  0.1783
  154SAPE  H12X17162   6.301   3.438   7.828 -2.5515  0.9050 -3.1170
  154SAPE  H12Y17163   6.175   3.502   7.936  1.5119 -3.2671  1.4999
  154SAPE  C31317164   6.383   3.568   7.973 -0.1626  0.6826  0.0349
  154SAPE  H13X17165   6.469   3.597   7.910  0.8794 -0.3594  0.9310
  154SAPE  H13Y17166   6.415   3.474   8.023  0.2813  1.8724  2.0505
  154SAPE  C31417167   6.358   3.680   8.077 -0.5661  0.2562  0.3035
  154SAPE  H14X17168   6.355   3.765   8.006 -1.2629 -0.6400 -0.7624
  154SAPE  H14Y17169   6.453   3.683   8.136  0.1080  1.7183 -0.8230
  154SAPE  C31517170   6.228   3.681   8.157  0.4901 -0.2804 -0.0628
  154SAPE  H15X17171   6.141   3.659   8.093 -0.3544  0.6429  0.7597
  154SAPE  H15Y17172   6.217   3.779   8.207  0.2604 -0.1916 -0.2947
  154SAPE  C31617173   6.220   3.573   8.266 -0.4477  0.0451  0.3010
  154SAPE  H16X17174   6.315   3.562   8.323 -0.6912 -0.7111  0.5618
  154SAPE  H16Y17175   6.211   3.476   8.214 -0.4652  1.7436 -3.0094
  154SAPE  C31717176   6.124   3.606   8.380  0.1651 -0.4068  0.0693
  154SAPE  H17X17177   6.019   3.594   8.348  0.3688  0.9267 -1.1254
  154SAPE  H17Y17178   6.148   3.713   8.397  1.8743 -0.9012  0.9365
  154SAPE  C31817179   6.156   3.528   8.502 -0.1553  0.4459  0.3242
  154SAPE  H18X17180   6.260   3.527   8.540 -0.4775 -1.8986  1.2590
  154SAPE  H18Y17181   6.130   3.421   8.486 -1.5782  0.5736  1.6636
  154SAPE  H18Z17182   6.090   3.570   8.581  1.0876 -0.0667  1.6613
  155SAPE     N17183   0.058   5.260   6.032 -0.4101  0.4554  0.5049
  155SAPE   HN117184  -0.042   5.272   6.057 -0.0528  1.5477  1.4718
  155SAPE   HN217185   0.088   5.335   5.966 -2.6753 -0.7560 -1.9840
  155SAPE   HN317186   0.062   5.170   5.980 -2.1821  0.3414  0.5379
  155SAPE   C1217187   0.145   5.245   6.158  0.5053 -0.5466 -0.1409
  155SAPE  H12A17188   0.156   5.343   6.208  2.2450 -0.9828  0.3481
  155SAPE  H12B17189   0.241   5.196   6.131  0.0304 -1.5602 -0.0255
  155SAPE   C1117190   0.079   5.135   6.236  0.1343  0.5229  0.0729
  155SAPE  H11A17191   0.130   5.097   6.327 -0.9127  1.2456  0.9714
  155SAPE  H11B17192   0.078   5.040   6.179 -0.4639  0.6619 -0.1490
  155SAPE     P17193  -0.089   5.267   6.389 -0.1354  0.0475  0.2377
  155SAPE   O1317194  -0.001   5.383   6.390  0.2929 -0.4545  0.1824
  155SAPE   O1417195  -0.234   5.301   6.379 -0.0141  0.2891 -0.0462
  155SAPE   O1217196  -0.057   5.167   6.265 -0.2365  0.4628 -0.1069
  155SAPE   O1117197  -0.063   5.181   6.510  0.2424 -0.2361  0.2011
  155SAPE    C117198   0.060   5.160   6.572 -0.2809  0.4382 -0.4488
  155SAPE    HA17199   0.113   5.065   6.553  0.6336  0.1649  3.2057
  155SAPE    HB17200   0.127   5.240   6.532  2.0521 -1.8862 -1.3002
  155SAPE    C217201   0.043   5.184   6.723  0.4436 -0.1928  0.1113
  155SAPE    HS17202   0.142   5.217   6.761  0.6005 -0.4774 -0.0484
  155SAPE   O2117203   0.003   5.070   6.805  0.5081 -0.2922 -0.2951
  155SAPE   C2117204   0.090   4.980   6.812  0.2164 -0.1105 -0.2011
  155SAPE   O2217205   0.191   4.973   6.751 -0.2056  0.0449  0.2209
  155SAPE   C2217206   0.036   4.872   6.890 -0.3165  0.4690 -0.0506
  155SAPE   H2R17207  -0.072   4.854   6.867  0.9121 -3.1619 -3.4952
  155SAPE   H2S17208   0.084   4.783   6.844  0.8880  0.2463  1.6162
  155SAPE    C317209  -0.059   5.291   6.756  0.2615 -0.0617  0.8245
  155SAPE    HX17210  -0.158   5.264   6.712 -0.2315 -0.5620  2.2269
  155SAPE    HY17211  -0.034   5.379   6.693 -3.2588  1.1579  0.9984
  155SAPE   O3117212  -0.074   5.329   6.895 -0.4905 -0.1932  0.1695
  155SAPE   C3117213  -0.183   5.400   6.928 -0.0101 -0.0037  0.7896
  155SAPE   O3217214  -0.276   5.425   6.855  0.3943  1.0800  0.0531
  155SAPE   C3217215  -0.166   5.447   7.073  0.3163  0.3118 -0.0786
  155SAPE   H2X17216  -0.262   5.495   7.099 -0.7341 -0.5728 -2.1709
  155SAPE   H2Y17217  -0.089   5.527   7.065  0.6883  0.0922  1.2483
  155SAPE   C2317218   0.057   4.878   7.046 -0.3554 -0.5221 -0.1056
  155SAPE   H3R17219   0.002   4.804   7.107 -1.0971  2.1792  2.6544
  155SAPE   H3S17220   0.000   4.965   7.087  3.1985  2.3540 -1.0269
  155SAPE   C2417221   0.202   4.854   7.086 -0.6312 -0.0908 -0.4566
  155SAPE   H4R17222   0.239   4.759   7.041  0.0746 -1.3576  2.6974
  155SAPE   H4S17223   0.201   4.849   7.197  1.9369 -0.1824 -0.4026
  155SAPE   C2517224   0.306   4.951   7.056 -0.0459 -0.5214 -0.3631
  155SAPE   H5R17225   0.337   4.934   6.952  1.0063  0.3683 -0.2066
  155SAPE   C2617226   0.360   5.046   7.136  0.8364 -0.0383 -0.2188
  155SAPE   H6R17227   0.432   5.121   7.100 -0.4143  1.7377  0.8806
  155SAPE   C2717228   0.305   5.085   7.275 -0.5098 -0.1410 -0.2229
  155SAPE   H7R17229   0.194   5.080   7.286 -0.2572  0.1316  3.0816
  155SAPE   H7S17230   0.333   5.190   7.294  0.6489  0.0001 -2.5366
  155SAPE   C2817231   0.376   5.000   7.377  0.0430 -0.7458  0.7628
  155SAPE   H8R17232   0.461   4.947   7.332  0.6822 -0.9680  2.1938
  155SAPE   C2917233   0.347   4.979   7.501 -0.1552  0.6300 -0.6703
  155SAPE   H9R17234   0.422   4.927   7.564 -1.6471 -1.8419 -0.8450
  155SAPE  C21017235   0.235   5.052   7.580  0.1733 -0.1776 -0.6677
  155SAPE  H10R17236   0.168   5.101   7.506  0.8793  0.6823 -0.7469
  155SAPE  H10S17237   0.278   5.140   7.634 -0.3350  0.6557 -1.6072
  155SAPE  C21117238   0.160   4.956   7.670  0.4472  0.6099  0.2263
  155SAPE  H11R17239   0.116   4.871   7.616  0.7056  2.1963 -2.5424
  155SAPE  C21217240   0.179   4.944   7.799 -0.5478 -0.2288  0.0531
  155SAPE  H12R17241   0.127   4.870   7.860 -0.0378 -0.0932  0.6611
  155SAPE  C21317242   0.267   5.032   7.875  0.3124  0.8469 -0.4971
  155SAPE  H13R17243   0.219   5.131   7.876 -0.4275  0.4852  0.4323
  155SAPE  H13S17244   0.356   5.053   7.813  0.2542  0.5465 -0.6875
  155SAPE  C21417245   0.297   4.988   8.013  0.7828  0.5318 -0.2846
  155SAPE  H14R17246   0.404   4.963   8.022  0.8993  0.6606 -1.1898
  155SAPE  C21517247   0.223   4.978   8.123  0.2942  0.5631  0.6451
  155SAPE  H15R17248   0.272   4.959   8.220  0.5363 -0.9774  0.2296
  155SAPE  C21617249   0.077   5.013   8.132 -0.3889  1.1249  0.2601
  155SAPE  H16R17250   0.044   5.069   8.043 -0.1472 -0.0462 -0.5867
  155SAPE  H16S17251   0.059   5.075   8.223 -0.6607 -0.6589  1.4490
  155SAPE  C21717252  -0.006   4.885   8.139  0.4342  0.5375 -0.1535
  155SAPE  H17R17253   0.022   4.814   8.220  0.5362 -0.8748 -1.4233
  155SAPE  H17S17254  -0.003   4.827   8.045 -0.6844  0.4166 -0.1198
  155SAPE  C21817255  -0.153   4.931   8.168  0.4687 -0.4357  0.2579
  155SAPE  H18R17256  -0.158   4.981   8.267  0.5195 -2.0191  1.0889
  155SAPE  H18S17257  -0.206   4.835   8.187 -0.6513  0.0992 -0.1592
  155SAPE  C21917258  -0.222   5.016   8.054  0.1181 -0.8864  0.3665
  155SAPE  H19R17259  -0.194   4.972   7.956 -0.3939  1.6487 -0.9607
  155SAPE  H19S17260  -0.173   5.115   8.047  0.8778 -1.3720 -1.4343
  155SAPE  C22017261  -0.370   5.021   8.062 -0.1322  0.3423  0.6967
  155SAPE  H20R17262  -0.403   4.924   8.105  1.7576  0.1891  1.8412
  155SAPE  H20S17263  -0.409   5.022   7.958 -0.5599 -1.8090  0.8102
  155SAPE  H20T17264  -0.411   5.104   8.124  0.3420  1.3194 -0.2665
  155SAPE   C3317265  -0.106   5.342   7.170 -0.0488  0.1752 -0.2627
  155SAPE   H3X17266   0.005   5.339   7.168 -0.0197  0.2761  0.9504
  155SAPE   H3Y17267  -0.144   5.243   7.137 -0.2423  0.4197 -0.7702
  155SAPE   C3417268  -0.155   5.364   7.311  0.1064  0.7484  0.0117
  155SAPE   H4X17269  -0.265   5.362   7.327 -0.0298 -1.2461 -1.0809
  155SAPE   H4Y17270  -0.115   5.462   7.344  0.3097  1.2534 -1.7153
  155SAPE   C3517271  -0.097   5.250   7.405  0.1738 -0.0919 -0.0232
  155SAPE   H5X17272   0.008   5.244   7.368  0.7471  2.1104  1.1749
  155SAPE   H5Y17273  -0.156   5.156   7.401  2.2602 -1.5888  2.4125
  155SAPE   C3617274  -0.089   5.288   7.556 -0.7753  0.0495 -0.5699
  155SAPE   H6X17275  -0.047   5.391   7.563 -1.8390  0.4079  0.6119
  155SAPE   H6Y17276  -0.027   5.220   7.618 -2.3104  0.2121  1.1806
  155SAPE   C3717277  -0.228   5.290   7.620 -0.5368 -0.9189 -0.0049
  155SAPE   H7X17278  -0.259   5.184   7.628  1.4289 -1.3651  2.3295
  155SAPE   H7Y17279  -0.294   5.358   7.562 -0.7965  0.1619  1.5264
  155SAPE   C3817280  -0.215   5.332   7.769  0.7286 -0.4012 -1.1893
  155SAPE   H8X17281  -0.150   5.257   7.818 -0.2298  0.0890  0.8694
  155SAPE   H8Y17282  -0.311   5.311   7.821  0.9924 -0.1062 -0.5839
  155SAPE   C3917283  -0.183   5.478   7.800  0.3880  0.6800  0.1814
  155SAPE   H9X17284  -0.266   5.536   7.753  2.1203  0.6782 -3.0307
  155SAPE   H9Y17285  -0.095   5.518   7.745  1.8182  0.9927  2.6369
  155SAPE  C31017286  -0.182   5.517   7.947  0.5576 -0.2517 -0.3738
  155SAPE  H10X17287  -0.285   5.500   7.985  0.7228 -0.7061 -0.1346
  155SAPE  H10Y17288  -0.160   5.626   7.951 -0.7289  0.0656 -1.3611
  155SAPE  C31117289  -0.081   5.437   8.029  0.4947 -0.1769 -0.2056
  155SAPE  H11X17290  -0.004   5.399   7.959  0.5612 -1.7646  0.7046
  155SAPE  H11Y17291  -0.134   5.346   8.064  2.3235 -0.9312  0.6230
  155SAPE  C31217292  -0.009   5.504   8.147  0.2889 -0.6665 -0.1692
  155SAPE  H12X17293  -0.080   5.528   8.229 -1.3371 -0.9963 -1.4630
  155SAPE  H12Y17294   0.039   5.598   8.111  3.3100 -1.2981  2.0215
  155SAPE  C31317295   0.099   5.413   8.201 -0.5078  0.0531 -0.0075
  155SAPE  H13X17296   0.187   5.406   8.134  1.5985  1.9666  2.4931
  155SAPE  H13Y17297   0.063   5.308   8.199  1.3411 -0.5793 -2.4634
  155SAPE  C31417298   0.157   5.464   8.336  0.2939 -0.2192 -0.1963
  155SAPE  H14X17299   0.075   5.497   8.403  0.4375  1.1996 -0.7172
  155SAPE  H14Y17300   0.215   5.555   8.312 -0.9518  1.1296  1.7977
  155SAPE  C31517301   0.247   5.361   8.401  0.9531  0.2568  0.7732
  155SAPE  H15X17302   0.187   5.273   8.432 -0.2650 -0.2055 -2.7479
  155SAPE  H15Y17303   0.295   5.397   8.495  0.2401  2.3873  0.3471
  155SAPE  C31617304   0.350   5.301   8.312  0.7884  0.7041  0.2593
  155SAPE  H16X17305   0.407   5.376   8.253  2.6289 -0.0617  1.0315
  155SAPE  H16Y17306   0.298   5.236   8.238  0.1406  0.4039  0.9755
  155SAPE  C31717307   0.451   5.201   8.376 -0.9906 -0.0260  0.2366
  155SAPE  H17X17308   0.398   5.110   8.414 -0.4942 -0.3963  0.0468
  155SAPE  H17Y17309   0.489   5.254   8.466 -0.9578 -2.5481  1.7767
  155SAPE  C31817310   0.559   5.164   8.276  0.4285  0.3306 -0.3676
  155SAPE  H18X17311   0.627   5.249   8.252  1.1763  0.4694  2.0382
  155SAPE  H18Y17312   0.506   5.130   8.185 -3.0413 -1.5164  2.2421
  155SAPE  H18Z17313   0.617   5.077   8.313 -0.9905 -0.6520 -0.4361
  156SAPE     N17314   5.184   5.444   6.474 -0.0960  0.3302 -0.2436
  156SAPE   HN117315   5.172   5.512   6.551  0.0884 -0.5288  0.5567
  156SAPE   HN217316   5.249   5.474   6.398 -0.7716 -1.7772 -1.7193
  156SAPE   HN317317   5.085   5.429   6.446  0.4452 -2.9413 -0.6156
  156SAPE   C1217318   5.217   5.315   6.547 -0.3455  0.6939 -0.4826
  156SAPE  H12A17319   5.303   5.328   6.616  0.6080 -2.0858 -1.1118
  156SAPE  H12B17320   5.241   5.248   6.462  1.1233 -0.4586  0.8212
  156SAPE   C1117321   5.101   5.260   6.626 -0.1020 -1.2523 -0.5450
  156SAPE  H11A17322   5.068   5.346   6.689  2.1093 -0.4340 -0.4789
  156SAPE  H11B17323   5.153   5.183   6.687  0.7153 -0.7341 -0.5798
  156SAPE     P17324   4.865   5.276   6.500  0.4575  0.0572 -0.2827
  156SAPE   O1317325   4.911   5.401   6.441  0.2095 -0.6377  0.6448
  156SAPE   O1417326   4.792   5.181   6.416 -0.3792  0.1649  0.1054
  156SAPE   O1217327   4.998   5.200   6.546 -0.2330 -0.3455  0.3978
  156SAPE   O1117328   4.787   5.306   6.633  0.3959  0.8338 -0.5639
  156SAPE    C117329   4.701   5.206   6.689  0.1833 -0.1516  0.2270
  156SAPE    HA17330   4.699   5.108   6.637 -3.0218  0.7758 -1.5125
  156SAPE    HB17331   4.740   5.177   6.789  1.4466  1.2130  0.1700
  156SAPE    C217332   4.559   5.255   6.695 -0.1682 -0.0259 -0.3721
  156SAPE    HS17333   4.529   5.280   6.591  4.5624  3.6380 -1.0061
  156SAPE   O2117334   4.553   5.368   6.781  0.1525 -0.8068  0.2969
  156SAPE   C2117335   4.429   5.438   6.779  0.7145 -0.0061  0.4289
  156SAPE   O2217336   4.340   5.422   6.697 -0.0128  0.2598  0.5787
  156SAPE   C2217337   4.432   5.543   6.885 -0.4666  0.1615 -0.3808
  156SAPE   H2R17338   4.470   5.491   6.976 -0.4595  1.0742  0.1468
  156SAPE   H2S17339   4.501   5.624   6.853 -0.6384  0.3344 -0.3207
  156SAPE    C317340   4.462   5.142   6.737 -0.4800  0.0485  0.3308
  156SAPE    HX17341   4.487   5.055   6.673  0.3120 -0.7507  1.7141
  156SAPE    HY17342   4.354   5.158   6.714 -0.7625 -2.2708 -0.0332
  156SAPE   O3117343   4.497   5.109   6.875  0.4447  0.0923 -0.1771
  156SAPE   C3117344   4.431   5.160   6.975 -0.3177 -0.2213 -0.0260
  156SAPE   O3217345   4.352   5.250   6.965 -0.1628  0.2938 -0.0058
  156SAPE   C3217346   4.479   5.099   7.104 -0.4320 -0.0730  0.2629
  156SAPE   H2X17347   4.577   5.151   7.116 -0.5094 -0.4520  2.8024
  156SAPE   H2Y17348   4.506   4.993   7.088  3.2590  0.9579 -0.8593
  156SAPE   C2317349   4.294   5.608   6.911  0.7548  0.3419  0.0966
  156SAPE   H3R17350   4.221   5.533   6.947  1.0604 -0.2093 -0.4334
  156SAPE   H3S17351   4.241   5.653   6.824 -0.1428 -4.0850 -1.7746
  156SAPE   C2417352   4.309   5.719   7.027  0.1650 -0.2838  0.1123
  156SAPE   H4R17353   4.376   5.801   6.996  0.5137 -0.7890 -0.4854
  156SAPE   H4S17354   4.355   5.660   7.109 -1.1077 -0.6005  0.6180
  156SAPE   C2517355   4.174   5.770   7.061 -0.1710 -0.3785 -0.6841
  156SAPE   H5R17356   4.122   5.831   6.986 -2.1725 -0.9658  0.1710
  156SAPE   C2617357   4.107   5.768   7.180  0.0700  0.9192 -0.0188
  156SAPE   H6R17358   4.007   5.813   7.190 -0.8680 -0.9095 -0.9828
  156SAPE   C2717359   4.142   5.692   7.309  0.1080 -0.2077  0.4814
  156SAPE   H7R17360   4.168   5.590   7.274  0.3322 -0.0006  0.0313
  156SAPE   H7S17361   4.058   5.666   7.376  0.7786 -1.7678  0.7283
  156SAPE   C2817362   4.257   5.745   7.388  0.3922 -0.2840  0.2692
  156SAPE   H8R17363   4.269   5.854   7.385 -2.3866  0.0209 -2.4319
  156SAPE   C2917364   4.340   5.665   7.458 -0.0378 -0.0043 -0.4378
  156SAPE   H9R17365   4.426   5.720   7.500  0.3851  0.4469 -1.8763
  156SAPE  C21017366   4.330   5.519   7.475  0.2310 -0.7895  0.1935
  156SAPE  H10R17367   4.427   5.483   7.516  0.3111 -0.1221  0.5904
  156SAPE  H10S17368   4.320   5.466   7.378 -0.1448  2.7841 -1.7807
  156SAPE  C21117369   4.225   5.486   7.580 -0.5151  0.0000 -0.0583
  156SAPE  H11R17370   4.131   5.455   7.531 -0.1445 -1.7839  0.2983
  156SAPE  C21217371   4.236   5.477   7.714  0.5344 -0.1969 -0.5152
  156SAPE  H12R17372   4.157   5.448   7.785  1.6613 -0.3998  0.6704
  156SAPE  C21317373   4.361   5.486   7.800  0.4233  0.2025  0.1252
  156SAPE  H13R17374   4.447   5.497   7.730  0.1850 -0.3481 -0.2564
  156SAPE  H13S17375   4.382   5.395   7.860  0.3393  0.3411  0.3691
  156SAPE  C21417376   4.360   5.613   7.885  0.0371 -0.8050 -0.4971
  156SAPE  H14R17377   4.355   5.706   7.825 -3.6191 -0.1653  0.6456
  156SAPE  C21517378   4.348   5.619   8.018  0.1308 -0.2116 -0.0505
  156SAPE  H15R17379   4.368   5.718   8.062  2.3711 -1.8048  2.7419
  156SAPE  C21617380   4.329   5.505   8.117  0.4200  0.3289  0.0981
  156SAPE  H16R17381   4.428   5.477   8.159  0.6721 -0.7409 -1.2024
  156SAPE  H16S17382   4.293   5.409   8.075  2.5083 -0.3050 -0.2967
  156SAPE  C21717383   4.238   5.546   8.230 -0.0568 -0.4944 -0.3694
  156SAPE  H17R17384   4.141   5.579   8.187 -0.0697 -1.4038 -1.0570
  156SAPE  H17S17385   4.288   5.628   8.286 -1.0971  0.3761 -0.6922
  156SAPE  C21817386   4.203   5.421   8.319  0.0776  0.3570 -0.0054
  156SAPE  H18R17387   4.307   5.386   8.333  0.3126  1.3017  0.6870
  156SAPE  H18S17388   4.136   5.353   8.262  0.2550  1.2541 -1.3075
  156SAPE  C21917389   4.133   5.455   8.451 -0.3720  1.0011  0.3285
  156SAPE  H19R17390   4.178   5.547   8.495  2.8052  0.2139 -1.1486
  156SAPE  H19S17391   4.163   5.366   8.510  2.9013  3.1705  2.1042
  156SAPE  C22017392   3.984   5.482   8.431  0.6160 -0.6337 -0.3412
  156SAPE  H20R17393   3.940   5.410   8.359  0.8874  0.9266 -2.1250
  156SAPE  H20S17394   3.960   5.579   8.382  0.2880 -0.1214  0.8186
  156SAPE  H20T17395   3.924   5.487   8.525 -2.2916 -0.0729 -2.1491
  156SAPE   C3317396   4.384   5.121   7.221  0.5684  1.0969 -0.1584
  156SAPE   H3X17397   4.281   5.089   7.192  0.7612 -0.0296  0.3773
  156SAPE   H3Y17398   4.373   5.230   7.240 -1.3321  0.8349  0.3290
  156SAPE   C3417399   4.445   5.070   7.347 -1.1626  0.4030 -0.9022
  156SAPE   H4X17400   4.548   5.108   7.366 -1.3625  0.4018  0.2266
  156SAPE   H4Y17401   4.443   4.960   7.338  0.9748  0.3887 -1.6150
  156SAPE   C3517402   4.361   5.110   7.473 -0.0270 -0.5600  0.7241
  156SAPE   H5X17403   4.264   5.056   7.465 -1.5869  1.6620  3.6352
  156SAPE   H5Y17404   4.348   5.220   7.476 -0.7537 -0.6199 -0.0023
  156SAPE   C3617405   4.445   5.075   7.598 -0.2933  0.1158 -0.3326
  156SAPE   H6X17406   4.547   5.120   7.600  0.4810 -1.5977  1.9230
  156SAPE   H6Y17407   4.462   4.965   7.603  4.4279  0.7835  0.4785
  156SAPE   C3717408   4.372   5.117   7.726 -0.3214 -0.5692  0.6767
  156SAPE   H7X17409   4.262   5.100   7.719 -0.3853  0.3774 -0.7495
  156SAPE   H7Y17410   4.383   5.228   7.731 -1.3709 -0.2926 -2.1145
  156SAPE   C3817411   4.436   5.055   7.855  0.3571  0.0583 -0.1945
  156SAPE   H8X17412   4.546   5.038   7.845  0.0491 -1.3841 -1.1534
  156SAPE   H8Y17413   4.401   4.954   7.885  0.1407  0.4587  0.9543
  156SAPE   C3917414   4.421   5.136   7.988  0.1604  0.0992 -0.2794
  156SAPE   H9X17415   4.318   5.156   8.023 -0.0177 -1.6388  0.2788
  156SAPE   H9Y17416   4.469   5.235   7.979  0.2370  0.2958  1.9590
  156SAPE  C31017417   4.496   5.070   8.108  0.1641 -0.1862  0.2345
  156SAPE  H10X17418   4.602   5.048   8.083  0.1630 -0.8191  0.7625
  156SAPE  H10Y17419   4.449   4.973   8.133  0.9468 -0.4409  0.7451
  156SAPE  C31117420   4.495   5.155   8.239 -0.0788  0.4203  1.0963
  156SAPE  H11X17421   4.392   5.185   8.268  0.4254 -0.6437  4.2251
  156SAPE  H11Y17422   4.546   5.251   8.214  0.8859 -0.6493 -1.1098
  156SAPE  C31217423   4.562   5.083   8.350  0.3946 -0.4033 -0.7268
  156SAPE  H12X17424   4.513   4.987   8.376 -1.1648  0.5201 -0.1066
  156SAPE  H12Y17425   4.556   5.142   8.444 -1.2451 -0.8946 -0.5043
  156SAPE  C31317426   4.712   5.065   8.317 -0.7065 -0.8309  0.0101
  156SAPE  H13X17427   4.745   5.147   8.250 -0.9464  0.4562  1.4312
  156SAPE  H13Y17428   4.726   4.972   8.258  0.2261  0.2061 -1.4208
  156SAPE  C31417429   4.802   5.066   8.443 -0.7926  0.0085  0.2391
  156SAPE  H14X17430   4.773   4.980   8.507  0.5350 -1.0161 -0.4919
  156SAPE  H14Y17431   4.776   5.158   8.500 -2.6742  0.0153 -0.6006
  156SAPE  C31517432   4.954   5.048   8.411  0.7166  0.0876 -0.5642
  156SAPE  H15X17433   5.006   5.044   8.509  2.0004 -1.1448 -1.2871
  156SAPE  H15Y17434   4.984   5.141   8.358  0.6493 -0.2761 -1.2450
  156SAPE  C31617435   4.983   4.928   8.324 -0.4214 -0.1512  0.0082
  156SAPE  H16X17436   5.093   4.926   8.307 -0.6950 -0.0998 -1.9291
  156SAPE  H16Y17437   4.943   4.951   8.223  1.4230  0.4685 -0.6091
  156SAPE  C31717438   4.937   4.794   8.381 -0.7399  0.1463  0.2871
  156SAPE  H17X17439   4.827   4.796   8.363 -0.7086 -1.0443 -0.0832
  156SAPE  H17Y17440   4.963   4.788   8.489  0.5022 -0.1799 -0.0153
  156SAPE  C31817441   5.001   4.682   8.296  0.1343  0.5460  0.5847
  156SAPE  H18X17442   4.933   4.595   8.296 -0.4121  0.9233  2.7893
  156SAPE  H18Y17443   5.097   4.642   8.336  1.4184 -0.1974 -3.0450
  156SAPE  H18Z17444   5.017   4.703   8.188  0.1080  0.9741  0.6601
  157SAPE     N17445   2.160   0.424   6.277 -0.7766  0.0070  0.0749
  157SAPE   HN117446   2.174   0.436   6.174 -0.7340 -1.4068 -0.0864
  157SAPE   HN217447   2.243   0.376   6.316 -1.9618 -1.0321  1.3533
  157SAPE   HN317448   2.078   0.360   6.281 -0.4125 -0.6676 -2.4674
  157SAPE   C1217449   2.135   0.561   6.336 -0.8237 -0.0945 -0.2429
  157SAPE  H12A17450   2.138   0.558   6.447  0.8385  0.2444 -0.2558
  157SAPE  H12B17451   2.033   0.586   6.302 -0.4343  0.6029 -0.9290
  157SAPE   C1117452   2.235   0.660   6.270 -0.0194  0.0800 -0.7679
  157SAPE  H11A17453   2.233   0.758   6.322 -0.5702  0.2264 -1.0649
  157SAPE  H11B17454   2.202   0.674   6.165  0.4025  0.5806 -0.8388
  157SAPE     P17455   2.490   0.706   6.286 -0.3541  0.6073  0.0085
  157SAPE   O1317456   2.610   0.619   6.293  0.0818  0.5092 -0.5588
  157SAPE   O1417457   2.487   0.806   6.175  0.1236 -0.1703  0.0098
  157SAPE   O1217458   2.370   0.607   6.271 -0.9112 -0.5116 -0.3999
  157SAPE   O1117459   2.462   0.784   6.429  0.2909 -0.4531 -0.1911
  157SAPE    C117460   2.499   0.701   6.540 -0.5317  0.2648  0.0238
  157SAPE    HA17461   2.437   0.609   6.544  0.6534 -0.4427  2.9030
  157SAPE    HB17462   2.605   0.669   6.542 -0.2012  1.4191  3.4295
  157SAPE    C217463   2.479   0.776   6.675  0.7179  0.1625  0.1204
  157SAPE    HS17464   2.533   0.873   6.669 -0.1446  0.5208 -2.1245
  157SAPE   O2117465   2.537   0.699   6.782  0.2371  0.1967  0.1198
  157SAPE   C2117466   2.665   0.704   6.796 -0.4365 -0.8259  0.1620
  157SAPE   O2217467   2.745   0.781   6.743 -0.2961 -0.3952  0.2864
  157SAPE   C2217468   2.719   0.593   6.891  0.3035 -0.3054 -0.0555
  157SAPE   H2R17469   2.666   0.499   6.865 -1.3196 -0.6034  3.8904
  157SAPE   H2S17470   2.824   0.566   6.867  0.4663  0.8445 -0.6735
  157SAPE    C317471   2.324   0.799   6.701  0.5976 -0.1063 -0.1569
  157SAPE    HX17472   2.286   0.697   6.680 -2.7271  1.7860 -3.9134
  157SAPE    HY17473   2.279   0.859   6.619 -1.3009 -1.6893 -0.2960
  157SAPE   O3117474   2.281   0.831   6.834  0.1669  0.1975 -0.1123
  157SAPE   C3117475   2.242   0.955   6.866  0.3787  0.2955 -0.1286
  157SAPE   O3217476   2.251   1.051   6.793  0.4304  0.3977 -0.1601
  157SAPE   C3217477   2.200   0.945   7.015  0.1253  0.3884  0.6035
  157SAPE   H2X17478   2.158   0.843   7.031 -0.7783  0.6512 -0.0788
  157SAPE   H2Y17479   2.120   1.021   7.023 -0.9574 -0.6986  0.2101
  157SAPE   C2317480   2.706   0.621   7.045 -0.1045 -0.7226 -1.0841
  157SAPE   H3R17481   2.759   0.717   7.063 -1.8088 -0.2133  1.4214
  157SAPE   H3S17482   2.764   0.540   7.096 -1.1971  0.1723  1.6261
  157SAPE   C2417483   2.556   0.633   7.094  0.4542  0.2962  0.1102
  157SAPE   H4R17484   2.508   0.718   7.041  0.3304 -0.4200 -0.9306
  157SAPE   H4S17485   2.559   0.657   7.202 -2.1015  0.2358  0.2137
  157SAPE   C2517486   2.456   0.526   7.070 -0.3175  0.2769 -0.2786
  157SAPE   H5R17487   2.428   0.505   6.966  0.8325 -0.5376 -0.4364
  157SAPE   C2617488   2.382   0.473   7.170  0.1143  0.5637 -0.0154
  157SAPE   H6R17489   2.309   0.396   7.141  0.7805  0.3241 -1.0950
  157SAPE   C2717490   2.401   0.493   7.318 -0.0257  0.0975  0.1090
  157SAPE   H7R17491   2.312   0.442   7.361  0.7847  0.2638  2.0314
  157SAPE   H7S17492   2.383   0.600   7.344  3.6405  0.9165 -0.5295
  157SAPE   C2817493   2.529   0.447   7.375 -0.3707  0.1332  0.8422
  157SAPE   H8R17494   2.613   0.431   7.306 -0.7874  1.7300 -0.0669
  157SAPE   C2917495   2.556   0.427   7.505 -0.8864 -1.0128 -0.1895
  157SAPE   H9R17496   2.650   0.381   7.538  0.2487  0.6051 -1.0878
  157SAPE  C21017497   2.461   0.466   7.613  0.4987  0.1608 -0.9948
  157SAPE  H10R17498   2.408   0.558   7.580 -2.3976 -1.3350 -0.6780
  157SAPE  H10S17499   2.511   0.501   7.706 -0.4309  0.9078 -0.7667
  157SAPE  C21117500   2.357   0.357   7.645 -0.1029  0.4690  0.0931
  157SAPE  H11R17501   2.296   0.321   7.561 -0.5714 -2.4794  1.6417
  157SAPE  C21217502   2.345   0.290   7.769 -0.1630  0.1770 -0.4920
  157SAPE  H12R17503   2.280   0.201   7.769  1.7135 -1.2612  1.5472
  157SAPE  C21317504   2.432   0.314   7.890 -0.0859  0.2261 -0.7498
  157SAPE  H13R17505   2.477   0.415   7.888  2.3993 -0.8318 -0.7875
  157SAPE  H13S17506   2.524   0.252   7.900 -1.4597 -1.4254  2.2954
  157SAPE  C21417507   2.354   0.280   8.013 -0.7829 -0.1352 -0.6850
  157SAPE  H14R17508   2.287   0.192   8.006 -1.0245 -0.1281  1.2755
  157SAPE  C21517509   2.376   0.319   8.140  0.6214  0.1744 -0.0184
  157SAPE  H15R17510   2.301   0.277   8.209  2.3666 -1.0010  1.2259
  157SAPE  C21617511   2.475   0.421   8.197 -0.7205  0.5779  0.2195
  157SAPE  H16R17512   2.554   0.435   8.120 -1.9656 -0.1797 -1.2506
  157SAPE  H16S17513   2.527   0.367   8.278  0.8303  0.6133 -0.7334
  157SAPE  C21717514   2.416   0.548   8.260 -0.3151 -0.8696 -0.1094
  157SAPE  H17R17515   2.360   0.602   8.181 -0.6044 -2.1635 -0.8063
  157SAPE  H17S17516   2.502   0.614   8.283 -0.0569 -0.4831 -2.0872
  157SAPE  C21817517   2.344   0.525   8.395 -0.1529 -0.4441  0.0157
  157SAPE  H18R17518   2.411   0.458   8.454  3.3518  0.9229 -2.2277
  157SAPE  H18S17519   2.248   0.474   8.377 -2.0506  2.4901  1.3506
  157SAPE  C21917520   2.310   0.650   8.478 -0.3497  0.0615  0.1629
  157SAPE  H19R17521   2.400   0.716   8.488  0.5616 -1.0862 -0.3613
  157SAPE  H19S17522   2.279   0.618   8.579 -2.9644  1.8435 -0.0251
  157SAPE  C22017523   2.198   0.739   8.425 -0.3675 -0.5153 -0.6020
  157SAPE  H20R17524   2.224   0.780   8.326  1.4743  1.0881  0.5190
  157SAPE  H20S17525   2.181   0.823   8.496 -2.0100  0.5980 -2.2479
  157SAPE  H20T17526   2.106   0.677   8.418 -0.6871 -0.0726 -0.3889
  157SAPE   C3317527   2.293   0.984   7.129  0.5583 -0.1393  0.3327
  157SAPE   H3X17528   2.330   1.088   7.116 -0.6018  0.1848 -0.4993
  157SAPE   H3Y17529   2.385   0.922   7.132  0.8938  0.3226 -0.2566
  157SAPE   C3417530   2.232   0.981   7.272 -0.7309  0.0137  0.3500
  157SAPE   H4X17531   2.128   1.019   7.269 -0.0262  1.9411 -0.2420
  157SAPE   H4Y17532   2.282   1.059   7.334  1.3178 -1.1038  0.1734
  157SAPE   C3517533   2.260   0.846   7.332 -0.1589 -0.1869  0.3196
  157SAPE   H5X17534   2.367   0.825   7.353 -0.0070  0.7874  0.5372
  157SAPE   H5Y17535   2.214   0.767   7.269 -0.5936  0.1919  0.1559
  157SAPE   C3617536   2.207   0.832   7.477  0.3387 -0.3224  0.0911
  157SAPE   H6X17537   2.206   0.724   7.503  0.9000 -0.9318 -2.2623
  157SAPE   H6Y17538   2.098   0.849   7.465  0.5089  0.8437  0.1945
  157SAPE   C3717539   2.275   0.915   7.577 -0.4438  0.3287 -0.1412
  157SAPE   H7X17540   2.243   1.021   7.584 -2.4060 -0.1212 -1.7672
  157SAPE   H7Y17541   2.385   0.900   7.573 -0.3216  0.4025  2.4865
  157SAPE   C3817542   2.237   0.876   7.720 -0.2457  0.1074 -0.0011
  157SAPE   H8X17543   2.244   0.770   7.753  0.6318  0.2800  0.3798
  157SAPE   H8Y17544   2.134   0.913   7.740 -0.5347  1.1336 -3.0825
  157SAPE   C3917545   2.333   0.955   7.815 -0.4668 -0.5910 -0.8876
  157SAPE   H9X17546   2.316   1.063   7.793 -2.2970 -0.5133  0.7875
  157SAPE   H9Y17547   2.436   0.920   7.794  0.0519  0.1046  0.4411
  157SAPE  C31017548   2.312   0.925   7.963 -0.0601  0.6446  0.2025
  157SAPE  H10X17549   2.339   0.819   7.985  0.1074  1.0498  2.0035
  157SAPE  H10Y17550   2.210   0.945   8.001 -0.3659 -0.0430 -0.2430
  157SAPE  C31117551   2.399   1.020   8.044 -0.1465  0.5797 -0.2267
  157SAPE  H11X17552   2.359   1.123   8.034 -0.0369  0.5090 -1.4310
  157SAPE  H11Y17553   2.505   1.035   8.012 -0.0880 -0.9159 -0.7523
  157SAPE  C31217554   2.393   0.984   8.198 -0.4833 -0.4274 -0.1454
  157SAPE  H12X17555   2.414   0.876   8.211 -1.7977 -0.4682  1.9264
  157SAPE  H12Y17556   2.293   1.003   8.243  0.2917 -0.4821  1.6417
  157SAPE  C31317557   2.491   1.066   8.280  0.2862  0.0246 -0.0819
  157SAPE  H13X17558   2.457   1.172   8.275 -1.4079 -0.5435 -1.1250
  157SAPE  H13Y17559   2.591   1.050   8.235  0.4922 -0.3492  0.5154
  157SAPE  C31417560   2.502   1.022   8.417 -0.3605  0.2452  0.1813
  157SAPE  H14X17561   2.548   0.920   8.417 -1.3142 -0.2066  1.7316
  157SAPE  H14Y17562   2.399   1.007   8.454 -0.5803 -0.7949 -0.8279
  157SAPE  C31517563   2.592   1.112   8.504 -0.2231 -0.1632  0.2135
  157SAPE  H15X17564   2.529   1.203   8.517  0.7956  0.8713 -1.6899
  157SAPE  H15Y17565   2.679   1.149   8.446 -2.1777  1.3277 -1.8810
  157SAPE  C31617566   2.622   1.058   8.643 -0.1684 -0.0275  0.1274
  157SAPE  H16X17567   2.692   0.975   8.620  1.7648  1.1633  1.6177
  157SAPE  H16Y17568   2.536   1.007   8.691  1.3478 -2.0865  0.7311
  157SAPE  C31717569   2.688   1.160   8.740 -0.0328 -0.2397  0.9318
  157SAPE  H17X17570   2.689   1.115   8.841  0.6150 -0.8897  0.6369
  157SAPE  H17Y17571   2.627   1.253   8.741  0.7129  0.2492  2.0515
  157SAPE  C31817572   2.828   1.195   8.697 -0.0789  0.7762  0.1919
  157SAPE  H18X17573   2.896   1.107   8.701 -3.0441 -1.5536  1.1649
  157SAPE  H18Y17574   2.870   1.278   8.757  0.0691 -0.5869  2.0181
  157SAPE  H18Z17575   2.817   1.227   8.591  0.4850  0.4772  0.0436
  158SAPE     N17576   3.522   5.682   5.891  0.3145  0.4070 -0.0496
  158SAPE   HN117577   3.471   5.636   5.970  0.1703  0.5766 -0.0428
  158SAPE   HN217578   3.446   5.718   5.829  1.5597  0.1286 -1.7653
  158SAPE   HN317579   3.576   5.614   5.835 -0.4887  2.2762 -3.2014
  158SAPE   C1217580   3.611   5.790   5.950  0.0656 -0.5829  0.3025
  158SAPE  H12A17581   3.551   5.871   5.997  1.7744  0.2683  1.0750
  158SAPE  H12B17582   3.662   5.845   5.868  0.3383 -1.0053  0.1855
  158SAPE   C1117583   3.707   5.721   6.056  0.0828 -0.6467 -0.0783
  158SAPE  H11A17584   3.786   5.668   5.998  0.0222 -0.6791 -0.1322
  158SAPE  H11B17585   3.636   5.647   6.100 -1.1024  0.8684  0.5889
  158SAPE     P17586   3.813   5.763   6.289 -0.0891 -0.2510 -0.0099
  158SAPE   O1317587   3.921   5.666   6.264  0.0090 -0.1608  0.4561
  158SAPE   O1417588   3.843   5.885   6.365 -0.2872 -0.1782 -0.3626
  158SAPE   O1217589   3.755   5.820   6.147  0.4232  0.2851  0.6250
  158SAPE   O1117590   3.681   5.690   6.341  0.0169 -0.2426  0.6306
  158SAPE    C117591   3.614   5.759   6.449 -0.3680  0.2773  0.7874
  158SAPE    HA17592   3.594   5.866   6.423  0.3469  0.8318  2.4543
  158SAPE    HB17593   3.511   5.723   6.470 -0.0225 -0.3676  1.3920
  158SAPE    C217594   3.684   5.763   6.591  0.1868  0.2834 -0.2677
  158SAPE    HS17595   3.775   5.827   6.586  1.4081 -1.1288  2.9326
  158SAPE   O2117596   3.705   5.629   6.639  0.3167 -0.0717 -0.3805
  158SAPE   C2117597   3.820   5.611   6.713  0.5029 -0.1851  0.3354
  158SAPE   O2217598   3.911   5.690   6.712 -0.6868  0.1544  0.4906
  158SAPE   C2217599   3.837   5.467   6.771 -0.2055 -0.9206 -0.3611
  158SAPE   H2R17600   3.787   5.450   6.868 -1.0773  0.2145 -0.5980
  158SAPE   H2S17601   3.791   5.397   6.698 -0.3608 -2.5156  1.2323
  158SAPE    C317602   3.595   5.832   6.699 -0.7898 -0.2486 -0.1814
  158SAPE    HX17603   3.504   5.768   6.699 -0.8639 -0.1402 -0.7529
  158SAPE    HY17604   3.555   5.928   6.659 -1.0795 -1.0839 -1.9043
  158SAPE   O3117605   3.655   5.832   6.835  0.3188 -0.1214  0.4171
  158SAPE   C3117606   3.698   5.955   6.868  0.2895  0.7250 -0.2767
  158SAPE   O3217607   3.680   6.052   6.801  0.4321  0.0206 -0.0148
  158SAPE   C3217608   3.793   5.947   6.992 -0.0803  0.2336 -0.3922
  158SAPE   H2X17609   3.882   5.888   6.963 -1.5286 -2.3672  0.3268
  158SAPE   H2Y17610   3.737   5.887   7.067  1.6687 -0.2645  0.5469
  158SAPE   C2317611   3.984   5.414   6.798  0.4909 -0.3160  0.1435
  158SAPE   H3R17612   4.029   5.489   6.867 -0.1976  0.8807 -0.6879
  158SAPE   H3S17613   4.038   5.413   6.701  0.5730 -1.5672  0.2023
  158SAPE   C2417614   3.987   5.271   6.873 -0.3329 -0.5560 -0.3197
  158SAPE   H4R17615   3.934   5.270   6.971  1.1472  2.1101  0.5827
  158SAPE   H4S17616   4.090   5.257   6.912 -1.0985  1.2567  2.4904
  158SAPE   C2517617   3.959   5.163   6.770 -0.3701 -0.0288  0.0746
  158SAPE   H5R17618   4.020   5.173   6.678  0.4196 -0.6578  0.5201
  158SAPE   C2617619   3.859   5.073   6.767 -0.4236  0.0613  0.9945
  158SAPE   H6R17620   3.849   4.990   6.696  1.3757  0.3760  0.3615
  158SAPE   C2717621   3.758   5.056   6.875 -0.4556 -0.0738  0.5302
  158SAPE   H7R17622   3.667   5.010   6.832  0.8114  0.4832 -2.9018
  158SAPE   H7S17623   3.733   5.159   6.908  1.1023  0.4716  0.0744
  158SAPE   C2817624   3.809   4.971   6.986  0.5776 -0.5953  0.2386
  158SAPE   H8R17625   3.842   4.871   6.955  2.3361 -0.9369  3.0414
  158SAPE   C2917626   3.823   4.992   7.120 -0.2710  0.6409 -0.7861
  158SAPE   H9R17627   3.867   4.907   7.176 -0.5280  1.6012  0.8833
  158SAPE  C21017628   3.795   5.116   7.207  0.1703 -0.1827 -0.8945
  158SAPE  H10R17629   3.737   5.079   7.294 -0.1589 -0.3476 -1.1864
  158SAPE  H10S17630   3.740   5.196   7.153  1.8033  0.7817 -1.1670
  158SAPE  C21117631   3.925   5.183   7.250  0.3626 -0.5191 -0.4557
  158SAPE  H11R17632   4.013   5.175   7.184  0.6094 -0.9855 -0.0763
  158SAPE  C21217633   3.949   5.231   7.373  0.4392 -0.4607 -0.1088
  158SAPE  H12R17634   4.048   5.266   7.408  0.3657 -1.2452  0.9199
  158SAPE  C21317635   3.860   5.227   7.497 -1.2833 -0.4473  0.5676
  158SAPE  H13R17636   3.751   5.224   7.473 -1.1796 -1.8814  0.2406
  158SAPE  H13S17637   3.876   5.318   7.559  0.5149  0.2687 -0.9122
  158SAPE  C21417638   3.881   5.105   7.577  0.3840 -0.1822  0.3513
  158SAPE  H14R17639   3.925   5.029   7.511 -1.5784 -0.9968 -0.0753
  158SAPE  C21517640   3.829   5.074   7.699  0.6769  1.0449 -0.1156
  158SAPE  H15R17641   3.850   4.975   7.741  2.1508  1.9867  1.4077
  158SAPE  C21617642   3.746   5.176   7.781  0.5228 -0.2459  0.3391
  158SAPE  H16R17643   3.644   5.180   7.736  1.0185 -2.7906 -1.1305
  158SAPE  H16S17644   3.793   5.274   7.762 -0.8078  0.5971  1.3248
  158SAPE  C21717645   3.725   5.132   7.928 -0.2742  0.1335 -0.3738
  158SAPE  H17R17646   3.692   5.026   7.936  0.3623 -0.5756 -5.5377
  158SAPE  H17S17647   3.641   5.194   7.967 -1.7760 -2.3100  0.3821
  158SAPE  C21817648   3.842   5.158   8.013 -0.3826 -0.3981 -0.5612
  158SAPE  H18R17649   3.838   5.254   8.067 -0.9243 -0.3533 -0.6769
  158SAPE  H18S17650   3.936   5.165   7.954 -1.7573  0.5126 -2.7158
  158SAPE  C21917651   3.871   5.045   8.113 -0.9558 -0.3829  0.2992
  158SAPE  H19R17652   3.884   4.946   8.064 -3.0893 -0.7735  0.4578
  158SAPE  H19S17653   3.783   5.045   8.181 -2.5468  0.8657 -1.7185
  158SAPE  C22017654   3.993   5.078   8.201 -0.1745 -0.8066  0.2512
  158SAPE  H20R17655   4.006   4.989   8.266  0.3092 -1.1723 -0.3432
  158SAPE  H20S17656   3.978   5.171   8.261 -0.0197 -1.0926  0.7310
  158SAPE  H20T17657   4.089   5.098   8.148  1.4981 -2.7145  2.4518
  158SAPE   C3317658   3.850   6.083   7.044  0.6099  0.1346  0.5260
  158SAPE   H3X17659   3.873   6.151   6.959 -2.0055  3.1152  2.0952
  158SAPE   H3Y17660   3.951   6.062   7.087  0.2195  0.9633  1.8755
  158SAPE   C3417661   3.778   6.159   7.147  0.0372 -0.3407 -0.3215
  158SAPE   H4X17662   3.682   6.188   7.099  0.4000  0.6367 -0.4709
  158SAPE   H4Y17663   3.825   6.255   7.177  4.0064 -2.3372  0.1811
  158SAPE   C3517664   3.753   6.083   7.280 -0.4616  0.1969  0.1863
  158SAPE   H5X17665   3.849   6.044   7.320  0.4401  2.7406  0.6088
  158SAPE   H5Y17666   3.688   5.997   7.253  0.3980 -0.9185  1.5514
  158SAPE   C3617667   3.680   6.170   7.384  0.0267  0.3182 -0.1276
  158SAPE   H6X17668   3.570   6.176   7.369 -0.2177  0.6232  1.6479
  158SAPE   H6Y17669   3.719   6.274   7.374  0.9572 -0.0240 -0.1240
  158SAPE   C3717670   3.691   6.116   7.528 -0.3872 -0.1103 -0.0013
  158SAPE   H7X17671   3.640   6.017   7.535 -2.9006  1.2838  2.5976
  158SAPE   H7Y17672   3.798   6.100   7.550 -0.0552 -0.4116 -1.7436
  158SAPE   C3817673   3.633   6.215   7.633 -0.6397 -0.1904 -0.0638
  158SAPE   H8X17674   3.524   6.226   7.617 -0.8001 -1.9884 -0.2671
  158SAPE   H8Y17675   3.687   6.313   7.635  1.5253 -1.2876 -1.8815
  158SAPE   C3917676   3.651   6.157   7.775  0.2544  0.5649  0.0770
  158SAPE   H9X17677   3.655   6.244   7.843 -1.3746 -0.3332  1.3760
  158SAPE   H9Y17678   3.746   6.099   7.783 -0.1629  0.0734  1.5616
  158SAPE  C31017679   3.531   6.070   7.813  0.2121  0.1407  0.5199
  158SAPE  H10X17680   3.571   5.990   7.879 -0.0293 -0.8420 -0.5063
  158SAPE  H10Y17681   3.493   6.032   7.715  1.8915 -1.8868  0.6199
  158SAPE  C31117682   3.434   6.151   7.901 -0.7717  0.3096 -0.4204
  158SAPE  H11X17683   3.411   6.251   7.858 -1.1625 -0.1440 -1.2610
  158SAPE  H11Y17684   3.486   6.171   7.997 -2.1896  0.5309  0.3182
  158SAPE  C31217685   3.300   6.073   7.921 -0.8214 -0.0081 -0.9446
  158SAPE  H12X17686   3.263   6.060   7.817  1.7591 -0.4702 -1.8463
  158SAPE  H12Y17687   3.220   6.133   7.971 -1.2426  0.1258 -1.7775
  158SAPE  C31317688   3.308   5.924   7.979 -0.2554 -0.1417 -1.0174
  158SAPE  H13X17689   3.368   5.927   8.073 -1.1433 -0.4469 -0.4285
  158SAPE  H13Y17690   3.353   5.843   7.918  1.2442 -0.0489 -0.0695
  158SAPE  C31417691   3.162   5.869   8.030  0.1398 -0.4238  0.0473
  158SAPE  H14X17692   3.182   5.759   8.029 -1.3332 -0.7313  1.5321
  158SAPE  H14Y17693   3.092   5.906   7.953 -0.4799  0.4869  1.0421
  158SAPE  C31517694   3.102   5.915   8.168  0.1961  0.1074  0.1475
  158SAPE  H15X17695   2.998   5.877   8.175  0.2800 -0.6091 -2.1337
  158SAPE  H15Y17696   3.106   6.025   8.153  1.2177 -0.0231 -0.5960
  158SAPE  C31617697   3.173   5.869   8.294  0.0698 -0.1091  0.0279
  158SAPE  H16X17698   3.276   5.910   8.289  0.3819 -0.8926  0.1308
  158SAPE  H16Y17699   3.179   5.759   8.279 -0.0877  0.1019 -1.7271
  158SAPE  C31717700   3.101   5.921   8.417 -0.2657  0.2140  0.3323
  158SAPE  H17X17701   3.015   5.857   8.445  1.5668 -0.8927  3.8507
  158SAPE  H17Y17702   3.075   6.028   8.404  0.4529  0.0790 -2.4027
  158SAPE  C31817703   3.177   5.912   8.550 -0.1174  1.0039 -0.3500
  158SAPE  H18X17704   3.268   5.976   8.547  0.8202 -0.2599  0.6682
  158SAPE  H18Y17705   3.215   5.808   8.562 -2.9352 -0.0640 -0.2963
  158SAPE  H18Z17706   3.120   5.948   8.638  2.9850  0.8986  1.7943
  159SAPE     N17707   3.988   1.808   6.288 -0.1606 -0.8148 -0.4341
  159SAPE   HN117708   3.913   1.853   6.344  0.3699  1.2103 -1.2849
  159SAPE   HN217709   3.991   1.711   6.325  1.8440 -0.4719  0.3082
  159SAPE   HN317710   4.079   1.858   6.285 -1.3648  1.6948  2.6441
  159SAPE   C1217711   3.935   1.792   6.151  0.3310  0.2793 -0.0225
  159SAPE  H12A17712   3.993   1.710   6.103  0.0317  0.4591 -0.6951
  159SAPE  H12B17713   3.941   1.875   6.077 -2.5769  2.0035  1.5724
  159SAPE   C1117714   3.787   1.759   6.174  0.2534  0.2384  1.1067
  159SAPE  H11A17715   3.738   1.765   6.074  1.2643 -1.8314  0.4452
  159SAPE  H11B17716   3.744   1.840   6.237  0.0388  2.6450 -2.0246
  159SAPE     P17717   3.639   1.544   6.232  0.1579  0.6411  0.1144
  159SAPE   O1317718   3.532   1.627   6.174 -0.7141  0.0389  0.6543
  159SAPE   O1417719   3.657   1.415   6.161 -0.2226  0.1083  0.1646
  159SAPE   O1217720   3.778   1.628   6.233 -0.5792  0.2839 -0.0841
  159SAPE   O1117721   3.597   1.533   6.379  0.0822  0.1674  0.3887
  159SAPE    C117722   3.631   1.619   6.483  0.0739 -0.3513  0.2725
  159SAPE    HA17723   3.675   1.716   6.453  2.5712 -1.0660  1.4467
  159SAPE    HB17724   3.536   1.646   6.534 -0.0716  0.0066 -0.1877
  159SAPE    C217725   3.740   1.551   6.576  0.7144 -0.3353  0.1789
  159SAPE    HS17726   3.813   1.503   6.508  0.5925  0.3301 -0.4243
  159SAPE   O2117727   3.678   1.443   6.647 -0.3092 -0.4464  0.1216
  159SAPE   C2117728   3.597   1.487   6.750  0.3346  0.4525  0.2106
  159SAPE   O2217729   3.596   1.598   6.798 -0.0201  0.7971  0.1992
  159SAPE   C2217730   3.497   1.375   6.782  0.6865 -0.5856  0.2580
  159SAPE   H2R17731   3.407   1.411   6.729  0.3081 -2.6441 -0.5577
  159SAPE   H2S17732   3.537   1.277   6.748  2.8241 -0.0597  1.1512
  159SAPE    C317733   3.826   1.646   6.658 -0.6915 -0.0669  0.8394
  159SAPE    HX17734   3.755   1.730   6.670 -1.2264 -0.4474  0.3449
  159SAPE    HY17735   3.906   1.688   6.593 -1.9082 -1.9090 -1.9967
  159SAPE   O3117736   3.891   1.592   6.774  0.2403 -0.0854  0.3638
  159SAPE   C3117737   3.977   1.496   6.755 -0.6615  0.0286 -0.0326
  159SAPE   O3217738   4.025   1.467   6.649 -0.0022  0.4003  0.3248
  159SAPE   C3217739   3.993   1.426   6.889  0.2598  0.6769 -0.0549
  159SAPE   H2X17740   4.036   1.324   6.879  0.6880  0.9121 -0.6541
  159SAPE   H2Y17741   3.897   1.421   6.945  1.3471 -1.0312  1.6877
  159SAPE   C2317742   3.462   1.372   6.931 -0.3550 -0.8055 -0.1271
  159SAPE   H3R17743   3.402   1.461   6.958 -1.8335 -1.4079 -1.3739
  159SAPE   H3S17744   3.554   1.375   6.994  0.6247  3.4296 -1.6177
  159SAPE   C2417745   3.363   1.254   6.967 -0.7224  0.2142  0.3545
  159SAPE   H4R17746   3.269   1.276   6.912 -0.8685  0.8141  0.8371
  159SAPE   H4S17747   3.334   1.267   7.073  0.4157  0.8276  0.6008
  159SAPE   C2517748   3.405   1.117   6.930  0.4505  0.2051 -0.2098
  159SAPE   H5R17749   3.428   1.096   6.825  1.0148 -0.8283  0.1148
  159SAPE   C2617750   3.390   1.010   7.010  0.5018 -0.9228  0.0466
  159SAPE   H6R17751   3.453   0.923   6.986 -1.1149 -1.5368 -2.1298
  159SAPE   C2717752   3.332   1.005   7.147 -0.2282 -0.0578 -0.3200
  159SAPE   H7R17753   3.302   0.902   7.177 -2.2538  0.8148  0.7004
  159SAPE   H7S17754   3.242   1.070   7.139 -0.8880 -1.2040 -2.5529
  159SAPE   C2817755   3.434   1.044   7.260 -0.4038 -0.9767  0.0224
  159SAPE   H8R17756   3.538   1.057   7.226 -1.1876  0.7185 -1.8354
  159SAPE   C2917757   3.400   1.091   7.380 -0.5361 -0.0161 -0.5599
  159SAPE   H9R17758   3.488   1.116   7.441 -1.0153  0.0221  0.1167
  159SAPE  C21017759   3.255   1.107   7.430  0.2762 -0.5169  0.2733
  159SAPE  H10R17760   3.187   1.033   7.383 -0.7408  0.9104 -0.5588
  159SAPE  H10S17761   3.219   1.200   7.379  1.3599  0.3204  1.0164
  159SAPE  C21117762   3.225   1.125   7.574  0.1815 -0.3507 -0.5566
  159SAPE  H11R17763   3.160   1.210   7.601 -1.4614 -1.4198 -1.0609
  159SAPE  C21217764   3.268   1.043   7.672  0.4791  0.2768  0.1112
  159SAPE  H12R17765   3.243   1.064   7.777  1.5042  1.9087  0.0419
  159SAPE  C21317766   3.341   0.909   7.662 -0.1516  0.1935  0.0487
  159SAPE  H13R17767   3.438   0.913   7.717  0.9636 -0.0417 -1.8636
  159SAPE  H13S17768   3.363   0.883   7.556  0.4322  0.6387  0.0536
  159SAPE  C21417769   3.246   0.803   7.699  0.4104  0.4297  0.0348
  159SAPE  H14R17770   3.199   0.753   7.613 -1.0588  2.5138 -0.4144
  159SAPE  C21517771   3.229   0.748   7.816 -0.3256  0.2330 -0.2056
  159SAPE  H15R17772   3.151   0.674   7.837  1.2522 -1.5640 -0.5583
  159SAPE  C21617773   3.301   0.789   7.941 -0.0436  0.2440 -0.2722
  159SAPE  H16R17774   3.379   0.866   7.926  0.0344  0.0061 -1.1245
  159SAPE  H16S17775   3.356   0.698   7.974  0.7397  0.1777 -1.7128
  159SAPE  C21717776   3.204   0.827   8.051  0.6387  0.0794 -0.7705
  159SAPE  H17R17777   3.125   0.751   8.066  2.5476 -2.2703 -2.2472
  159SAPE  H17S17778   3.155   0.921   8.017 -0.9502  0.4524  2.4625
  159SAPE  C21817779   3.287   0.842   8.182 -0.0219 -0.1479  0.7130
  159SAPE  H18R17780   3.363   0.922   8.172  0.4990 -0.5350  1.4968
  159SAPE  H18S17781   3.342   0.748   8.204  0.8936  0.6048  1.7257
  159SAPE  C21917782   3.196   0.871   8.303  0.6323  0.0538 -0.2144
  159SAPE  H19R17783   3.134   0.780   8.321  0.9353 -0.3619 -1.2648
  159SAPE  H19S17784   3.126   0.955   8.284  0.2129  0.0589  1.2989
  159SAPE  C22017785   3.271   0.893   8.439  0.2332  0.9929  0.5154
  159SAPE  H20R17786   3.317   0.994   8.438  0.7005  0.7809 -1.2417
  159SAPE  H20S17787   3.346   0.817   8.468 -0.5370  0.6433  1.6149
  159SAPE  H20T17788   3.196   0.896   8.522  0.9601  1.2579  1.1636
  159SAPE   C3317789   4.093   1.507   6.978 -0.7299  0.0580 -0.5269
  159SAPE   H3X17790   4.065   1.615   6.984 -2.8489 -0.3418 -2.6802
  159SAPE   H3Y17791   4.191   1.505   6.925 -0.7064 -1.2004 -0.4461
  159SAPE   C3417792   4.113   1.444   7.112  0.3604  0.1287 -0.8293
  159SAPE   H4X17793   4.155   1.342   7.095  0.6588  0.0818  0.1689
  159SAPE   H4Y17794   4.009   1.444   7.151  1.0045 -3.0174  1.0162
  159SAPE   C3517795   4.202   1.521   7.203 -0.2229 -0.1228 -0.1098
  159SAPE   H5X17796   4.295   1.566   7.161  0.0504 -0.7171 -0.1474
  159SAPE   H5Y17797   4.247   1.466   7.289  3.3603 -0.0678 -1.8332
  159SAPE   C3617798   4.126   1.638   7.272  0.4633 -0.1462 -0.0895
  159SAPE   H6X17799   4.036   1.668   7.214  0.5543 -1.7192 -1.0368
  159SAPE   H6Y17800   4.190   1.726   7.297 -0.5944 -0.1186  2.7547
  159SAPE   C3717801   4.083   1.603   7.424 -0.4208 -0.0393 -0.1222
  159SAPE   H7X17802   4.172   1.568   7.481 -0.6381  0.7424  0.7135
  159SAPE   H7Y17803   4.019   1.512   7.421  0.4391 -0.6253 -0.5853
  159SAPE   C3817804   3.996   1.706   7.492  0.4239 -0.4044 -0.1718
  159SAPE   H8X17805   3.896   1.707   7.444 -0.1026  1.0140  0.8888
  159SAPE   H8Y17806   4.035   1.810   7.479  2.3560 -1.1519 -0.4739
  159SAPE   C3917807   3.976   1.658   7.637 -0.4499  0.5225 -0.2288
  159SAPE   H9X17808   4.072   1.663   7.693 -0.5294  1.2348 -0.1449
  159SAPE   H9Y17809   3.946   1.552   7.638 -2.8776  1.1742 -1.4684
  159SAPE  C31017810   3.879   1.750   7.706 -0.3112 -0.2722 -0.2858
  159SAPE  H10X17811   3.781   1.754   7.653 -0.4473  0.8904  0.0359
  159SAPE  H10Y17812   3.899   1.859   7.703 -1.3072 -0.1012 -1.1359
  159SAPE  C31117813   3.847   1.702   7.850 -0.8830 -0.5313 -0.2476
  159SAPE  H11X17814   3.946   1.706   7.901 -0.4378 -1.1246 -1.0483
  159SAPE  H11Y17815   3.809   1.598   7.851 -1.7834 -0.2264 -1.3006
  159SAPE  C31217816   3.746   1.796   7.916 -0.7023 -0.2951 -0.0770
  159SAPE  H12X17817   3.658   1.799   7.849  0.1766  1.6321 -1.1811
  159SAPE  H12Y17818   3.799   1.893   7.910  1.3465 -1.0882  3.4871
  159SAPE  C31317819   3.715   1.776   8.066  0.1098 -0.0596  0.4721
  159SAPE  H13X17820   3.806   1.761   8.128  0.5371  3.0498  0.6890
  159SAPE  H13Y17821   3.661   1.679   8.075 -1.1643  0.6911  1.0571
  159SAPE  C31417822   3.618   1.866   8.133 -0.8966 -1.3290  0.0506
  159SAPE  H14X17823   3.534   1.887   8.064 -1.2500 -2.6760  0.0567
  159SAPE  H14Y17824   3.661   1.966   8.159 -0.8174 -1.1624 -0.7166
  159SAPE  C31517825   3.544   1.805   8.251  0.2043  0.5777  0.7132
  159SAPE  H15X17826   3.609   1.767   8.332  2.2089 -0.4280 -1.3070
  159SAPE  H15Y17827   3.490   1.718   8.208 -1.8019  0.5981  3.0759
  159SAPE  C31617828   3.450   1.901   8.315  0.3300 -0.1894 -0.1935
  159SAPE  H16X17829   3.394   1.971   8.250 -0.2346  1.1651  1.7210
  159SAPE  H16Y17830   3.508   1.969   8.380 -2.2041  1.1133  0.7623
  159SAPE  C31717831   3.346   1.821   8.405 -0.3929  0.1394  0.3193
  159SAPE  H17X17832   3.406   1.765   8.480 -0.0528  0.2077  0.0983
  159SAPE  H17Y17833   3.288   1.747   8.345  0.2442 -0.7029  0.7312
  159SAPE  C31817834   3.250   1.907   8.495 -0.8162  0.0127  0.0310
  159SAPE  H18X17835   3.216   1.832   8.571  1.9166  0.1848  1.5058
  159SAPE  H18Y17836   3.164   1.957   8.446 -0.9369 -0.5395 -0.3316
  159SAPE  H18Z17837   3.300   1.990   8.549 -0.7858  1.6697 -2.4926
  160SAPE     N17838   4.087   0.235   6.505  1.0787 -0.0386  0.6083
  160SAPE   HN117839   4.031   0.319   6.479  1.2531 -0.7326 -2.0973
  160SAPE   HN217840   4.144   0.217   6.420  0.9905  2.0634  0.0685
  160SAPE   HN317841   4.024   0.157   6.531 -0.5891  0.5378 -1.5196
  160SAPE   C1217842   4.177   0.264   6.625  0.3456 -0.6302 -0.9071
  160SAPE  H12A17843   4.113   0.287   6.713  0.5569  0.6411 -1.0819
  160SAPE  H12B17844   4.239   0.353   6.603 -1.1398  0.5473 -0.4064
  160SAPE   C1117845   4.250   0.134   6.655  0.0564 -0.3616 -0.3369
  160SAPE  H11A17846   4.192   0.045   6.687 -1.9049  1.1247  0.2981
  160SAPE  H11B17847   4.313   0.143   6.746  0.1209 -1.5998 -0.2450
  160SAPE     P17848   4.379  -0.037   6.497 -0.6634  0.1400  0.1704
  160SAPE   O1317849   4.264  -0.118   6.455  0.1115 -0.1511  0.0744
  160SAPE   O1417850   4.497  -0.024   6.408 -0.3227  0.3136 -0.3507
  160SAPE   O1217851   4.331   0.106   6.542 -0.1943  0.2131  0.1369
  160SAPE   O1117852   4.438  -0.095   6.636  0.2987  0.1431 -0.2072
  160SAPE    C117853   4.363  -0.203   6.695  0.2184 -0.9643  0.5944
  160SAPE    HA17854   4.255  -0.182   6.708  0.4702  1.5814 -1.2420
  160SAPE    HB17855   4.374  -0.297   6.637 -1.2277 -0.8648  0.1527
  160SAPE    C217856   4.424  -0.232   6.838  0.8935 -0.2637  0.0472
  160SAPE    HS17857   4.347  -0.283   6.899  0.1000  0.0902 -0.6461
  160SAPE   O2117858   4.481  -0.128   6.907  0.1241 -0.2618  0.7733
  160SAPE   C2117859   4.400  -0.044   6.950  0.3937 -0.1180 -0.5155
  160SAPE   O2217860   4.277  -0.063   6.958  0.3822  0.1333  0.5406
  160SAPE   C2217861   4.480   0.075   6.995  0.6669  0.6620 -0.3380
  160SAPE   H2R17862   4.590   0.068   6.989  0.9038  1.2261  2.6200
  160SAPE   H2S17863   4.448   0.169   6.945 -0.6337  0.3908 -0.0373
  160SAPE    C317864   4.524  -0.344   6.815 -0.5997  0.4034  0.2168
  160SAPE    HX17865   4.602  -0.302   6.747 -0.0743 -0.1350  0.4837
  160SAPE    HY17866   4.482  -0.434   6.767 -0.5702  0.5175 -0.0230
  160SAPE   O3117867   4.590  -0.385   6.941 -0.1911  0.2986  0.5883
  160SAPE   C3117868   4.694  -0.333   6.977 -0.1119  0.2171 -0.3470
  160SAPE   O3217869   4.759  -0.245   6.922  0.1433 -0.3149  0.6326
  160SAPE   C3217870   4.730  -0.403   7.107  0.1495  0.0780 -0.3750
  160SAPE   H2X17871   4.799  -0.328   7.150  0.4890  0.4816 -1.6027
  160SAPE   H2Y17872   4.791  -0.490   7.073  0.7610  0.3494  0.0335
  160SAPE   C2317873   4.443   0.095   7.148 -0.3425 -0.0577  0.0536
  160SAPE   H3R17874   4.335   0.115   7.169 -0.0368  1.7855 -0.0619
  160SAPE   H3S17875   4.502   0.185   7.178 -0.4395 -1.2732  4.2889
  160SAPE   C2417876   4.482  -0.019   7.244 -0.3185 -0.0905 -0.0788
  160SAPE   H4R17877   4.425  -0.104   7.202  0.8659 -0.0305 -1.8576
  160SAPE   H4S17878   4.444   0.011   7.345  1.4293  0.2882  0.4916
  160SAPE   C2517879   4.633  -0.037   7.237  0.2114  0.2545 -0.1662
  160SAPE   H5R17880   4.675  -0.032   7.135  1.9753  2.5826  0.6423
  160SAPE   C2617881   4.725  -0.073   7.333 -0.0657 -0.2491 -0.1171
  160SAPE   H6R17882   4.831  -0.068   7.304  0.8563  2.1544  3.3848
  160SAPE   C2717883   4.685  -0.105   7.475 -0.5280 -0.3801  0.2256
  160SAPE   H7R17884   4.665  -0.214   7.479  0.7639 -0.7795 -2.9989
  160SAPE   H7S17885   4.600  -0.039   7.505 -0.6115 -0.0026 -0.8393
  160SAPE   C2817886   4.792  -0.073   7.569 -0.4133 -0.1808 -0.3160
  160SAPE   H8R17887   4.881  -0.026   7.524  1.1453 -1.0813  1.7762
  160SAPE   C2917888   4.796  -0.096   7.698  0.6966  0.2902  0.5640
  160SAPE   H9R17889   4.900  -0.086   7.732  0.9450 -0.5695  0.0888
  160SAPE  C21017890   4.688  -0.172   7.779 -0.6851  0.0262  0.5447
  160SAPE  H10R17891   4.739  -0.269   7.801 -2.6034 -1.4711 -1.4434
  160SAPE  H10S17892   4.595  -0.204   7.727  0.0306  0.9653 -1.3841
  160SAPE  C21117893   4.663  -0.099   7.907 -0.2501 -0.3593  0.2064
  160SAPE  H11R17894   4.653   0.008   7.882 -0.4347 -1.0211 -2.7457
  160SAPE  C21217895   4.664  -0.157   8.030 -0.1441 -0.0579  0.4488
  160SAPE  H12R17896   4.640  -0.085   8.109 -1.0829 -0.3478  0.4412
  160SAPE  C21317897   4.678  -0.305   8.064  0.2423  0.1116 -0.6353
  160SAPE  H13R17898   4.663  -0.373   7.978  2.0371  1.2940 -1.9291
  160SAPE  H13S17899   4.605  -0.333   8.143  2.1716 -2.2139  0.4116
  160SAPE  C21417900   4.813  -0.341   8.110 -0.0928 -0.3623  0.0908
  160SAPE  H14R17901   4.884  -0.329   8.027 -1.7569 -3.1389 -1.8168
  160SAPE  C21517902   4.858  -0.391   8.225 -0.3196  0.0101 -0.3608
  160SAPE  H15R17903   4.955  -0.443   8.221 -1.1548 -1.7708  1.6384
  160SAPE  C21617904   4.775  -0.417   8.350  0.7042  0.1397  0.5260
  160SAPE  H16R17905   4.761  -0.526   8.368  1.2122  0.3776  2.4771
  160SAPE  H16S17906   4.670  -0.383   8.335  0.0609 -1.3725  1.4767
  160SAPE  C21717907   4.839  -0.359   8.464 -0.1840 -0.1604 -0.2839
  160SAPE  H17R17908   4.861  -0.250   8.466  1.1537 -0.3612 -2.2637
  160SAPE  H17S17909   4.941  -0.401   8.474 -1.3783 -3.0587  0.1040
  160SAPE  C21817910   4.773  -0.393   8.601  0.3612  0.3084  0.4395
  160SAPE  H18R17911   4.841  -0.362   8.683  0.8077  1.8447 -0.5015
  160SAPE  H18S17912   4.767  -0.504   8.605  1.4847  0.2075 -0.6187
  160SAPE  C21917913   4.640  -0.321   8.634  0.2247 -0.3274 -0.5517
  160SAPE  H19R17914   4.574  -0.337   8.546 -1.5670  1.2335  0.4659
  160SAPE  H19S17915   4.655  -0.211   8.626 -0.4478 -0.3168 -2.0306
  160SAPE  C22017916   4.574  -0.369   8.764  0.2438 -1.0409 -0.3734
  160SAPE  H20R17917   4.536  -0.472   8.744  0.7469 -1.7442  2.2165
  160SAPE  H20S17918   4.492  -0.303   8.800  1.9815  1.1128 -0.2593
  160SAPE  H20T17919   4.653  -0.361   8.841 -0.1833  0.1548 -0.0534
  160SAPE   C3317920   4.615  -0.434   7.202  0.6709 -0.3756 -0.0820
  160SAPE   H3X17921   4.548  -0.515   7.167 -0.6133  1.6823 -2.6278
  160SAPE   H3Y17922   4.563  -0.336   7.197  2.3818  0.4674 -1.9583
  160SAPE   C3417923   4.665  -0.453   7.345 -0.8543  0.3924 -0.5435
  160SAPE   H4X17924   4.728  -0.368   7.381  0.6169 -0.5776 -0.7828
  160SAPE   H4Y17925   4.726  -0.546   7.339  0.3828  1.0101  2.0209
  160SAPE   C3517926   4.549  -0.486   7.438 -0.1360  0.5487 -1.1407
  160SAPE   H5X17927   4.492  -0.572   7.397 -0.9796  1.6566 -2.2995
  160SAPE   H5Y17928   4.488  -0.395   7.452  3.5033  2.9569 -0.1049
  160SAPE   C3617929   4.604  -0.507   7.580 -0.6466 -0.7287  0.4516
  160SAPE   H6X17930   4.651  -0.417   7.624  1.9176 -1.9311  0.2808
  160SAPE   H6Y17931   4.695  -0.571   7.579  0.9736  1.5091 -1.7202
  160SAPE   C3717932   4.501  -0.546   7.687  0.4345 -0.2149 -0.7131
  160SAPE   H7X17933   4.441  -0.629   7.644  1.6545 -1.8249  0.6435
  160SAPE   H7Y17934   4.432  -0.459   7.692 -1.1405 -1.3560 -1.8375
  160SAPE   C3817935   4.577  -0.600   7.810  0.0481  0.0888 -0.0246
  160SAPE   H8X17936   4.655  -0.523   7.826  0.4988 -0.3944  0.1104
  160SAPE   H8Y17937   4.622  -0.696   7.776 -1.4387  0.2648 -2.6376
  160SAPE   C3917938   4.487  -0.621   7.931  0.3551  0.7075  0.9401
  160SAPE   H9X17939   4.400  -0.687   7.910  2.3619 -1.1206 -1.9451
  160SAPE   H9Y17940   4.461  -0.517   7.959  0.4713  1.4885 -1.7773
  160SAPE  C31017941   4.563  -0.696   8.044 -0.6095 -0.0598 -0.0580
  160SAPE  H10X17942   4.640  -0.634   8.095 -1.6351  1.9776 -0.8917
  160SAPE  H10Y17943   4.605  -0.781   7.986 -0.2590 -0.6068  0.9801
  160SAPE  C31117944   4.476  -0.750   8.156  0.1132 -1.0757 -0.9569
  160SAPE  H11X17945   4.373  -0.773   8.123 -0.2250 -1.8004  0.5623
  160SAPE  H11Y17946   4.478  -0.664   8.225 -0.7187 -1.7721 -0.0657
  160SAPE  C31217947   4.515  -0.874   8.239 -0.0600 -0.6290  0.5488
  160SAPE  H12X17948   4.614  -0.864   8.288  0.2077 -0.3411 -0.0369
  160SAPE  H12Y17949   4.525  -0.964   8.174  1.0022  0.6257 -1.0959
  160SAPE  C31317950   4.407  -0.916   8.337  0.0075 -0.0195 -0.5581
  160SAPE  H13X17951   4.413  -1.017   8.382  1.8146 -0.8101 -2.5086
  160SAPE  H13Y17952   4.316  -0.930   8.274  0.3658  0.3125 -1.1568
  160SAPE  C31417953   4.383  -0.825   8.463  0.1802  0.5535 -0.4061
  160SAPE  H14X17954   4.294  -0.859   8.521  0.1468  0.2640 -0.6271
  160SAPE  H14Y17955   4.348  -0.729   8.418  1.4569  0.5752 -1.3834
  160SAPE  C31517956   4.507  -0.811   8.545 -0.6983 -0.9770 -0.2184
  160SAPE  H15X17957   4.580  -0.753   8.486 -2.1070  1.6212  0.4616
  160SAPE  H15Y17958   4.542  -0.915   8.558 -0.7466 -1.0153 -0.4054
  160SAPE  C31617959   4.482  -0.751   8.678 -0.4712 -0.0133 -0.2184
  160SAPE  H16X17960   4.395  -0.803   8.723 -1.9214 -0.6524 -3.6233
  160SAPE  H16Y17961   4.453  -0.643   8.671 -2.0972 -0.3312  1.1512
  160SAPE  C31717962   4.596  -0.768   8.775 -0.0569  0.0663 -0.3232
  160SAPE  H17X17963   4.670  -0.693   8.740 -0.6396 -0.5383 -2.9057
  160SAPE  H17Y17964   4.631  -0.872   8.764  1.1729  0.8255 -4.2228
  160SAPE  C31817965   4.561  -0.757   8.924 -0.2182  0.9472  0.7726
  160SAPE  H18X17966   4.486  -0.838   8.937 -2.0909  2.0630 -2.3715
  160SAPE  H18Y17967   4.515  -0.659   8.947  0.9234  1.4848  0.7487
  160SAPE  H18Z17968   4.648  -0.777   8.989 -0.5943  0.2834  1.0795
  161SOPE     N17969   3.112   0.706  10.771  0.5864 -0.2752  0.1969
  161SOPE   HN117970   3.163   0.793  10.748 -0.0607  0.1993  0.5548
  161SOPE   HN217971   3.171   0.620  10.759 -0.9487 -1.2222 -0.7260
  161SOPE   HN317972   3.048   0.694  10.690  1.9279  0.7615 -1.0469
  161SOPE   C1217973   3.050   0.718  10.908 -0.7350  0.2187  0.0434
  161SOPE  H12A17974   3.130   0.740  10.982  2.1713 -0.1364 -2.8764
  161SOPE  H12B17975   2.994   0.628  10.941 -0.9851  1.4827  3.1556
  161SOPE   C1117976   2.951   0.834  10.897 -0.3971  0.0366  0.3447
  161SOPE  H11A17977   3.010   0.922  10.862  0.0715 -0.4035  0.0253
  161SOPE  H11B17978   2.895   0.861  10.989 -1.4746 -0.4127 -0.1709
  161SOPE     P17979   2.749   0.712  10.780  0.4879 -0.2454 -0.1241
  161SOPE   O1317980   2.677   0.687  10.908 -0.0856 -0.1983 -1.2041
  161SOPE   O1417981   2.822   0.593  10.730 -0.4704  0.4697  0.2425
  161SOPE   O1217982   2.852   0.822  10.797 -0.0343  0.0048  1.0412
  161SOPE   O1117983   2.647   0.770  10.673  0.2914  0.1998  0.5445
  161SOPE    C117984   2.559   0.875  10.708 -0.5857  0.6591  0.2741
  161SOPE    HA17985   2.611   0.973  10.692 -0.1983  0.3834 -0.1816
  161SOPE    HB17986   2.537   0.866  10.816 -0.0669  1.4343  0.4531
  161SOPE    C217987   2.424   0.874  10.641 -0.9992  0.1259 -0.3343
  161SOPE    HS17988   2.381   0.774  10.664 -0.7689  0.6262  2.4575
  161SOPE   O2117989   2.452   0.891  10.501 -0.5889 -0.5501 -0.1497
  161SOPE   C2117990   2.369   0.829  10.417 -0.7573  0.1898  0.4888
  161SOPE   O2217991   2.274   0.765  10.456 -0.5597  0.5003  0.6513
  161SOPE   C2217992   2.403   0.843  10.272 -0.4383 -0.2897  0.2115
  161SOPE   H2R17993   2.420   0.739  10.237  2.1266  0.1105  0.1455
  161SOPE   H2S17994   2.498   0.901  10.269 -1.0628  0.7281 -0.1516
  161SOPE    C317995   2.333   0.983  10.707 -0.2597  0.1388  0.2475
  161SOPE    HX17996   2.313   0.972  10.815 -0.0107 -1.2254  0.1723
  161SOPE    HY17997   2.236   0.976  10.653 -0.0695  0.4035 -0.1315
  161SOPE   O3117998   2.406   1.104  10.696  0.4013  0.5550 -0.3595
  161SOPE   C3117999   2.359   1.195  10.611  0.3879  0.6737 -0.5306
  161SOPE   O3218000   2.263   1.194  10.537 -0.4085 -0.0695  0.3658
  161SOPE   C3218001   2.446   1.322  10.606 -0.6503 -0.2298 -0.1408
  161SOPE   H2X18002   2.546   1.291  10.642 -1.5222 -0.7542  1.8960
  161SOPE   H2Y18003   2.406   1.398  10.676 -1.1827  0.4330 -1.1539
  161SOPE   C2318004   2.294   0.915  10.197 -0.0295 -0.3942  0.0401
  161SOPE   H3R18005   2.261   1.012  10.238  2.1677  0.7545 -0.8599
  161SOPE   H3S18006   2.199   0.857  10.200  0.4860 -1.2454  0.2734
  161SOPE   C2418007   2.336   0.956  10.056 -0.1967 -0.2178  0.3328
  161SOPE   H4R18008   2.259   1.027  10.020 -3.8859 -2.4478  3.4066
  161SOPE   H4S18009   2.436   1.002  10.044  1.2012 -3.1789  0.1317
  161SOPE   C2518010   2.335   0.838   9.963 -0.8719 -0.3504 -0.1760
  161SOPE   H5R18011   2.436   0.795   9.978 -0.4644  1.0683  1.2271
  161SOPE   H5S18012   2.259   0.766   9.999 -0.0851 -0.2950  1.6416
  161SOPE   C2618013   2.327   0.874   9.807 -0.8633 -0.1480 -0.3984
  161SOPE   H6R18014   2.317   0.777   9.754  0.3411 -0.3764 -0.2352
  161SOPE   H6S18015   2.231   0.926   9.790  0.4509  1.9340 -1.6914
  161SOPE   C2718016   2.454   0.945   9.756  0.3928 -0.2815  0.6629
  161SOPE   H7R18017   2.458   1.049   9.794  0.0121 -0.5598  1.4602
  161SOPE   H7S18018   2.537   0.887   9.803  1.8386  1.3688  0.1924
  161SOPE   C2818019   2.458   0.936   9.600 -0.1383  0.3828 -0.2110
  161SOPE   H8R18020   2.566   0.935   9.573  0.3780 -0.4724  1.8553
  161SOPE   H8S18021   2.416   0.839   9.567 -1.2406  1.1723 -1.1545
  161SOPE   C2918022   2.378   1.039   9.539  0.0381 -0.2144 -0.1357
  161SOPE   H9118023   2.425   1.137   9.554  0.9161 -1.0501  2.8853
  161SOPE  C21018024   2.264   1.028   9.470  0.9207 -0.5750 -0.5008
  161SOPE  H10118025   2.210   1.121   9.448  1.3619 -0.1142  0.3290
  161SOPE  C21118026   2.198   0.894   9.431 -0.2590  0.5785  0.3055
  161SOPE  H11R18027   2.164   0.850   9.527  2.3941 -1.2324  0.4540
  161SOPE  H11S18028   2.267   0.820   9.385 -0.8356 -0.2509  0.7580
  161SOPE  C21218029   2.076   0.908   9.334  0.2099 -0.2728 -0.5437
  161SOPE  H12R18030   2.052   0.809   9.289 -1.0437 -1.0822  1.8597
  161SOPE  H12S18031   2.109   0.967   9.246  1.0786 -0.2266 -0.1892
  161SOPE  C21318032   1.956   0.988   9.388 -0.3635  0.4810  0.5341
  161SOPE  H13R18033   1.981   1.087   9.431 -0.4795  1.4006 -1.4433
  161SOPE  H13S18034   1.920   0.923   9.470 -0.4584  0.2101  0.2801
  161SOPE  C21418035   1.844   1.008   9.288  0.2137  0.2279  1.0731
  161SOPE  H14R18036   1.762   1.055   9.346  0.0407  1.8143 -0.4064
  161SOPE  H14S18037   1.814   0.910   9.245 -1.4397  0.0971  2.4783
  161SOPE  C21518038   1.879   1.106   9.172 -0.2534 -0.0541  0.4513
  161SOPE  H15R18039   1.972   1.084   9.116 -0.4743 -1.0196  0.4699
  161SOPE  H15S18040   1.897   1.206   9.219  1.6057  0.2018 -0.7471
  161SOPE  C21618041   1.775   1.099   9.064  0.8219 -0.1762 -0.0333
  161SOPE  H16R18042   1.674   1.125   9.104  0.0648  0.9270 -2.5833
  161SOPE  H16S18043   1.772   0.996   9.023  0.9973  0.4170 -1.5557
  161SOPE  C21718044   1.817   1.200   8.952  0.4423 -0.1289  0.3227
  161SOPE  H17R18045   1.920   1.165   8.931  0.2308 -1.5266  1.5334
  161SOPE  H17S18046   1.828   1.295   9.007  0.3466 -0.0709  0.2425
  161SOPE  C21818047   1.737   1.190   8.819 -0.2472 -0.5517  0.6780
  161SOPE  H18R18048   1.767   1.092   8.776 -2.2240 -1.1027  0.5077
  161SOPE  H18S18049   1.755   1.276   8.752  0.9889 -0.6436  0.8653
  161SOPE  H18T18050   1.629   1.187   8.843 -0.2134  2.0262  1.3147
  161SOPE   C3318051   2.459   1.398  10.466 -0.4610  0.4378 -0.0535
  161SOPE   H3X18052   2.504   1.497  10.484  1.5497 -0.4715  0.0606
  161SOPE   H3Y18053   2.356   1.408  10.425  0.4765  1.4145 -2.2489
  161SOPE   C3418054   2.536   1.319  10.357  0.9928  0.2125  0.0303
  161SOPE   H4X18055   2.507   1.212  10.364 -1.4859  0.8653  0.3292
  161SOPE   H4Y18056   2.646   1.330  10.369  0.7956  1.1504  1.0233
  161SOPE   C3518057   2.507   1.364  10.212  0.2353  1.2496 -0.1405
  161SOPE   H5X18058   2.539   1.470  10.198  0.8851  1.3784  2.0596
  161SOPE   H5Y18059   2.399   1.367  10.185  0.5072 -1.0303 -1.5437
  161SOPE   C3618060   2.576   1.276  10.111 -0.5140 -0.2810  0.0009
  161SOPE   H6X18061   2.541   1.171  10.121 -1.4586  0.0771  0.5149
  161SOPE   H6Y18062   2.686   1.277  10.124 -0.6999 -0.0261  1.7411
  161SOPE   C3718063   2.561   1.326   9.970 -0.5920 -0.2033  0.6653
  161SOPE   H7X18064   2.601   1.430   9.970 -4.6420  1.4735  2.4955
  161SOPE   H7Y18065   2.461   1.312   9.924 -0.5219 -3.3265  1.3508
  161SOPE   C3818066   2.652   1.245   9.877  0.3435  0.2150 -0.1583
  161SOPE   H8X18067   2.606   1.144   9.882 -0.8254  0.8033  1.2984
  161SOPE   H8Y18068   2.752   1.221   9.919  0.1670 -0.5047 -0.1381
  161SOPE   C3918069   2.657   1.309   9.732  0.3365  0.4805  0.3878
  161SOPE   H9X18070   2.700   1.411   9.749 -0.3650  0.5432  1.8843
  161SOPE   H9Y18071   2.559   1.316   9.681  0.8692  1.5829 -0.5325
  161SOPE  C31018072   2.749   1.228   9.639 -0.4043 -0.4054 -0.5018
  161SOPE  H10X18073   2.705   1.128   9.620  0.5988 -1.2170  1.2578
  161SOPE  H10Y18074   2.849   1.209   9.684 -1.1992 -0.2355  1.4123
  161SOPE  C31118075   2.777   1.298   9.508  0.1364 -0.3470 -0.7186
  161SOPE  H11X18076   2.851   1.379   9.526 -0.9544 -0.0692  3.0154
  161SOPE  H11Y18077   2.687   1.350   9.469 -0.1688 -2.5809 -3.0550
  161SOPE  C31218078   2.836   1.203   9.399 -0.1502  0.8158 -1.2736
  161SOPE  H12X18079   2.756   1.145   9.348  0.9855 -0.9149 -1.1235
  161SOPE  H12Y18080   2.903   1.133   9.452 -1.3952 -0.3491 -1.1996
  161SOPE  C31318081   2.917   1.279   9.295 -0.0478 -0.0413 -0.5439
  161SOPE  H13X18082   2.988   1.347   9.347 -1.1797  3.2091 -3.0378
  161SOPE  H13Y18083   2.845   1.350   9.248 -0.2758  0.6965  0.9000
  161SOPE  C31418084   2.996   1.197   9.196  0.0044 -0.3350  0.4933
  161SOPE  H14X18085   2.926   1.133   9.138 -0.5824  0.2090  0.5991
  161SOPE  H14Y18086   3.049   1.107   9.234  2.0884 -0.4812 -2.6161
  161SOPE  C31518087   3.078   1.284   9.100  0.3595 -0.5873  0.5574
  161SOPE  H15X18088   3.147   1.339   9.167 -1.5946  0.7861  1.4712
  161SOPE  H15Y18089   3.016   1.365   9.057  2.1653 -0.1204 -1.2188
  161SOPE  C31618090   3.146   1.203   8.992 -0.3022  0.3196 -1.0829
  161SOPE  H16X18091   3.067   1.148   8.937  1.0728 -2.0814 -0.7579
  161SOPE  H16Y18092   3.198   1.126   9.055 -0.1508  2.8883  2.0580
  161SOPE  C31718093   3.254   1.263   8.901  0.3697 -0.7373 -0.5843
  161SOPE  H17X18094   3.340   1.308   8.955 -0.6567  0.3011  0.2275
  161SOPE  H17Y18095   3.199   1.345   8.850  1.9267  1.8746  1.8326
  161SOPE  C31818096   3.305   1.148   8.812  0.2653  0.2765 -0.0744
  161SOPE  H18X18097   3.336   1.192   8.715  1.9483 -1.1842 -0.2127
  161SOPE  H18Y18098   3.228   1.068   8.805  0.2920  0.1283  1.2300
  161SOPE  H18Z18099   3.395   1.102   8.857  0.4642 -0.4847 -1.2252
  162SOPE     N18100   1.187   1.314  11.032 -0.1984 -0.0748  0.4965
  162SOPE   HN118101   1.134   1.241  11.085 -2.1256  0.5890 -0.4753
  162SOPE   HN218102   1.149   1.409  11.052 -1.0789 -0.0507 -1.1710
  162SOPE   HN318103   1.169   1.300  10.931  1.9524 -0.1695  0.1114
  162SOPE   C1218104   1.336   1.298  11.052 -0.0454 -0.4750  0.0915
  162SOPE  H12A18105   1.355   1.273  11.159  0.2776  1.8773  0.6107
  162SOPE  H12B18106   1.381   1.396  11.026 -1.5950  0.7692  1.9788
  162SOPE   C1118107   1.397   1.178  10.965  0.4509  0.2073  0.0548
  162SOPE  H11A18108   1.497   1.165  11.012  0.1924 -3.3190 -0.2114
  162SOPE  H11B18109   1.399   1.222  10.863  0.6990  1.9038  0.7876
  162SOPE     P18110   1.361   0.922  10.949  0.3346  0.2693  0.0623
  162SOPE   O1318111   1.297   0.846  11.058  0.8343  0.5510  0.4492
  162SOPE   O1418112   1.506   0.904  10.950  0.6066 -0.3786 -0.5230
  162SOPE   O1218113   1.307   1.067  10.974 -0.0293 -0.6685  0.1266
  162SOPE   O1118114   1.308   0.872  10.814 -0.0850  0.0515  0.0500
  162SOPE    C118115   1.195   0.914  10.736 -1.6289 -0.1368  0.5597
  162SOPE    HA18116   1.195   1.024  10.718 -2.3651 -0.0973  0.7604
  162SOPE    HB18117   1.103   0.882  10.789 -1.2204 -2.3573 -0.0370
  162SOPE    C218118   1.177   0.852  10.593  0.3285 -0.1975 -0.0968
  162SOPE    HS18119   1.173   0.743  10.613 -1.5634 -0.1092  0.0815
  162SOPE   O2118120   1.295   0.892  10.516 -0.3034 -0.0316 -0.0430
  162SOPE   C2118121   1.374   0.797  10.469  0.6618  0.4624  0.1034
  162SOPE   O2218122   1.342   0.683  10.456  0.5758 -0.0311  0.4083
  162SOPE   C2218123   1.507   0.867  10.430 -0.0976 -0.3681  0.4130
  162SOPE   H2R18124   1.592   0.797  10.414 -0.0260 -0.5011  1.3459
  162SOPE   H2S18125   1.541   0.914  10.525  2.2499 -0.8854 -0.1247
  162SOPE    C318126   1.056   0.888  10.509 -0.1906  0.0753 -0.0066
  162SOPE    HX18127   1.055   0.999  10.504 -3.8663  0.1837  1.4440
  162SOPE    HY18128   0.955   0.862  10.545 -0.6587  1.7471 -0.0566
  162SOPE   O3118129   1.071   0.857  10.371  0.2266 -0.2389 -0.3863
  162SOPE   C3118130   1.036   0.736  10.330 -0.2189  0.0602  0.1873
  162SOPE   O3218131   0.977   0.657  10.397 -0.0575  0.1872  0.0122
  162SOPE   C3218132   1.074   0.713  10.176  0.2310 -0.2971 -0.2605
  162SOPE   H2X18133   1.184   0.725  10.171 -0.0405  2.9525  0.1947
  162SOPE   H2Y18134   1.026   0.788  10.109  0.2869  0.2010  0.2517
  162SOPE   C2318135   1.486   0.964  10.318 -0.3499  0.1085 -0.0927
  162SOPE   H3R18136   1.576   1.026  10.299 -1.8708  1.7149 -2.3482
  162SOPE   H3S18137   1.401   1.034  10.335  1.4957  2.3404  0.1977
  162SOPE   C2418138   1.434   0.904  10.184  0.0183 -0.6088  1.1407
  162SOPE   H4R18139   1.483   0.804  10.178 -1.2703 -1.1981  0.1141
  162SOPE   H4S18140   1.329   0.869  10.198 -0.2052 -0.7660 -0.8292
  162SOPE   C2518141   1.458   0.987  10.065  0.0629  0.7522 -0.3800
  162SOPE   H5R18142   1.422   1.090  10.085 -2.8943 -0.4785  0.8571
  162SOPE   H5S18143   1.569   0.986  10.053  0.4243 -4.0632  2.1334
  162SOPE   C2618144   1.385   0.937   9.945 -0.1510 -0.8912  0.4522
  162SOPE   H6R18145   1.279   0.915   9.969 -0.0774 -2.8694 -0.9436
  162SOPE   H6S18146   1.379   1.011   9.862 -2.2206  0.3437  1.6390
  162SOPE   C2718147   1.438   0.805   9.892  0.0269 -0.2350  0.2875
  162SOPE   H7R18148   1.501   0.753   9.967 -0.9791 -2.9189 -0.6633
  162SOPE   H7S18149   1.346   0.744   9.875 -1.1437  1.2762  1.0812
  162SOPE   C2818150   1.517   0.813   9.752  0.0829  0.5806  0.7470
  162SOPE   H8R18151   1.600   0.886   9.752 -0.6537  1.4629  2.7677
  162SOPE   H8S18152   1.560   0.717   9.716 -4.2060 -0.5735 -1.6409
  162SOPE   C2918153   1.413   0.863   9.650 -0.3189 -0.6390 -0.5940
  162SOPE   H9118154   1.354   0.948   9.689  0.2714  0.2643 -1.6424
  162SOPE  C21018155   1.407   0.814   9.527  0.1920 -0.2346  0.1822
  162SOPE  H10118156   1.342   0.863   9.453  0.5590 -0.7838 -0.5083
  162SOPE  C21118157   1.477   0.700   9.460 -0.2494 -0.5440 -0.1644
  162SOPE  H11R18158   1.481   0.611   9.528  2.4460  1.0082  1.8300
  162SOPE  H11S18159   1.585   0.726   9.463  0.0945 -1.9964  1.6625
  162SOPE  C21218160   1.427   0.663   9.320  0.5184 -0.0498  0.3155
  162SOPE  H12R18161   1.325   0.624   9.339 -0.7217  1.6701 -2.4038
  162SOPE  H12S18162   1.491   0.576   9.295  0.1889 -0.7866  1.9774
  162SOPE  C21318163   1.425   0.765   9.205 -0.1717 -0.2055  0.8008
  162SOPE  H13R18164   1.519   0.823   9.195 -1.6038  1.8062 -1.5851
  162SOPE  H13S18165   1.339   0.832   9.228 -0.4774 -0.6221  0.8725
  162SOPE  C21418166   1.396   0.701   9.066 -0.0347  0.4534  0.4811
  162SOPE  H14R18167   1.292   0.662   9.076 -1.0330  2.8206 -0.2691
  162SOPE  H14S18168   1.462   0.613   9.051 -2.3177 -1.7402  2.7531
  162SOPE  C21518169   1.430   0.792   8.944 -0.2763  1.2704  0.7789
  162SOPE  H15R18170   1.541   0.793   8.932 -0.3825  0.5732 -0.4466
  162SOPE  H15S18171   1.398   0.897   8.958  0.1475  1.5271 -0.1384
  162SOPE  C21618172   1.376   0.730   8.812  1.0348 -0.2359  0.1957
  162SOPE  H16R18173   1.275   0.684   8.819  1.8003 -1.6129  2.7099
  162SOPE  H16S18174   1.446   0.650   8.780 -0.6899 -1.5606 -0.3232
  162SOPE  C21718175   1.370   0.837   8.701  0.0442  0.7310  0.3614
  162SOPE  H17R18176   1.292   0.912   8.724 -0.0653  1.1629 -1.3661
  162SOPE  H17S18177   1.334   0.799   8.602 -0.4620  0.3682  0.6841
  162SOPE  C21818178   1.504   0.886   8.667 -0.3435 -0.0265 -0.5939
  162SOPE  H18R18179   1.540   0.954   8.747  0.8669 -0.2226 -0.9558
  162SOPE  H18S18180   1.504   0.936   8.568  0.0312  1.2005  0.0117
  162SOPE  H18T18181   1.582   0.806   8.671  0.3452  0.6606 -0.1493
  162SOPE   C3318182   1.025   0.579  10.113 -0.1675  0.6648  0.3405
  162SOPE   H3X18183   0.918   0.568  10.087  0.4564 -0.2261 -2.0514
  162SOPE   H3Y18184   1.038   0.502  10.191 -0.2289 -1.0366 -1.2916
  162SOPE   C3418185   1.099   0.533   9.986 -0.1347 -0.2235 -0.6438
  162SOPE   H4X18186   1.098   0.423   9.974 -1.7716 -0.2861 -0.1192
  162SOPE   H4Y18187   1.205   0.566   9.981 -0.4812  1.0980  0.5416
  162SOPE   C3518188   1.039   0.594   9.863  0.6717 -0.4407 -0.2298
  162SOPE   H5X18189   1.062   0.703   9.866  0.0919 -0.3345  0.7278
  162SOPE   H5Y18190   0.929   0.582   9.849  0.7135 -2.9382  1.2266
  162SOPE   C3618191   1.089   0.526   9.736  0.4326 -0.3850  0.3239
  162SOPE   H6X18192   1.059   0.419   9.734 -0.4449 -0.1610  1.1547
  162SOPE   H6Y18193   1.200   0.533   9.728  0.2933  1.1409 -0.4077
  162SOPE   C3718194   1.031   0.586   9.610  0.8092 -0.0778  0.0089
  162SOPE   H7X18195   1.056   0.690   9.581 -0.9073  0.6639  1.0983
  162SOPE   H7Y18196   0.921   0.591   9.625  0.6006  0.3053 -1.5691
  162SOPE   C3818197   1.072   0.506   9.482  0.2722 -0.9786  0.5078
  162SOPE   H8X18198   1.025   0.406   9.496  0.9046 -1.1734  1.2580
  162SOPE   H8Y18199   1.182   0.494   9.473  0.5736  1.7383  0.2691
  162SOPE   C3918200   1.007   0.564   9.358  0.0773 -0.0551  0.2475
  162SOPE   H9X18201   1.024   0.673   9.369  2.7006 -0.4177  0.1316
  162SOPE   H9Y18202   0.898   0.551   9.375 -0.0447 -0.9578 -1.1440
  162SOPE  C31018203   1.062   0.511   9.228  0.5373  0.7219  0.0538
  162SOPE  H10X18204   1.050   0.401   9.223 -0.7871  0.9317 -1.4039
  162SOPE  H10Y18205   1.172   0.529   9.221  1.1506 -2.6093  0.3724
  162SOPE  C31118206   1.001   0.561   9.096 -0.7386 -0.1449 -0.6176
  162SOPE  H11X18207   1.067   0.516   9.019 -2.6653 -0.1089 -2.3397
  162SOPE  H11Y18208   0.997   0.672   9.103  1.1381 -0.1514  1.0447
  162SOPE  C31218209   0.869   0.497   9.063  0.4552 -0.0950 -0.3321
  162SOPE  H12X18210   0.799   0.505   9.148  1.5251 -1.0496  0.6526
  162SOPE  H12Y18211   0.872   0.388   9.040  0.1817 -0.4828  1.4110
  162SOPE  C31318212   0.802   0.561   8.946 -0.1455  0.0513  0.9661
  162SOPE  H13X18213   0.875   0.549   8.863 -0.0155 -1.3666  1.2774
  162SOPE  H13Y18214   0.800   0.670   8.970 -1.2659  0.9242 -2.7404
  162SOPE  C31418215   0.665   0.503   8.909 -0.0199 -0.4137  0.4983
  162SOPE  H14X18216   0.609   0.468   8.999 -0.6417  1.3470  0.8200
  162SOPE  H14Y18217   0.690   0.407   8.858  1.0621  0.6218 -0.9305
  162SOPE  C31518218   0.589   0.595   8.810  0.1821 -0.3342 -0.1734
  162SOPE  H15X18219   0.646   0.616   8.717  1.6573  0.5825  0.9215
  162SOPE  H15Y18220   0.564   0.691   8.860 -0.0948  0.3256 -1.5606
  162SOPE  C31618221   0.448   0.539   8.764 -0.1305  0.0278 -0.5284
  162SOPE  H16X18222   0.399   0.626   8.714 -0.4554 -0.3280 -0.8289
  162SOPE  H16Y18223   0.385   0.503   8.848 -1.0589 -1.5452 -1.8708
  162SOPE  C31718224   0.442   0.426   8.659  0.2839  0.0782 -1.1001
  162SOPE  H17X18225   0.524   0.439   8.585  1.4818 -3.0712 -0.3770
  162SOPE  H17Y18226   0.339   0.432   8.618 -0.6133  0.7560  1.1924
  162SOPE  C31818227   0.454   0.292   8.733 -0.4023 -0.1259  0.0661
  162SOPE  H18X18228   0.445   0.214   8.654 -0.4422 -0.5596  0.4961
  162SOPE  H18Y18229   0.372   0.280   8.807 -0.5611  0.7927  0.0451
  162SOPE  H18Z18230   0.554   0.281   8.779 -0.7074 -1.3267  0.4668
  163SOPE     N18231   1.861   4.557  10.685  0.6908  0.2631 -0.0525
  163SOPE   HN118232   1.787   4.626  10.663 -0.2480  0.3152  3.0100
  163SOPE   HN218233   1.928   4.548  10.605  0.4782  0.0335 -0.2048
  163SOPE   HN318234   1.822   4.462  10.702 -0.4244  0.7707  0.2560
  163SOPE   C1218235   1.949   4.598  10.804  0.2717 -0.1582 -0.0251
  163SOPE  H12A18236   2.025   4.518  10.815  1.0763  0.2702 -2.2040
  163SOPE  H12B18237   1.885   4.612  10.893  1.0296 -2.6780  0.9745
  163SOPE   C1118238   2.030   4.731  10.774  0.1336 -0.2429  0.7764
  163SOPE  H11A18239   2.071   4.736  10.670  2.0591  2.3732  1.5949
  163SOPE  H11B18240   2.119   4.725  10.840  0.8271 -0.8472 -0.1948
  163SOPE     P18241   1.979   4.985  10.744  0.1037  0.2213 -0.2461
  163SOPE   O1318242   2.118   5.013  10.781  0.4413 -0.8872  0.2545
  163SOPE   O1418243   1.884   5.088  10.787 -0.7210  0.2476  0.3615
  163SOPE   O1218244   1.941   4.843  10.804 -0.0367 -1.3758 -0.4510
  163SOPE   O1118245   1.963   4.961  10.592  0.1271 -0.2965  0.0584
  163SOPE    C118246   1.857   5.008  10.501 -0.4418  0.1779  0.0161
  163SOPE    HA18247   1.755   4.997  10.542 -0.0529  0.5594  1.1160
  163SOPE    HB18248   1.853   4.942  10.413 -0.9167 -0.0817  0.2296
  163SOPE    C218249   1.873   5.158  10.470 -0.2691 -0.6836  0.2054
  163SOPE    HS18250   1.842   5.210  10.564 -4.3085  1.7522 -2.3227
  163SOPE   O2118251   1.763   5.188  10.379  0.2947  0.2872 -0.2848
  163SOPE   C2118252   1.729   5.316  10.367 -0.3695  0.2475  0.1213
  163SOPE   O2218253   1.782   5.404  10.434  0.4928  0.6613  0.4019
  163SOPE   C2218254   1.627   5.340  10.256 -0.1598 -0.6046  0.4502
  163SOPE   H2R18255   1.544   5.279  10.299 -1.4893 -0.9810 -2.5647
  163SOPE   H2S18256   1.664   5.281  10.169 -0.5533 -1.3199  0.7615
  163SOPE    C318257   2.011   5.201  10.413 -0.2426  0.4830 -0.6454
  163SOPE    HX18258   2.092   5.170  10.483 -0.3658  0.8222 -0.3481
  163SOPE    HY18259   2.014   5.312  10.415  1.0144  0.4498  0.7580
  163SOPE   O3118260   2.031   5.161  10.276 -0.2696 -0.3251  0.2589
  163SOPE   C3118261   2.163   5.183  10.240  0.5634 -0.2586  0.2083
  163SOPE   O3218262   2.241   5.242  10.307 -0.1471  0.3400 -0.2775
  163SOPE   C3218263   2.174   5.148  10.088 -0.3133  0.2896  0.5031
  163SOPE   H2X18264   2.167   5.244  10.033  0.1425 -1.6125 -3.0173
  163SOPE   H2Y18265   2.087   5.086  10.061  1.1362 -1.1175 -1.0453
  163SOPE   C2318266   1.588   5.488  10.228  0.5102  0.3466  0.3122
  163SOPE   H3R18267   1.682   5.547  10.228  0.5540  0.2736  0.7375
  163SOPE   H3S18268   1.510   5.521  10.300  0.2744  0.1586  0.1466
  163SOPE   C2418269   1.534   5.522  10.088 -0.0385 -0.1612  0.2430
  163SOPE   H4R18270   1.440   5.468  10.067 -0.7595  1.0354  0.3679
  163SOPE   H4S18271   1.503   5.628  10.091 -0.1492 -0.1520 -1.0442
  163SOPE   C2518272   1.628   5.490   9.972 -0.4783  0.1563  0.2780
  163SOPE   H5R18273   1.684   5.583   9.948 -1.7490  0.1696 -2.8801
  163SOPE   H5S18274   1.687   5.401  10.003  0.4681  1.2450  1.6360
  163SOPE   C2618275   1.548   5.437   9.848 -0.3222 -0.0786  0.4618
  163SOPE   H6R18276   1.502   5.339   9.872  1.4049 -2.1029 -3.7718
  163SOPE   H6S18277   1.470   5.510   9.818 -0.6702 -0.6445 -0.0233
  163SOPE   C2718278   1.647   5.425   9.728  0.1753 -0.4776 -0.0283
  163SOPE   H7R18279   1.703   5.521   9.731 -0.8096  0.0669  3.6497
  163SOPE   H7S18280   1.725   5.350   9.750  0.6348  0.3807  1.3586
  163SOPE   C2818281   1.576   5.418   9.598 -0.3553  0.1164  0.6984
  163SOPE   H8R18282   1.536   5.314   9.599 -0.2348  0.0808  2.2418
  163SOPE   H8S18283   1.496   5.496   9.594 -0.3671  0.1658  1.8129
  163SOPE   C2918284   1.657   5.433   9.471  0.6589  0.3166 -0.7057
  163SOPE   H9118285   1.746   5.368   9.465  1.0950  0.8611 -0.2307
  163SOPE  C21018286   1.628   5.507   9.365  0.4497  0.4598 -0.3021
  163SOPE  H10118287   1.693   5.487   9.279  0.3375 -0.1594 -0.2421
  163SOPE  C21118288   1.506   5.598   9.335  0.2414  0.2032  0.0889
  163SOPE  H11R18289   1.523   5.706   9.353 -0.7759  0.4116 -0.1777
  163SOPE  H11S18290   1.419   5.577   9.401  1.5479 -0.4532  1.6127
  163SOPE  C21218291   1.448   5.610   9.191  0.7302  0.0754  0.5702
  163SOPE  H12R18292   1.532   5.627   9.120  1.4387 -2.0202  0.8599
  163SOPE  H12S18293   1.369   5.688   9.187  3.1783  2.5829 -1.0064
  163SOPE  C21318294   1.378   5.474   9.128  0.4573  0.0164 -0.5352
  163SOPE  H13R18295   1.284   5.458   9.185  1.1177  0.8467  0.8179
  163SOPE  H13S18296   1.438   5.385   9.156  1.5326  1.3137  1.3742
  163SOPE  C21418297   1.355   5.481   8.976  0.1684  0.4487 -0.2200
  163SOPE  H14R18298   1.262   5.422   8.963  0.6002 -1.0430  3.0657
  163SOPE  H14S18299   1.432   5.428   8.917  0.5011  1.5411 -0.7811
  163SOPE  C21518300   1.335   5.619   8.919 -0.1650 -0.6412  0.1247
  163SOPE  H15R18301   1.429   5.676   8.937 -1.5386  0.9490  2.4985
  163SOPE  H15S18302   1.260   5.667   8.986 -1.5452 -1.7212 -0.6282
  163SOPE  C21618303   1.289   5.633   8.773 -0.0497  0.0835  0.2029
  163SOPE  H16R18304   1.312   5.737   8.743 -0.8749 -0.0481 -0.8919
  163SOPE  H16S18305   1.180   5.624   8.754 -0.2006  1.2256  0.5138
  163SOPE  C21718306   1.367   5.547   8.676 -0.0138  0.2968 -0.2686
  163SOPE  H17R18307   1.361   5.441   8.709 -4.6491 -0.4758 -3.1040
  163SOPE  H17S18308   1.474   5.575   8.677  0.1635 -0.3748  0.1514
  163SOPE  C21818309   1.305   5.546   8.541  0.1699  0.2851  0.5229
  163SOPE  H18R18310   1.355   5.471   8.477 -1.0020  0.1479 -0.2496
  163SOPE  H18S18311   1.327   5.646   8.497 -0.5426 -0.9240 -2.7219
  163SOPE  H18T18312   1.194   5.540   8.542  0.2165 -0.8639 -0.4032
  163SOPE   C3318313   2.300   5.062  10.054  0.0247  0.4609 -0.1018
  163SOPE   H3X18314   2.288   4.953  10.070  1.6047  0.1441 -1.0206
  163SOPE   H3Y18315   2.395   5.096  10.100  0.7218 -2.4443  0.6652
  163SOPE   C3418316   2.321   5.081   9.899  0.1517 -0.2140  0.0691
  163SOPE   H4X18317   2.334   5.185   9.863  1.3562 -1.0841 -2.0731
  163SOPE   H4Y18318   2.221   5.054   9.857  0.0234  0.8962 -0.3598
  163SOPE   C3518319   2.439   5.001   9.845  0.2586 -0.0556 -0.2803
  163SOPE   H5X18320   2.418   4.892   9.844 -0.1314 -0.0173  1.8409
  163SOPE   H5Y18321   2.520   5.030   9.916  0.0107  1.0699 -0.4342
  163SOPE   C3618322   2.506   5.035   9.712  0.2344 -0.3192  0.5091
  163SOPE   H6X18323   2.610   4.997   9.721  0.0924 -1.5322 -2.4605
  163SOPE   H6Y18324   2.506   5.143   9.689  1.1948 -0.4587 -0.1367
  163SOPE   C3718325   2.431   4.967   9.599  0.2450 -0.1625 -0.6203
  163SOPE   H7X18326   2.325   4.999   9.588  0.4208  1.2673  1.6363
  163SOPE   H7Y18327   2.430   4.857   9.617  0.7803 -0.1287 -0.3639
  163SOPE   C3818328   2.506   4.988   9.461 -0.9651 -0.1353 -0.5990
  163SOPE   H8X18329   2.595   4.922   9.469 -0.1850  0.9575 -0.1243
  163SOPE   H8Y18330   2.537   5.093   9.438 -0.8522 -0.6122 -2.7252
  163SOPE   C3918331   2.433   4.934   9.344  0.0760  0.2866  0.6649
  163SOPE   H9X18332   2.356   5.008   9.312  0.1758 -0.2539 -0.9004
  163SOPE   H9Y18333   2.376   4.844   9.375 -0.4501  0.6720  0.8182
  163SOPE  C31018334   2.525   4.898   9.225  0.6598 -0.1185  0.1271
  163SOPE  H10X18335   2.625   4.858   9.253  1.9947  1.5075 -2.2114
  163SOPE  H10Y18336   2.543   4.996   9.176 -2.3035 -0.0534 -0.9308
  163SOPE  C31118337   2.445   4.807   9.129  0.4735 -0.2584 -0.3837
  163SOPE  H11X18338   2.339   4.841   9.133  0.8344  1.2612 -2.7081
  163SOPE  H11Y18339   2.460   4.705   9.171 -2.7691 -2.0386 -3.2810
  163SOPE  C31218340   2.508   4.817   8.993  0.1272  1.1220  0.2055
  163SOPE  H12X18341   2.618   4.802   9.004 -0.2479 -2.4822 -0.3511
  163SOPE  H12Y18342   2.494   4.918   8.950 -1.9371  0.7039 -0.1241
  163SOPE  C31318343   2.461   4.708   8.892  0.2850  0.0710 -0.4968
  163SOPE  H13X18344   2.353   4.725   8.873  0.1048 -0.4926 -0.0043
  163SOPE  H13Y18345   2.465   4.608   8.941  2.3987 -0.2786 -1.3328
  163SOPE  C31418346   2.539   4.697   8.757 -0.7977  0.5440 -0.8815
  163SOPE  H14X18347   2.643   4.701   8.794 -0.3078 -0.3555 -2.1306
  163SOPE  H14Y18348   2.534   4.791   8.698 -0.3215  0.9841 -0.2308
  163SOPE  C31518349   2.500   4.574   8.676 -0.0293  0.0561  0.8258
  163SOPE  H15X18350   2.389   4.574   8.664 -0.0092  0.7337  0.5797
  163SOPE  H15Y18351   2.514   4.485   8.740  0.6016 -0.7329 -0.4020
  163SOPE  C31618352   2.558   4.575   8.533 -0.1029  0.5604 -0.8860
  163SOPE  H16X18353   2.655   4.521   8.535 -1.3220 -1.6512 -0.4934
  163SOPE  H16Y18354   2.580   4.680   8.504 -0.5656  1.2576  1.2009
  163SOPE  C31718355   2.467   4.506   8.436  0.3465  0.3194 -0.4682
  163SOPE  H17X18356   2.380   4.575   8.433  0.1436  0.1216  0.6810
  163SOPE  H17Y18357   2.441   4.404   8.470  1.8307 -0.5202 -1.7692
  163SOPE  C31818358   2.537   4.505   8.297 -0.2754  0.6376  0.1415
  163SOPE  H18X18359   2.523   4.607   8.258 -3.1724 -0.3778 -1.6017
  163SOPE  H18Y18360   2.500   4.422   8.232  2.5431 -2.4263  2.2460
  163SOPE  H18Z18361   2.646   4.492   8.317 -0.3939 -0.5129  0.1080
  164SOPE     N18362   4.618   4.038  11.018  0.2885 -0.4851 -0.2275
  164SOPE   HN118363   4.671   3.950  11.033  0.5164 -0.1669  0.8797
  164SOPE   HN218364   4.626   4.108  11.095 -0.4343  0.9406 -1.4372
  164SOPE   HN318365   4.516   4.029  10.998 -0.2053  1.5941  1.1256
  164SOPE   C1218366   4.673   4.088  10.890 -0.0622  0.1415 -0.7476
  164SOPE  H12A18367   4.773   4.126  10.919 -0.6837  0.4058  1.1178
  164SOPE  H12B18368   4.605   4.173  10.869 -1.6090 -0.6955  0.7638
  164SOPE   C1118369   4.664   3.982  10.784 -0.5603  0.7747  0.9798
  164SOPE  H11A18370   4.741   3.904  10.803  0.9726  1.7259 -1.0998
  164SOPE  H11B18371   4.686   4.036  10.690 -0.8059 -0.0779  0.4288
  164SOPE     P18372   4.507   3.804  10.680  0.0177 -0.1141 -0.5254
  164SOPE   O1318373   4.367   3.764  10.713  0.2839  0.6825 -0.1860
  164SOPE   O1418374   4.615   3.704  10.689  0.8980  0.4512  0.2975
  164SOPE   O1218375   4.532   3.917  10.780  0.1594  0.5822 -0.0823
  164SOPE   O1118376   4.506   3.886  10.542  0.3803  0.2665 -0.4641
  164SOPE    C118377   4.426   4.010  10.543 -0.1283 -0.2650 -0.3286
  164SOPE    HA18378   4.485   4.093  10.500 -2.7637  1.4585 -0.7796
  164SOPE    HB18379   4.386   4.034  10.644  0.1713 -1.5327  0.1108
  164SOPE    C218380   4.306   3.993  10.454  0.2929  0.1399  0.3750
  164SOPE    HS18381   4.262   3.894  10.481  2.4970 -0.9057  0.2461
  164SOPE   O2118382   4.353   4.000  10.315  0.0176  0.0650 -0.0803
  164SOPE   C2118383   4.316   3.913  10.229 -0.2944 -0.0897 -0.2560
  164SOPE   O2218384   4.234   3.820  10.249 -0.8310 -0.2953  0.7035
  164SOPE   C2218385   4.394   3.940  10.103 -0.5857 -0.0569  0.4783
  164SOPE   H2R18386   4.466   3.856  10.089  0.5323  0.8392  0.8142
  164SOPE   H2S18387   4.456   4.031  10.118 -0.3585 -0.4387  2.0025
  164SOPE    C318388   4.194   4.089  10.476  0.7162 -0.4275 -0.0909
  164SOPE    HX18389   4.158   4.072  10.579  1.0076  0.3865  0.1423
  164SOPE    HY18390   4.101   4.066  10.420 -0.1918  3.6198 -0.3321
  164SOPE   O3118391   4.244   4.224  10.455 -0.0598  0.0377 -0.4747
  164SOPE   C3118392   4.224   4.282  10.343  0.3150 -0.9588 -0.0000
  164SOPE   O3218393   4.158   4.237  10.248 -0.7745 -0.0866 -0.1055
  164SOPE   C3218394   4.292   4.424  10.351  0.5158  0.8661 -0.1581
  164SOPE   H2X18395   4.403   4.422  10.360  0.5450 -3.1137 -0.6514
  164SOPE   H2Y18396   4.252   4.473  10.442  0.8494  0.9424 -0.0499
  164SOPE   C2318397   4.314   3.944   9.967 -0.2051  0.4117  0.2506
  164SOPE   H3R18398   4.242   4.029   9.968  0.2806  0.8250  0.9713
  164SOPE   H3S18399   4.249   3.854   9.959  0.3120 -0.1277  1.9078
  164SOPE   C2418400   4.408   3.970   9.840 -0.6144 -0.9128  0.3430
  164SOPE   H4R18401   4.466   4.065   9.850 -2.5962  0.3586  0.0462
  164SOPE   H4S18402   4.480   3.888   9.821  0.5976  0.5306 -1.5539
  164SOPE   C2518403   4.333   4.005   9.712  1.2744  0.7767  0.2112
  164SOPE   H5R18404   4.269   3.921   9.678  1.4966  0.6726  0.0478
  164SOPE   H5S18405   4.267   4.094   9.722  0.3717  0.3266 -1.5384
  164SOPE   C2618406   4.436   4.044   9.606  0.1562 -0.8800 -0.4754
  164SOPE   H6R18407   4.494   4.133   9.637  0.7219 -1.4306  0.0805
  164SOPE   H6S18408   4.494   3.952   9.583 -2.1137 -2.4445 -0.1178
  164SOPE   C2718409   4.369   4.070   9.466 -0.1908  0.6047  0.4216
  164SOPE   H7R18410   4.353   3.978   9.407  0.5544 -1.3289  3.1289
  164SOPE   H7S18411   4.270   4.114   9.488 -0.0465  3.3504 -3.7182
  164SOPE   C2818412   4.443   4.182   9.384 -0.4895  0.7240  0.2585
  164SOPE   H8R18413   4.438   4.283   9.432 -0.0572  1.2715 -0.8387
  164SOPE   H8S18414   4.548   4.150   9.370 -0.0201  2.6246 -0.6868
  164SOPE   C2918415   4.368   4.196   9.254  0.5843 -0.3468  0.0536
  164SOPE   H9118416   4.303   4.284   9.248  1.5871  0.4678  0.9189
  164SOPE  C21018417   4.369   4.114   9.152 -0.1239 -0.0292 -0.0213
  164SOPE  H10118418   4.318   4.150   9.062 -1.3035 -1.2469  0.1440
  164SOPE  C21118419   4.444   3.984   9.124  0.6306 -0.1006 -0.5364
  164SOPE  H11R18420   4.378   3.895   9.127 -0.2217  0.5721  2.0609
  164SOPE  H11S18421   4.513   3.970   9.211  1.3828  1.7554 -0.8162
  164SOPE  C21218422   4.535   3.971   9.004 -0.5169 -0.0838  0.3842
  164SOPE  H12R18423   4.473   3.986   8.912 -1.7926  1.9526  1.5304
  164SOPE  H12S18424   4.581   3.870   9.011 -1.0473 -0.2113  2.0913
  164SOPE  C21318425   4.648   4.066   8.993 -0.6780  0.2034 -0.2422
  164SOPE  H13R18426   4.702   4.059   9.090  0.8828  0.9267 -1.0283
  164SOPE  H13S18427   4.606   4.167   8.972  0.5749  0.8585  0.3116
  164SOPE  C21418428   4.762   4.040   8.890  0.0890 -0.2578 -0.2752
  164SOPE  H14R18429   4.748   4.105   8.801  0.7766  2.3937  1.5190
  164SOPE  H14S18430   4.745   3.936   8.855 -2.9885 -0.4484  1.5862
  164SOPE  C21518431   4.904   4.062   8.944 -0.5905  0.2328  0.3378
  164SOPE  H15R18432   4.956   4.057   8.846 -0.9294  4.0647 -0.1026
  164SOPE  H15S18433   4.931   3.968   8.998 -0.2046 -0.9033 -1.7873
  164SOPE  C21618434   4.935   4.194   9.017  0.3693  0.6430  0.7847
  164SOPE  H16R18435   4.868   4.212   9.104  0.4679  1.7414  0.6463
  164SOPE  H16S18436   4.914   4.273   8.941 -0.2299 -0.2631 -0.0083
  164SOPE  C21718437   5.087   4.212   9.046  0.1116  0.1567  0.1677
  164SOPE  H17R18438   5.106   4.321   9.059  0.2557  0.1654 -0.1079
  164SOPE  H17S18439   5.150   4.177   8.962 -0.0961 -0.3662  0.2271
  164SOPE  C21818440   5.149   4.141   9.167 -0.0632  0.0695  0.5125
  164SOPE  H18R18441   5.141   4.031   9.156  1.1064  0.0031  0.2773
  164SOPE  H18S18442   5.096   4.178   9.258 -1.1650  0.5488 -0.3079
  164SOPE  H18T18443   5.257   4.165   9.176  0.2897  0.0864 -3.0871
  164SOPE   C3318444   4.239   4.515  10.238 -0.8763 -1.0310  0.7549
  164SOPE   H3X18445   4.287   4.492  10.140  1.1406 -2.5697  2.0577
  164SOPE   H3Y18446   4.275   4.617  10.264 -1.3369 -0.9940  1.2573
  164SOPE   C3418447   4.090   4.535  10.231  0.3750 -0.3983  0.4228
  164SOPE   H4X18448   4.059   4.557  10.336  0.7525  0.3194  0.3861
  164SOPE   H4Y18449   4.044   4.439  10.198 -0.4885  0.2816 -0.4040
  164SOPE   C3518450   4.052   4.651  10.140 -0.2009 -0.4413  0.5703
  164SOPE   H5X18451   4.107   4.745  10.163 -0.2201  0.2308 -1.9724
  164SOPE   H5Y18452   3.947   4.678  10.165  0.1960  2.0532 -0.3675
  164SOPE   C3618453   4.059   4.610   9.988  0.5409  0.2090  0.2804
  164SOPE   H6X18454   3.989   4.524   9.976  0.0691  0.3468  1.9460
  164SOPE   H6Y18455   4.159   4.569   9.962  0.1876  0.4525 -1.4981
  164SOPE   C3718456   4.010   4.721   9.895 -0.1999  0.6456 -0.3714
  164SOPE   H7X18457   4.076   4.809   9.904 -0.5891  0.9917 -0.8311
  164SOPE   H7Y18458   3.908   4.742   9.935 -0.4731 -1.2897  0.0309
  164SOPE   C3818459   4.012   4.673   9.748  0.2824 -0.1409  0.6455
  164SOPE   H8X18460   3.939   4.591   9.731  0.5507 -0.1523 -0.4850
  164SOPE   H8Y18461   4.114   4.638   9.724 -0.9445 -2.1366 -1.8487
  164SOPE   C3918462   3.965   4.781   9.653  0.4571 -0.6731 -0.8285
  164SOPE   H9X18463   4.016   4.871   9.694 -2.2060 -0.1120  1.4073
  164SOPE   H9Y18464   3.857   4.802   9.667  0.6633  0.0886 -0.3216
  164SOPE  C31018465   4.011   4.765   9.509  0.2758 -0.0584  0.2268
  164SOPE  H10X18466   3.972   4.665   9.480 -1.6281  0.9422 -0.7308
  164SOPE  H10Y18467   4.121   4.752   9.506  0.1637 -1.4301  1.3101
  164SOPE  C31118468   3.979   4.870   9.409 -0.2404 -0.9280 -0.0314
  164SOPE  H11X18469   4.012   4.968   9.451 -1.6358 -0.2239 -0.5488
  164SOPE  H11Y18470   3.871   4.870   9.386 -0.2494 -0.6300  0.0067
  164SOPE  C31218471   4.054   4.844   9.275  0.2647  0.0782 -0.8753
  164SOPE  H12X18472   4.027   4.742   9.240  0.3695 -0.3966  0.3924
  164SOPE  H12Y18473   4.163   4.834   9.290  0.5055  0.8396 -2.0608
  164SOPE  C31318474   4.048   4.953   9.173  0.8244 -0.1923  0.3138
  164SOPE  H13X18475   4.075   5.054   9.210 -0.2468 -0.1296  0.9545
  164SOPE  H13Y18476   3.940   4.962   9.145  1.1118 -0.3114 -0.8449
  164SOPE  C31418477   4.143   4.932   9.065  0.6610  0.6129  0.2092
  164SOPE  H14X18478   4.102   4.842   9.014 -2.6354  1.3931  1.3793
  164SOPE  H14Y18479   4.246   4.918   9.105 -0.0035 -0.0338  1.7253
  164SOPE  C31518480   4.147   5.055   8.975 -0.4834  1.1702 -0.0428
  164SOPE  H15X18481   4.204   5.141   9.016 -0.2964 -0.3948  3.1059
  164SOPE  H15Y18482   4.041   5.088   8.962 -1.7559 -2.0178  1.7469
  164SOPE  C31618483   4.197   5.027   8.834 -0.0092 -0.4169 -0.4048
  164SOPE  H16X18484   4.111   4.970   8.791 -2.4280  2.0178  1.0357
  164SOPE  H16Y18485   4.289   4.966   8.847  0.0631  0.3799  3.4829
  164SOPE  C31718486   4.242   5.160   8.758 -0.4113 -0.0999  0.5663
  164SOPE  H17X18487   4.323   5.205   8.819  1.0768 -3.0619  0.8786
  164SOPE  H17Y18488   4.153   5.226   8.753  0.9802  1.8322  0.7693
  164SOPE  C31818489   4.290   5.118   8.614 -0.5972 -0.1476 -0.2927
  164SOPE  H18X18490   4.199   5.099   8.553 -0.6458  2.9805 -1.2963
  164SOPE  H18Y18491   4.351   5.025   8.617  0.0317  0.3094  1.1638
  164SOPE  H18Z18492   4.337   5.204   8.562  0.5283 -0.8325 -0.4244
  165SOPE     N18493   2.558   4.944  10.910  0.1557  0.5324 -0.7686
  165SOPE   HN118494   2.571   4.936  11.013 -0.5647  1.7631 -0.5738
  165SOPE   HN218495   2.610   5.025  10.870  0.0206  0.5682 -0.8699
  165SOPE   HN318496   2.458   4.969  10.896 -0.2486 -0.7010 -0.1663
  165SOPE   C1218497   2.605   4.820  10.836  0.2368 -1.0333 -0.0340
  165SOPE  H12A18498   2.565   4.841  10.735 -1.2484  1.3110  0.9693
  165SOPE  H12B18499   2.550   4.737  10.885 -2.5904  0.4615 -0.5410
  165SOPE   C1118500   2.756   4.789  10.840 -0.2235 -0.5349 -0.1158
  165SOPE  H11A18501   2.798   4.872  10.780 -0.2938  0.5000  1.2377
  165SOPE  H11B18502   2.768   4.691  10.790  1.2900 -1.9068  2.8029
  165SOPE     P18503   2.886   4.668  11.032 -0.3407  0.2357  0.3014
  165SOPE   O1318504   2.775   4.569  11.048 -0.0161  0.2935 -0.0997
  165SOPE   O1418505   2.969   4.708  11.146 -0.1194  0.1603 -0.1292
  165SOPE   O1218506   2.816   4.798  10.975 -0.3474 -0.3244  0.2970
  165SOPE   O1118507   2.987   4.630  10.918  0.1673  0.4786 -0.2153
  165SOPE    C118508   3.094   4.715  10.880 -0.0279 -0.5194 -0.6061
  165SOPE    HA18509   3.185   4.694  10.939  0.1165  1.5604 -0.0633
  165SOPE    HB18510   3.074   4.824  10.893  1.4434 -0.5486  2.2574
  165SOPE    C218511   3.131   4.693  10.730  0.4056 -0.4296  0.6742
  165SOPE    HS18512   3.051   4.738  10.668  1.7851  0.5410 -0.4142
  165SOPE   O2118513   3.129   4.552  10.706  0.4020 -0.0279  0.6842
  165SOPE   C2118514   3.109   4.507  10.586  0.1569 -0.2492 -0.2267
  165SOPE   O2218515   3.095   4.576  10.489 -0.5026  0.2152  0.5544
  165SOPE   C2218516   3.113   4.356  10.582  0.2449 -0.6975  0.4528
  165SOPE   H2R18517   3.016   4.313  10.617 -0.3725  0.9643  0.8117
  165SOPE   H2S18518   3.207   4.325  10.634 -0.0747 -0.5108  1.1522
  165SOPE    C318519   3.262   4.770  10.692  0.2001 -0.5884  0.3155
  165SOPE    HX18520   3.325   4.751  10.782 -0.9315  1.1198  1.4993
  165SOPE    HY18521   3.243   4.879  10.682 -3.0052 -1.1342  0.0924
  165SOPE   O3118522   3.328   4.710  10.575  0.1098 -0.4482  0.3865
  165SOPE   C3118523   3.327   4.774  10.465 -0.6204  0.4694  0.4668
  165SOPE   O3218524   3.276   4.883  10.439  0.4138  0.7907 -0.1995
  165SOPE   C3218525   3.414   4.706  10.363  0.1501 -0.0923  0.8548
  165SOPE   H2X18526   3.433   4.600  10.391  2.9604 -0.5710 -2.5196
  165SOPE   H2Y18527   3.511   4.758  10.374 -0.2894  0.6169  1.3731
  165SOPE   C2318528   3.121   4.304  10.437 -0.3018  0.2397  0.1350
  165SOPE   H3R18529   3.141   4.194  10.440  3.1772  0.6613 -3.5262
  165SOPE   H3S18530   3.216   4.341  10.394  0.1973  0.7864  1.6952
  165SOPE   C2418531   2.993   4.323  10.358 -0.0866 -0.3679  0.4290
  165SOPE   H4R18532   2.916   4.263  10.411 -0.7324 -1.4771 -1.6871
  165SOPE   H4S18533   2.949   4.424  10.346  1.6726  0.2353 -1.1052
  165SOPE   C2518534   3.011   4.277  10.213 -0.4590  0.1938  0.1101
  165SOPE   H5R18535   3.091   4.333  10.159  0.0596  1.0426  1.7368
  165SOPE   H5S18536   3.036   4.169  10.217  1.3881  0.5891 -0.2836
  165SOPE   C2618537   2.882   4.298  10.127 -0.0928 -0.1193 -0.3838
  165SOPE   H6R18538   2.801   4.226  10.152 -0.0680  0.3879  1.1610
  165SOPE   H6S18539   2.849   4.401  10.151  1.5927  0.2260  0.5074
  165SOPE   C2718540   2.906   4.288   9.973 -0.0316  0.7840  0.0321
  165SOPE   H7R18541   2.967   4.376   9.944  1.9385  0.0886  1.9099
  165SOPE   H7S18542   2.963   4.196   9.948 -0.1756  0.7538 -0.1938
  165SOPE   C2818543   2.781   4.279   9.887  0.1569 -0.5811 -0.0289
  165SOPE   H8R18544   2.797   4.280   9.777 -1.3835 -0.3980 -0.2555
  165SOPE   H8S18545   2.745   4.177   9.911  1.1604 -1.1712 -0.9414
  165SOPE   C2918546   2.680   4.385   9.925 -0.2692 -0.2893  1.2715
  165SOPE   H9118547   2.630   4.372  10.022 -0.7517  1.0348  1.2188
  165SOPE  C21018548   2.648   4.497   9.856 -0.2067 -0.7963 -0.3447
  165SOPE  H10118549   2.559   4.550   9.893  0.0885 -0.6932  0.2398
  165SOPE  C21118550   2.710   4.535   9.721  0.5461 -0.4291  0.3772
  165SOPE  H11R18551   2.798   4.471   9.699 -0.7074 -1.6125 -1.3025
  165SOPE  H11S18552   2.759   4.634   9.728  1.9647 -1.2722  2.9659
  165SOPE  C21218553   2.605   4.535   9.608 -0.2961  0.4877 -0.6554
  165SOPE  H12R18554   2.520   4.591   9.653 -0.6766 -1.0370  0.5795
  165SOPE  H12S18555   2.554   4.437   9.600 -1.1859  0.7798  1.1974
  165SOPE  C21318556   2.651   4.604   9.474 -0.0297  0.5370 -0.4310
  165SOPE  H13R18557   2.697   4.703   9.494 -1.5834  1.1972 -0.0682
  165SOPE  H13S18558   2.555   4.623   9.422  0.3776  1.8155 -0.7272
  165SOPE  C21418559   2.747   4.513   9.390 -0.0089  0.7748 -0.2296
  165SOPE  H14R18560   2.750   4.404   9.413  1.5227  1.0555  0.9368
  165SOPE  H14S18561   2.848   4.544   9.421  0.2892  1.4516 -1.8220
  165SOPE  C21518562   2.728   4.548   9.243 -0.2345  0.9775 -0.0234
  165SOPE  H15R18563   2.753   4.653   9.217 -1.7465  1.1064 -1.0477
  165SOPE  H15S18564   2.621   4.531   9.217  0.4735 -2.4575 -0.9634
  165SOPE  C21618565   2.821   4.467   9.153  0.2592 -0.6085 -0.0632
  165SOPE  H16R18566   2.783   4.364   9.164 -0.4594 -0.0842  2.8156
  165SOPE  H16S18567   2.926   4.483   9.187 -1.1363  1.0836  3.7327
  165SOPE  C21718568   2.820   4.501   9.005 -1.2366  0.1708 -0.1890
  165SOPE  H17R18569   2.864   4.603   9.001  0.1482 -0.4631 -2.2228
  165SOPE  H17S18570   2.717   4.514   8.964 -1.4540 -0.3517  0.1863
  165SOPE  C21818571   2.891   4.403   8.913 -0.2863  0.2193  0.9273
  165SOPE  H18R18572   2.886   4.452   8.813  0.9115  0.3392  0.9209
  165SOPE  H18S18573   2.835   4.307   8.912 -1.0076  0.6442 -1.0465
  165SOPE  H18T18574   2.992   4.382   8.954 -0.6395 -0.3518  1.5099
  165SOPE   C3318575   3.361   4.711  10.217 -0.3878  0.2990 -0.1273
  165SOPE   H3X18576   3.313   4.810  10.201  2.0447  1.4008 -0.7676
  165SOPE   H3Y18577   3.287   4.628  10.222 -0.7169  0.7020  1.9525
  165SOPE   C3418578   3.465   4.679  10.106  0.1701  0.1933  0.2419
  165SOPE   H4X18579   3.498   4.576  10.133 -1.2192 -0.3649 -0.1495
  165SOPE   H4Y18580   3.550   4.749  10.123  0.0429  0.8054 -1.4969
  165SOPE   C3518581   3.412   4.692   9.963  0.2392 -0.1203 -0.4739
  165SOPE   H5X18582   3.378   4.795   9.938 -1.0847 -0.1468  1.1530
  165SOPE   H5Y18583   3.322   4.628   9.958  0.9059 -1.0294 -1.1957
  165SOPE   C3618584   3.512   4.642   9.856 -0.3521  0.1880 -0.9620
  165SOPE   H6X18585   3.526   4.533   9.841  0.1101  0.3157 -1.4872
  165SOPE   H6Y18586   3.608   4.694   9.874 -0.9950  1.2411 -0.4831
  165SOPE   C3718587   3.482   4.692   9.712  0.3016  0.1369  0.1251
  165SOPE   H7X18588   3.440   4.794   9.715 -1.6493 -0.5688 -1.7644
  165SOPE   H7Y18589   3.395   4.632   9.679 -0.2350 -0.1910  2.0861
  165SOPE   C3818590   3.600   4.678   9.615  0.0842 -0.8284 -1.0372
  165SOPE   H8X18591   3.658   4.584   9.626  1.5065  0.1091 -0.4028
  165SOPE   H8Y18592   3.660   4.762   9.656 -1.2554  0.7932 -2.3175
  165SOPE   C3918593   3.569   4.704   9.467  0.9907  0.3517  0.6645
  165SOPE   H9X18594   3.500   4.626   9.428  1.4975 -0.3655  1.1683
  165SOPE   H9Y18595   3.665   4.703   9.411  0.2041 -1.5023 -0.6975
  165SOPE  C31018596   3.495   4.832   9.429  0.1488 -0.2622  0.9099
  165SOPE  H10X18597   3.546   4.912   9.488 -0.8171  2.2028 -1.4894
  165SOPE  H10Y18598   3.391   4.825   9.467  0.4689  1.5005  2.1686
  165SOPE  C31118599   3.523   4.869   9.281 -0.1548 -0.3811 -0.2061
  165SOPE  H11X18600   3.631   4.867   9.257 -0.5140  1.8605 -2.2727
  165SOPE  H11Y18601   3.470   4.965   9.264 -1.4744 -0.6509  2.1752
  165SOPE  C31218602   3.460   4.769   9.186 -0.2375  0.5708  1.4320
  165SOPE  H12X18603   3.369   4.720   9.226  1.7313 -3.0260  1.7478
  165SOPE  H12Y18604   3.531   4.688   9.159 -0.6063  0.9345 -0.7199
  165SOPE  C31318605   3.443   4.842   9.050 -0.0975 -0.3806 -0.0369
  165SOPE  H13X18606   3.391   4.938   9.071 -2.1438 -1.2022 -1.1788
  165SOPE  H13Y18607   3.367   4.787   8.990 -1.9075  1.5139  0.4522
  165SOPE  C31418608   3.574   4.865   8.967 -0.7338 -1.0790 -0.6539
  165SOPE  H14X18609   3.642   4.928   9.029 -0.2985 -1.8719 -0.3205
  165SOPE  H14Y18610   3.552   4.933   8.882  3.0025  0.5449 -0.4637
  165SOPE  C31518611   3.637   4.742   8.904 -0.0470  0.3303  1.0211
  165SOPE  H15X18612   3.559   4.705   8.834 -2.2041  3.8515  1.4376
  165SOPE  H15Y18613   3.646   4.664   8.983 -4.1420 -2.6890 -1.2906
  165SOPE  C31618614   3.774   4.763   8.839  0.4619 -0.4380 -0.3247
  165SOPE  H16X18615   3.858   4.760   8.912  0.9431  2.4378 -0.7182
  165SOPE  H16Y18616   3.774   4.864   8.792 -2.2558 -0.1966  0.1187
  165SOPE  C31718617   3.811   4.658   8.731  0.6661 -0.4189  0.3339
  165SOPE  H17X18618   3.744   4.671   8.644 -0.0034 -1.6975  0.6464
  165SOPE  H17Y18619   3.797   4.555   8.769 -0.9823 -0.5348 -0.5711
  165SOPE  C31818620   3.954   4.675   8.691 -0.7106 -0.2266  0.2590
  165SOPE  H18X18621   4.019   4.651   8.777 -1.3231  3.1543  1.7253
  165SOPE  H18Y18622   3.985   4.772   8.648 -0.4331  0.9437  3.0521
  165SOPE  H18Z18623   3.976   4.616   8.599 -1.8232  1.3141 -1.0298
  166SOPE     N18624   6.785   4.080  10.723  0.2799 -0.0382  0.2632
  166SOPE   HN118625   6.825   4.100  10.630  1.4134 -2.0920  0.2730
  166SOPE   HN218626   6.799   4.170  10.774  0.5477 -0.8894  1.7501
  166SOPE   HN318627   6.844   4.007  10.769 -0.8201 -0.6266  0.7426
  166SOPE   C1218628   6.642   4.052  10.717 -0.7861  0.1291 -0.2630
  166SOPE  H12A18629   6.609   4.022  10.819  3.2630 -0.6446  0.8925
  166SOPE  H12B18630   6.631   3.964  10.650  1.1323 -1.0881  1.0082
  166SOPE   C1118631   6.570   4.183  10.678  0.7635 -0.2748 -0.1915
  166SOPE  H11A18632   6.461   4.160  10.677  0.1559  2.1641  2.2883
  166SOPE  H11B18633   6.607   4.206  10.576  1.5346 -1.2033 -0.1215
  166SOPE     P18634   6.599   4.445  10.728 -0.2862  0.0819  0.0663
  166SOPE   O1318635   6.735   4.491  10.703  0.0749 -0.1449  0.0346
  166SOPE   O1418636   6.512   4.517  10.821  0.1824  0.0287  0.1682
  166SOPE   O1218637   6.592   4.294  10.767  0.2698 -0.0095  0.2274
  166SOPE   O1118638   6.526   4.437  10.592  0.2616  0.7070 -0.2413
  166SOPE    C118639   6.580   4.504  10.475  0.1612  0.7211  0.2266
  166SOPE    HA18640   6.690   4.492  10.465 -0.0007 -0.8723  0.2248
  166SOPE    HB18641   6.576   4.614  10.484 -0.5426  1.1136 -3.9510
  166SOPE    C218642   6.503   4.463  10.347 -0.2354 -0.1252  0.4581
  166SOPE    HS18643   6.556   4.378  10.299 -0.5606 -0.1923  0.2131
  166SOPE   O2118644   6.486   4.572  10.259 -0.4526 -0.0553 -0.2065
  166SOPE   C2118645   6.478   4.545  10.133  0.2891  0.0082  0.5181
  166SOPE   O2218646   6.495   4.435  10.078 -0.4176  0.1130  0.5274
  166SOPE   C2218647   6.460   4.678  10.060  1.2198  0.1765 -0.4617
  166SOPE   H2R18648   6.549   4.744  10.068  1.0356  0.5156 -1.1070
  166SOPE   H2S18649   6.386   4.736  10.118  0.2614 -1.9541  0.5021
  166SOPE    C318650   6.364   4.400  10.381  0.2001  0.6023  0.0068
  166SOPE    HX18651   6.314   4.478  10.442  1.2282  2.4132 -1.4091
  166SOPE    HY18652   6.373   4.310  10.446 -2.9153 -0.0746 -0.4326
  166SOPE   O3118653   6.280   4.370  10.263 -0.3395  0.1521 -0.7471
  166SOPE   C3118654   6.295   4.255  10.207  0.0101 -0.2104  0.5408
  166SOPE   O3218655   6.355   4.160  10.254 -0.8903 -0.1230  0.6618
  166SOPE   C3218656   6.232   4.257  10.074 -0.3570 -1.0331  0.5598
  166SOPE   H2X18657   6.309   4.311  10.015 -1.5923  0.7892  0.5625
  166SOPE   H2Y18658   6.144   4.325  10.068  0.8567  0.7859  2.4479
  166SOPE   C2318659   6.429   4.673   9.902 -0.0565  0.0700 -0.4152
  166SOPE   H3R18660   6.421   4.777   9.865  1.5063  0.1136 -0.6809
  166SOPE   H3S18661   6.338   4.613   9.880 -2.2455  2.8634  0.8752
  166SOPE   C2418662   6.538   4.590   9.830 -0.1308 -0.2386 -0.0930
  166SOPE   H4R18663   6.638   4.637   9.842  0.2776 -1.9097  3.9845
  166SOPE   H4S18664   6.539   4.482   9.854  0.4271 -0.0991  0.5373
  166SOPE   C2518665   6.499   4.561   9.685  0.1565  0.4291  0.0123
  166SOPE   H5R18666   6.547   4.470   9.644 -1.0304  0.9012 -2.5350
  166SOPE   H5S18667   6.389   4.542   9.683  0.0876  0.9555 -1.8426
  166SOPE   C2618668   6.525   4.683   9.590  0.0063 -0.1273  0.1828
  166SOPE   H6R18669   6.480   4.777   9.629  0.5357  0.2361 -0.0789
  166SOPE   H6S18670   6.635   4.690   9.599  0.0420  0.3023 -0.5150
  166SOPE   C2718671   6.484   4.669   9.437  0.3053 -0.0637 -0.0673
  166SOPE   H7R18672   6.537   4.580   9.396 -0.7709 -0.9385  0.4292
  166SOPE   H7S18673   6.374   4.652   9.438  0.0795  1.1758 -1.9926
  166SOPE   C2818674   6.520   4.797   9.360 -0.4341  0.3077  0.2132
  166SOPE   H8R18675   6.500   4.883   9.428  0.3937 -0.6546  1.6965
  166SOPE   H8S18676   6.629   4.793   9.337 -0.6842  0.5153 -1.0512
  166SOPE   C2918677   6.439   4.824   9.234  0.2941 -0.3479  0.0820
  166SOPE   H9118678   6.353   4.890   9.245  0.2171 -0.0653 -1.9889
  166SOPE  C21018679   6.468   4.793   9.110 -0.6978  0.9230  0.1991
  166SOPE  H10118680   6.393   4.821   9.035 -1.4230  0.7137  0.8404
  166SOPE  C21118681   6.587   4.724   9.044  0.2240 -0.5525 -0.1141
  166SOPE  H11R18682   6.538   4.644   8.985 -0.2316 -0.1703 -0.2483
  166SOPE  H11S18683   6.644   4.683   9.131 -0.9876  0.7214  1.3138
  166SOPE  C21218684   6.667   4.806   8.945 -0.0339  0.0975 -0.0415
  166SOPE  H12R18685   6.756   4.752   8.906  0.6458  0.2345  1.2819
  166SOPE  H12S18686   6.707   4.898   8.994 -1.4801  1.5723 -1.5363
  166SOPE  C21318687   6.583   4.849   8.827 -0.3921 -0.1280  0.4301
  166SOPE  H13R18688   6.518   4.924   8.876  3.5659  1.6933  3.1753
  166SOPE  H13S18689   6.521   4.766   8.786 -0.3347 -0.5406  1.1803
  166SOPE  C21418690   6.656   4.927   8.721 -0.6020  1.1561  0.2623
  166SOPE  H14R18691   6.717   4.870   8.648 -1.5345 -1.5119  1.5230
  166SOPE  H14S18692   6.724   5.001   8.769  0.6912  0.4245 -0.4279
  166SOPE  C21518693   6.558   5.022   8.639 -0.0214  0.8875 -0.4264
  166SOPE  H15R18694   6.520   5.105   8.702  0.4309  0.5972  0.2322
  166SOPE  H15S18695   6.478   4.977   8.578  0.6554  1.0245 -1.4408
  166SOPE  C21618696   6.643   5.099   8.529  0.1609  0.0358 -0.1975
  166SOPE  H16R18697   6.686   5.022   8.462  1.0213 -1.0407  1.5556
  166SOPE  H16S18698   6.725   5.156   8.578  0.4511  1.9850 -2.7971
  166SOPE  C21718699   6.550   5.183   8.454 -0.3113 -0.1875  0.6544
  166SOPE  H17R18700   6.487   5.237   8.528  0.1531 -0.5148  1.2889
  166SOPE  H17S18701   6.487   5.114   8.394 -0.5776 -1.4972  2.4009
  166SOPE  C21818702   6.622   5.277   8.347  0.5721  0.0118  0.3788
  166SOPE  H18R18703   6.672   5.209   8.275  0.2875 -0.7671  0.9113
  166SOPE  H18S18704   6.706   5.328   8.399  2.2822 -1.1084 -1.2131
  166SOPE  H18T18705   6.560   5.355   8.298  1.3851 -0.2899 -1.1767
  166SOPE   C3318706   6.197   4.118  10.016 -0.5130  0.2708  0.5575
  166SOPE   H3X18707   6.105   4.087  10.070 -0.3362 -2.9192 -0.8389
  166SOPE   H3Y18708   6.285   4.050  10.025  0.0815  1.1508  1.5594
  166SOPE   C3418709   6.154   4.105   9.869  0.8602 -0.8048 -0.4915
  166SOPE   H4X18710   6.224   4.146   9.793 -0.2860  1.3421 -0.4455
  166SOPE   H4Y18711   6.054   4.154   9.861  0.9783  0.1066  2.6426
  166SOPE   C3518712   6.119   3.958   9.815 -0.8848  0.0455  0.2507
  166SOPE   H5X18713   6.054   3.903   9.886  0.4243  0.8976  2.1590
  166SOPE   H5Y18714   6.213   3.899   9.812 -0.8663 -0.0416  2.0207
  166SOPE   C3618715   6.047   3.956   9.675  0.8354  0.2771 -1.0745
  166SOPE   H6X18716   6.120   3.999   9.603  1.9204 -1.9125 -1.3108
  166SOPE   H6Y18717   5.956   4.020   9.677  0.6209 -0.0315 -1.0825
  166SOPE   C3718718   6.010   3.817   9.624 -1.0638  1.0166 -0.8508
  166SOPE   H7X18719   5.947   3.764   9.699  2.0702  0.2803  1.3755
  166SOPE   H7Y18720   6.107   3.765   9.622 -1.9557 -0.6311 -2.1958
  166SOPE   C3818721   5.938   3.804   9.494 -0.1007 -0.5220  0.4700
  166SOPE   H8X18722   5.849   3.870   9.488  0.3262  0.2125  1.8623
  166SOPE   H8Y18723   5.907   3.699   9.477 -0.2178 -0.3307 -0.4860
  166SOPE   C3918724   6.043   3.831   9.373  0.4132 -0.3678 -0.1893
  166SOPE   H9X18725   6.136   3.772   9.383 -0.0374 -1.3643 -1.6948
  166SOPE   H9Y18726   6.075   3.938   9.369 -0.1945 -0.0947  1.8403
  166SOPE  C31018727   5.981   3.799   9.233  0.1035  0.9094  0.5324
  166SOPE  H10X18728   5.897   3.866   9.207  0.3107  1.2654  0.7644
  166SOPE  H10Y18729   5.952   3.693   9.248 -1.3996  0.9490 -1.9695
  166SOPE  C31118730   6.086   3.808   9.126 -0.3374  0.6616 -0.4260
  166SOPE  H11X18731   6.134   3.707   9.128 -1.0969  0.2555 -1.7445
  166SOPE  H11Y18732   6.160   3.889   9.141  0.8117 -0.4792  0.2185
  166SOPE  C31218733   6.021   3.817   8.991 -0.0067  0.4092  0.0751
  166SOPE  H12X18734   5.971   3.917   8.990 -2.4962 -0.7774  1.6430
  166SOPE  H12Y18735   5.952   3.731   8.981 -0.3484  0.5445  1.2504
  166SOPE  C31318736   6.122   3.808   8.870  0.2870  0.6801 -0.7306
  166SOPE  H13X18737   6.179   3.713   8.873  0.9913  1.0843 -1.1982
  166SOPE  H13Y18738   6.206   3.881   8.870  1.7337 -0.9694 -1.0583
  166SOPE  C31418739   6.056   3.835   8.732 -0.3774 -0.4241  0.8260
  166SOPE  H14X18740   5.992   3.751   8.698 -0.8638  0.2416  0.0700
  166SOPE  H14Y18741   6.140   3.834   8.660 -2.1501  2.0924 -1.3680
  166SOPE  C31518742   5.989   3.973   8.728  0.2825 -0.4007  0.2881
  166SOPE  H15X18743   6.066   4.043   8.768  0.2418 -0.0060 -0.3132
  166SOPE  H15Y18744   5.897   3.978   8.790 -0.5253  0.1845 -0.9225
  166SOPE  C31618745   5.953   4.010   8.582 -0.1909  0.8651 -0.9573
  166SOPE  H16X18746   5.908   3.917   8.541  1.6609 -0.1533 -0.7419
  166SOPE  H16Y18747   6.050   4.032   8.533  0.6489  1.8935  1.0808
  166SOPE  C31718748   5.869   4.139   8.575 -0.3334  0.1346 -0.1918
  166SOPE  H17X18749   5.770   4.124   8.624 -0.4387  0.6432 -0.2446
  166SOPE  H17Y18750   5.846   4.150   8.467 -1.0509 -1.1828 -0.1872
  166SOPE  C31818751   5.940   4.262   8.621 -0.6027 -0.2103  0.1212
  166SOPE  H18X18752   6.000   4.255   8.715  0.0608  2.6714 -0.0472
  166SOPE  H18Y18753   5.873   4.347   8.647 -0.1080 -0.1026  1.0845
  166SOPE  H18Z18754   5.999   4.293   8.532 -0.2567 -1.2885 -0.0362
  167SOPE     N18755   1.229   3.108   6.350  0.1781 -0.0019 -0.1046
  167SOPE   HN118756   1.174   3.074   6.431  1.0072  0.6446  0.7495
  167SOPE   HN218757   1.330   3.094   6.373 -0.0397  0.5439  1.2353
  167SOPE   HN318758   1.217   3.212   6.354 -0.8460 -0.0237 -2.1417
  167SOPE   C1218759   1.188   3.043   6.227  0.0834  0.0203  0.2652
  167SOPE  H12A18760   1.080   3.058   6.202 -0.6139  0.8369  3.5508
  167SOPE  H12B18761   1.203   2.934   6.242  0.0364 -0.0286 -0.0488
  167SOPE   C1118762   1.260   3.101   6.099  0.2481  0.4425  0.1904
  167SOPE  H11A18763   1.244   3.210   6.088 -1.9148  0.1497  0.1806
  167SOPE  H11B18764   1.209   3.053   6.012  0.3440 -1.6969  1.2792
  167SOPE     P18765   1.466   2.937   6.098  0.1343  0.6729 -0.1558
  167SOPE   O1318766   1.609   2.957   6.074 -0.2299 -0.0071 -0.0619
  167SOPE   O1418767   1.401   2.839   6.002 -1.0694  0.3023 -0.1090
  167SOPE   O1218768   1.400   3.079   6.089  0.0953  0.3466  0.3741
  167SOPE   O1118769   1.440   2.889   6.246  0.3441 -0.1734 -0.0818
  167SOPE    C118770   1.506   2.784   6.318 -0.0839 -1.0274  0.2085
  167SOPE    HA18771   1.590   2.744   6.258 -1.3779 -0.0040 -2.3424
  167SOPE    HB18772   1.436   2.706   6.355 -0.1446 -0.5049  1.2351
  167SOPE    C218773   1.564   2.839   6.456  0.5695 -1.0496  0.5158
  167SOPE    HS18774   1.473   2.862   6.515  0.3320  0.1740 -0.3091
  167SOPE   O2118775   1.655   2.951   6.438  0.3641  0.0290 -0.7441
  167SOPE   C2118776   1.596   3.072   6.430  0.0849  0.8384 -0.1761
  167SOPE   O2218777   1.479   3.093   6.440  0.0770  0.0673 -0.0831
  167SOPE   C2218778   1.695   3.177   6.385  0.1147  0.1818  0.0229
  167SOPE   H2R18779   1.657   3.215   6.288 -0.3670 -1.0576 -0.2875
  167SOPE   H2S18780   1.790   3.130   6.352  0.3319  0.5960  0.0599
  167SOPE    C318781   1.646   2.724   6.531  0.4051  0.5439  0.2770
  167SOPE    HX18782   1.709   2.675   6.454 -0.3049 -0.0728  0.0872
  167SOPE    HY18783   1.576   2.647   6.569  0.5630 -0.0247 -0.5854
  167SOPE   O3118784   1.724   2.783   6.644 -0.0250 -0.0781  0.1017
  167SOPE   C3118785   1.849   2.811   6.616  0.2061 -0.1636  0.0853
  167SOPE   O3218786   1.916   2.773   6.523  0.0117  0.0315 -0.1773
  167SOPE   C3218787   1.906   2.895   6.731 -0.2446 -0.4278 -0.0728
  167SOPE   H2X18788   1.834   2.901   6.815  1.3702 -2.4145  1.4988
  167SOPE   H2Y18789   1.917   2.997   6.687  0.0458  0.5749  2.2558
  167SOPE   C2318790   1.706   3.284   6.493 -0.7611  0.0595  0.2427
  167SOPE   H3R18791   1.614   3.307   6.550 -1.2991 -0.0894 -0.5526
  167SOPE   H3S18792   1.755   3.367   6.439  1.5899 -2.0497 -0.9830
  167SOPE   C2418793   1.818   3.226   6.593  0.6649 -0.1551 -0.1306
  167SOPE   H4R18794   1.767   3.144   6.647  2.0283 -2.4735 -2.3010
  167SOPE   H4S18795   1.900   3.178   6.536 -1.3105 -0.8711 -2.4875
  167SOPE   C2518796   1.864   3.337   6.684  0.4595  0.6120  0.1871
  167SOPE   H5R18797   1.888   3.436   6.638 -1.0164  0.5373 -0.7726
  167SOPE   H5S18798   1.787   3.360   6.761  1.6162  1.8089  1.0067
  167SOPE   C2618799   1.991   3.293   6.757 -0.2360 -0.2652  0.5430
  167SOPE   H6R18800   1.983   3.191   6.802 -1.6770  1.2083  3.7704
  167SOPE   H6S18801   2.072   3.285   6.681 -0.4592  1.3791  0.1180
  167SOPE   C2718802   2.039   3.384   6.871  0.0416  0.3851 -0.1033
  167SOPE   H7R18803   2.039   3.491   6.840  0.5814  0.7721  1.1906
  167SOPE   H7S18804   1.960   3.377   6.948  1.8999  0.4073  1.8433
  167SOPE   C2818805   2.177   3.351   6.934  0.7601 -0.5511 -0.1486
  167SOPE   H8R18806   2.191   3.244   6.958 -0.3102 -0.6432  0.1023
  167SOPE   H8S18807   2.257   3.364   6.858  1.5224 -0.5746  0.6528
  167SOPE   C2918808   2.208   3.434   7.055  0.4644 -0.5447 -0.3140
  167SOPE   H9118809   2.172   3.538   7.055  2.8746  0.3702 -2.2050
  167SOPE  C21018810   2.277   3.389   7.164 -0.9076  0.2775  0.4317
  167SOPE  H10118811   2.293   3.460   7.246  1.3579  0.9867 -0.6045
  167SOPE  C21118812   2.344   3.256   7.178 -0.6349  0.0329 -0.8660
  167SOPE  H11R18813   2.408   3.233   7.090 -1.8877  1.7159 -2.2423
  167SOPE  H11S18814   2.268   3.176   7.185  1.8801 -2.4839 -1.2125
  167SOPE  C21218815   2.430   3.261   7.313  0.5205  0.0456  0.3717
  167SOPE  H12R18816   2.493   3.353   7.309 -0.8936  0.9800 -1.6077
  167SOPE  H12S18817   2.507   3.181   7.311  0.2458 -0.2241  0.6214
  167SOPE  C21318818   2.338   3.249   7.433  0.2618 -0.9069 -0.3446
  167SOPE  H13R18819   2.302   3.145   7.417 -1.0904 -0.4880 -0.0275
  167SOPE  H13S18820   2.248   3.313   7.434  0.4059 -0.7077 -0.1547
  167SOPE  C21418821   2.409   3.251   7.563  0.5650  0.2689 -0.1149
  167SOPE  H14R18822   2.454   3.351   7.581  0.9949 -0.2859  2.0071
  167SOPE  H14S18823   2.486   3.171   7.566 -1.0950 -1.3146  2.0130
  167SOPE  C21518824   2.318   3.226   7.679 -0.5391 -0.2281  0.3039
  167SOPE  H15R18825   2.238   3.302   7.679  1.3679  1.8184  0.4294
  167SOPE  H15S18826   2.377   3.239   7.772  1.1222  1.6886 -0.9764
  167SOPE  C21618827   2.251   3.090   7.669  0.0594 -0.8072  0.0608
  167SOPE  H16R18828   2.339   3.025   7.647 -0.5965 -1.8936  0.6047
  167SOPE  H16S18829   2.180   3.072   7.586  0.6735  0.5711 -0.7766
  167SOPE  C21718830   2.212   3.047   7.812 -0.5153  0.0936  0.1820
  167SOPE  H17R18831   2.293   3.074   7.883  1.4239  1.8565 -2.5993
  167SOPE  H17S18832   2.203   2.936   7.808 -2.8889  0.3411 -2.4408
  167SOPE  C21818833   2.071   3.091   7.838  0.2286 -0.4285 -0.1592
  167SOPE  H18R18834   2.077   3.199   7.864 -3.5589 -0.5333  1.3836
  167SOPE  H18S18835   2.026   3.030   7.919  1.9192 -0.3065  0.8868
  167SOPE  H18T18836   2.012   3.087   7.743  0.0839 -0.4442 -0.0688
  167SOPE   C3318837   2.050   2.851   6.767  0.2189 -0.4886  0.2777
  167SOPE   H3X18838   2.122   2.841   6.683  0.2613 -1.1986  0.3906
  167SOPE   H3Y18839   2.032   2.747   6.802  0.8619  0.1857  2.6850
  167SOPE   C3418840   2.123   2.936   6.869  0.4474  0.6872  0.0443
  167SOPE   H4X18841   2.042   2.978   6.933  0.0664 -0.1131  0.0923
  167SOPE   H4Y18842   2.163   3.024   6.814 -1.0439 -0.4080 -2.8808
  167SOPE   C3518843   2.226   2.848   6.940 -0.0596 -0.0291 -0.4416
  167SOPE   H5X18844   2.278   2.786   6.864  0.0914 -0.9744  0.4177
  167SOPE   H5Y18845   2.175   2.776   7.007 -1.7253  1.6419  0.1418
  167SOPE   C3618846   2.327   2.919   7.028  0.0203  0.5668  0.4306
  167SOPE   H6X18847   2.261   2.964   7.105 -0.2221 -0.1804  0.6734
  167SOPE   H6Y18848   2.377   2.996   6.966 -0.4278 -1.1628 -2.1383
  167SOPE   C3718849   2.434   2.833   7.100 -1.0228  0.2385  0.1262
  167SOPE   H7X18850   2.505   2.794   7.023 -0.4783  1.6708 -0.1023
  167SOPE   H7Y18851   2.377   2.750   7.147 -0.2143 -1.0051 -1.0533
  167SOPE   C3818852   2.510   2.917   7.206 -0.1094 -0.0365  0.1370
  167SOPE   H8X18853   2.434   2.936   7.285  0.8406  1.2019  0.7676
  167SOPE   H8Y18854   2.547   3.013   7.164  1.4185 -1.0990 -1.0001
  167SOPE   C3918855   2.609   2.839   7.283 -0.2179 -0.0429 -0.0904
  167SOPE   H9X18856   2.703   2.828   7.224  0.5940 -1.5778  1.4370
  167SOPE   H9Y18857   2.557   2.744   7.308  0.4879 -0.4476 -0.1350
  167SOPE  C31018858   2.641   2.895   7.422  0.0679 -0.8859  0.4987
  167SOPE  H10X18859   2.637   3.006   7.418  0.4394 -0.9223 -1.6574
  167SOPE  H10Y18860   2.748   2.874   7.447 -0.2805  0.5022  3.3664
  167SOPE  C31118861   2.560   2.840   7.540  0.2609  0.1463 -0.3004
  167SOPE  H11X18862   2.562   2.729   7.540 -0.1852  0.1195 -1.9709
  167SOPE  H11Y18863   2.455   2.875   7.530 -0.1488 -1.0815 -0.3526
  167SOPE  C31218864   2.598   2.883   7.682 -0.5203  0.4568 -0.5767
  167SOPE  H12X18865   2.578   2.993   7.689  1.1097  0.6795  0.7213
  167SOPE  H12Y18866   2.707   2.869   7.698 -1.3820 -2.4702  3.3433
  167SOPE  C31318867   2.522   2.810   7.796 -0.0252  0.0525 -0.2319
  167SOPE  H13X18868   2.511   2.701   7.781  3.2614 -0.3439 -0.0168
  167SOPE  H13Y18869   2.421   2.858   7.792  0.2276  0.7583  1.3813
  167SOPE  C31418870   2.583   2.839   7.931  0.2003  0.6411  0.1620
  167SOPE  H14X18871   2.509   2.810   8.008  0.7787 -1.2835  0.0411
  167SOPE  H14Y18872   2.595   2.949   7.939 -0.2896  0.6530  0.7326
  167SOPE  C31518873   2.715   2.767   7.968  0.6059 -0.6378  0.0588
  167SOPE  H15X18874   2.769   2.744   7.874  1.1003 -2.7542  0.8323
  167SOPE  H15Y18875   2.699   2.667   8.013 -1.1176 -0.4632 -0.1343
  167SOPE  C31618876   2.798   2.839   8.073 -0.2360  0.1974  0.0924
  167SOPE  H16X18877   2.728   2.894   8.139 -2.6471 -2.7868  0.1185
  167SOPE  H16Y18878   2.860   2.915   8.021  0.7261 -0.9398 -0.4644
  167SOPE  C31718879   2.894   2.741   8.145  0.3193 -0.0441  0.0226
  167SOPE  H17X18880   2.992   2.789   8.164  0.4427 -0.2675 -0.0425
  167SOPE  H17Y18881   2.905   2.650   8.082 -1.3263  0.8513 -1.6165
  167SOPE  C31818882   2.832   2.689   8.273  0.3397  0.2155  0.7659
  167SOPE  H18X18883   2.745   2.624   8.250 -0.4833  2.0647 -1.4778
  167SOPE  H18Y18884   2.793   2.774   8.334  0.2462  0.2533  0.6526
  167SOPE  H18Z18885   2.898   2.618   8.327  0.6033  1.0142  1.4999
  168SOPE     N18886   1.639   0.439   5.998  0.2699  0.0877  0.4487
  168SOPE   HN118887   1.574   0.448   5.917  0.9451 -3.3194 -0.5654
  168SOPE   HN218888   1.707   0.517   6.003  1.3416 -0.8413  0.7286
  168SOPE   HN318889   1.698   0.354   5.982  0.0905  0.0214  0.1271
  168SOPE   C1218890   1.546   0.429   6.122 -0.3603 -0.4145 -0.3062
  168SOPE  H12A18891   1.479   0.342   6.106  0.6668 -1.3620  0.4402
  168SOPE  H12B18892   1.484   0.521   6.130  0.4544  0.1873 -0.8341
  168SOPE   C1118893   1.630   0.405   6.247  0.5128 -0.2741 -0.2930
  168SOPE  H11A18894   1.552   0.391   6.325  0.9660 -1.2342 -0.0021
  168SOPE  H11B18895   1.693   0.487   6.288 -2.2194  2.1450 -0.7065
  168SOPE     P18896   1.795   0.227   6.343 -0.1728  0.1371 -0.4973
  168SOPE   O1318897   1.937   0.274   6.335  0.1732  0.5618  0.1627
  168SOPE   O1418898   1.772   0.086   6.328  0.0641 -0.1994  0.1228
  168SOPE   O1218899   1.708   0.290   6.230 -0.2741 -0.5676 -0.0039
  168SOPE   O1118900   1.720   0.276   6.474 -0.5890  0.0190  0.3335
  168SOPE    C118901   1.777   0.388   6.548  0.1276  0.6030  0.1075
  168SOPE    HA18902   1.771   0.479   6.484 -2.0658  1.3900  1.3922
  168SOPE    HB18903   1.881   0.361   6.576  0.1094 -0.3453 -0.7122
  168SOPE    C218904   1.686   0.410   6.672  1.2589  0.1822  0.0759
  168SOPE    HS18905   1.722   0.491   6.739  0.5413  0.3008  0.3169
  168SOPE   O2118906   1.661   0.285   6.751 -0.1772  0.0662  0.2393
  168SOPE   C2118907   1.767   0.252   6.826 -0.1224  0.6688 -0.1334
  168SOPE   O2218908   1.871   0.320   6.836  0.0155  0.6278 -0.5875
  168SOPE   C2218909   1.751   0.112   6.894  0.0819 -0.3835 -0.2425
  168SOPE   H2R18910   1.854   0.094   6.932  0.5371  1.2440 -0.6675
  168SOPE   H2S18911   1.732   0.033   6.817  1.3330 -1.0440  0.1028
  168SOPE    C318912   1.547   0.460   6.631 -0.5740  0.6335  0.1578
  168SOPE    HX18913   1.510   0.407   6.541 -1.8210  1.8710 -0.0631
  168SOPE    HY18914   1.558   0.567   6.603 -1.4244  0.4978 -0.6991
  168SOPE   O3118915   1.455   0.449   6.739 -0.2644  0.2850  0.4110
  168SOPE   C3118916   1.461   0.531   6.837  0.1942  0.0725  0.3469
  168SOPE   O3218917   1.552   0.603   6.867 -0.2554 -0.5847  0.0510
  168SOPE   C3218918   1.330   0.517   6.922  0.0642  0.3083 -0.7857
  168SOPE   H2X18919   1.316   0.407   6.933  0.1848  0.3474 -0.2115
  168SOPE   H2Y18920   1.240   0.565   6.879 -1.3790 -1.2917  0.3848
  168SOPE   C2318921   1.637   0.105   6.999  0.5237 -0.0074 -0.4084
  168SOPE   H3R18922   1.636  -0.002   7.029  4.1392  0.4829  1.7495
  168SOPE   H3S18923   1.546   0.126   6.939  1.5915  2.0054 -1.4058
  168SOPE   C2418924   1.646   0.201   7.115 -0.4558  0.5064 -0.1078
  168SOPE   H4R18925   1.745   0.206   7.165  0.2941 -1.2329 -1.3491
  168SOPE   H4S18926   1.626   0.301   7.072  1.5685  1.2092  0.5271
  168SOPE   C2518927   1.530   0.185   7.218 -0.6696 -0.3800 -0.5342
  168SOPE   H5R18928   1.438   0.238   7.186 -2.8149 -3.8579 -0.3957
  168SOPE   H5S18929   1.500   0.078   7.222 -0.4018 -0.4121  4.2889
  168SOPE   C2618930   1.574   0.224   7.361 -0.0339  0.0888  0.1760
  168SOPE   H6R18931   1.654   0.156   7.397 -1.6111 -0.6447  2.4674
  168SOPE   H6S18932   1.620   0.325   7.358  0.2642 -0.1051 -3.1389
  168SOPE   C2718933   1.461   0.225   7.459 -0.2056  0.1768 -1.0040
  168SOPE   H7R18934   1.395   0.313   7.443 -1.2284 -0.6943 -1.6423
  168SOPE   H7S18935   1.386   0.143   7.454 -1.6681  1.2446  2.0011
  168SOPE   C2818936   1.495   0.235   7.607 -0.0390  0.1616 -0.6247
  168SOPE   H8R18937   1.541   0.335   7.626 -0.3579 -0.1235  1.7429
  168SOPE   H8S18938   1.397   0.234   7.660  0.6349 -2.1638  0.6122
  168SOPE   C2918939   1.580   0.128   7.666  1.4230  0.2658  0.0138
  168SOPE   H9118940   1.672   0.110   7.608  0.1131  1.5239 -2.5548
  168SOPE  C21018941   1.542   0.039   7.767 -0.3532 -0.5910  0.9672
  168SOPE  H10118942   1.610  -0.042   7.794 -0.7779 -0.4368  2.5118
  168SOPE  C21118943   1.413   0.046   7.842  1.1477  0.7629 -0.6855
  168SOPE  H11R18944   1.391  -0.061   7.863 -1.9969  1.4106 -0.3396
  168SOPE  H11S18945   1.325   0.082   7.784  0.0900  0.2970  0.6019
  168SOPE  C21218946   1.413   0.129   7.968  0.3319  0.2048  0.0926
  168SOPE  H12R18947   1.311   0.113   8.011  1.3097  0.0745  2.4337
  168SOPE  H12S18948   1.427   0.238   7.953  0.9472 -0.1673 -2.2680
  168SOPE  C21318949   1.513   0.080   8.081  0.1192 -0.4696  0.1292
  168SOPE  H13R18950   1.613   0.127   8.068 -0.8617  1.0131 -2.6498
  168SOPE  H13S18951   1.519  -0.031   8.073 -0.2862 -0.5335  0.7678
  168SOPE  C21418952   1.484   0.123   8.223 -0.3867  0.2923 -0.3083
  168SOPE  H14R18953   1.381   0.165   8.220 -0.2127  0.8575  1.0182
  168SOPE  H14S18954   1.539   0.211   8.263 -0.0214 -0.7011  1.4304
  168SOPE  C21518955   1.509   0.014   8.328 -0.0517 -0.5196  0.4287
  168SOPE  H15R18956   1.454  -0.077   8.295  1.4850 -1.4624  0.3748
  168SOPE  H15S18957   1.471   0.046   8.427 -0.7034  0.1608 -0.0357
  168SOPE  C21618958   1.655  -0.032   8.344 -0.3800 -0.0013  0.2110
  168SOPE  H16R18959   1.697  -0.060   8.245 -0.5730 -0.4904  0.2692
  168SOPE  H16S18960   1.649  -0.128   8.400  0.7354  0.1992  0.6872
  168SOPE  C21718961   1.734   0.081   8.412  0.5240 -0.3274  0.2633
  168SOPE  H17R18962   1.676   0.104   8.504 -1.0558  3.2728 -1.5138
  168SOPE  H17S18963   1.729   0.176   8.355  1.5803 -1.6099 -2.0058
  168SOPE  C21818964   1.875   0.046   8.450  0.3495 -0.2303 -0.0224
  168SOPE  H18R18965   1.886  -0.060   8.482 -0.0198 -0.2265  0.1175
  168SOPE  H18S18966   1.915   0.101   8.538  3.3426 -1.3676 -0.6020
  168SOPE  H18T18967   1.941   0.071   8.364  1.8527 -3.5572  0.0931
  168SOPE   C3318968   1.354   0.556   7.066  0.1711  0.0306 -0.8435
  168SOPE   H3X18969   1.367   0.665   7.083 -0.7743  0.3720 -2.2242
  168SOPE   H3Y18970   1.450   0.508   7.097  1.0118  2.2821  0.1768
  168SOPE   C3418971   1.247   0.507   7.167  0.5710 -0.5458 -0.0836
  168SOPE   H4X18972   1.258   0.397   7.159  0.4106 -0.7665  2.3028
  168SOPE   H4Y18973   1.145   0.535   7.132 -0.1427 -2.3824  0.4966
  168SOPE   C3518974   1.265   0.558   7.310  0.5515 -0.1347 -0.4159
  168SOPE   H5X18975   1.243   0.667   7.309  1.3861  0.0370 -0.7332
  168SOPE   H5Y18976   1.368   0.529   7.339 -0.0046 -1.4521  0.3076
  168SOPE   C3618977   1.176   0.491   7.414 -0.9755  0.3557 -0.4144
  168SOPE   H6X18978   1.193   0.381   7.416  0.9499  0.5845 -2.2414
  168SOPE   H6Y18979   1.076   0.516   7.372 -1.2484 -0.4739 -0.2570
  168SOPE   C3718980   1.198   0.538   7.557  0.2324  0.2092  0.5305
  168SOPE   H7X18981   1.173   0.646   7.561  4.3859  1.2305  1.0340
  168SOPE   H7Y18982   1.305   0.542   7.586  0.5523 -0.8059 -0.4638
  168SOPE   C3818983   1.115   0.460   7.657  0.6142 -0.1054 -0.2510
  168SOPE   H8X18984   1.130   0.351   7.645 -0.4671 -0.0935 -1.8755
  168SOPE   H8Y18985   1.005   0.474   7.645  0.1622 -1.3570  2.1921
  168SOPE   C3918986   1.148   0.494   7.799 -0.3390  0.4078 -0.2566
  168SOPE   H9X18987   1.094   0.588   7.822 -0.3873  0.6267 -1.2419
  168SOPE   H9Y18988   1.255   0.520   7.811  0.1160 -2.1252  1.4771
  168SOPE  C31018989   1.102   0.379   7.891 -0.0083 -0.1535  0.1095
  168SOPE  H10X18990   1.172   0.299   7.859  1.5613  0.9244  0.8061
  168SOPE  H10Y18991   1.001   0.343   7.863  1.2647 -1.8475 -2.4523
  168SOPE  C31118992   1.115   0.404   8.040 -0.3778  0.6556 -0.1901
  168SOPE  H11X18993   1.083   0.507   8.064 -0.0962  1.1718 -1.9615
  168SOPE  H11Y18994   1.219   0.390   8.075 -0.4342 -0.5299 -0.4797
  168SOPE  C31218995   1.015   0.307   8.100 -1.0715  0.0124 -0.4304
  168SOPE  H12X18996   1.043   0.213   8.048  2.3343  0.8826 -0.2941
  168SOPE  H12Y18997   0.910   0.332   8.072 -1.6689 -1.7813  0.1312
  168SOPE  C31318998   1.018   0.294   8.255  0.4908  0.0050  0.0736
  168SOPE  H13X18999   1.119   0.293   8.302 -0.7288  0.6907  2.8716
  168SOPE  H13Y19000   0.975   0.195   8.279  0.1556  0.6228  2.1591
  168SOPE  C31419001   0.920   0.396   8.315 -0.7031  0.2468  0.2485
  168SOPE  H14X19002   0.830   0.401   8.250  1.4923  3.1074 -2.7270
  168SOPE  H14Y19003   0.978   0.491   8.315  0.1525 -0.2698 -0.9109
  168SOPE  C31519004   0.877   0.357   8.455 -0.0057  0.4083  0.7585
  168SOPE  H15X19005   0.878   0.247   8.472 -0.7344  0.5067  1.4239
  168SOPE  H15Y19006   0.771   0.391   8.454 -0.1627 -0.0986 -0.0753
  168SOPE  C31619007   0.950   0.426   8.579  1.1433 -0.6229  0.2941
  168SOPE  H16X19008   0.882   0.404   8.664 -2.0348  0.7072 -1.8077
  168SOPE  H16Y19009   0.955   0.536   8.562  2.3736 -0.9545 -1.6525
  168SOPE  C31719010   1.086   0.370   8.612 -0.6378  0.0026  0.2372
  168SOPE  H17X19011   1.159   0.389   8.531 -2.2338 -0.9957 -1.4811
  168SOPE  H17Y19012   1.082   0.260   8.625  2.8323 -0.0174  1.4814
  168SOPE  C31819013   1.116   0.437   8.747 -0.2008 -0.3291  0.8499
  168SOPE  H18X19014   1.224   0.427   8.770 -0.3262  0.0533  1.5848
  168SOPE  H18Y19015   1.069   0.387   8.834 -3.8073 -1.3461 -1.5599
  168SOPE  H18Z19016   1.098   0.546   8.740  0.5401 -0.1964  0.9122
  169SOPE     N19017   3.423   2.256   6.367 -0.0984  0.8642 -0.0298
  169SOPE   HN119018   3.353   2.282   6.440 -1.8639 -2.5062 -0.4324
  169SOPE   HN219019   3.519   2.284   6.396 -0.0609  1.1791 -0.4493
  169SOPE   HN319020   3.401   2.313   6.283  0.1305  1.5904  0.3990
  169SOPE   C1219021   3.428   2.101   6.345 -0.2448 -0.2580 -0.1698
  169SOPE  H12A19022   3.468   2.085   6.243 -0.1119  1.5302 -0.4119
  169SOPE  H12B19023   3.327   2.058   6.363  0.2929 -1.0634  1.0001
  169SOPE   C1119024   3.515   2.047   6.462 -0.4615  0.1470  0.7369
  169SOPE  H11A19025   3.529   1.940   6.438 -1.1639  0.4384 -1.0338
  169SOPE  H11B19026   3.485   2.055   6.569  1.6031  0.3894  1.3155
  169SOPE     P19027   3.775   2.073   6.529 -0.2163 -0.3602  0.6443
  169SOPE   O1319028   3.864   2.193   6.531  0.2880 -0.2321 -0.5244
  169SOPE   O1419029   3.816   1.942   6.469 -0.9690  0.0240 -0.4390
  169SOPE   O1219030   3.643   2.109   6.452 -0.7609 -0.1923  0.1111
  169SOPE   O1119031   3.712   2.047   6.675 -0.1728  0.1369  0.1736
  169SOPE    C119032   3.676   2.164   6.759 -0.3139  0.7477  0.0984
  169SOPE    HA19033   3.565   2.169   6.766 -0.5665 -0.2126 -2.3980
  169SOPE    HB19034   3.709   2.262   6.720  0.1751  0.0501 -1.3042
  169SOPE    C219035   3.736   2.151   6.904 -0.8124 -0.2771  0.0574
  169SOPE    HS19036   3.844   2.178   6.894 -0.4813 -0.6108  2.4360
  169SOPE   O2119037   3.707   2.023   6.956 -0.3463  0.0665 -0.0530
  169SOPE   C2119038   3.809   1.942   6.950 -0.0506 -0.2112 -0.1464
  169SOPE   O2219039   3.924   1.967   6.929 -0.2480 -0.5466  0.0502
  169SOPE   C2219040   3.765   1.802   6.994  0.2573 -0.0518 -0.5705
  169SOPE   H2R19041   3.848   1.735   6.961  0.7148  0.1657  0.1273
  169SOPE   H2S19042   3.669   1.777   6.946  1.2684 -4.0503 -0.6955
  169SOPE    C319043   3.678   2.264   6.998  0.2565  0.3449  0.3924
  169SOPE    HX19044   3.568   2.268   6.980  0.1295 -1.7668  0.5630
  169SOPE    HY19045   3.720   2.362   6.966  1.3595 -0.3150 -0.2030
  169SOPE   O3119046   3.686   2.245   7.137 -0.2511  0.4741 -0.3322
  169SOPE   C3119047   3.810   2.261   7.178  0.4101  0.1344 -0.2728
  169SOPE   O3219048   3.902   2.289   7.105  0.5890 -0.4429 -0.3976
  169SOPE   C3219049   3.823   2.217   7.322  0.0472 -0.7941  0.1930
  169SOPE   H2X19050   3.766   2.294   7.378 -0.7123 -0.3006 -1.2219
  169SOPE   H2Y19051   3.923   2.215   7.369 -1.0321  0.3678  2.6310
  169SOPE   C2319052   3.739   1.798   7.146  0.7531 -0.6377 -0.8687
  169SOPE   H3R19053   3.678   1.887   7.172  1.5259  0.2104 -1.8950
  169SOPE   H3S19054   3.833   1.808   7.205 -0.6288 -2.6669  1.7726
  169SOPE   C2419055   3.677   1.661   7.169  0.4959 -0.9468 -0.4819
  169SOPE   H4R19056   3.609   1.631   7.087 -1.4056  1.0160  0.3447
  169SOPE   H4S19057   3.759   1.587   7.161 -1.4619 -3.0821 -1.4869
  169SOPE   C2519058   3.601   1.645   7.305  0.2324  0.0547 -1.3530
  169SOPE   H5R19059   3.669   1.664   7.391 -1.4551 -1.1834  0.2995
  169SOPE   H5S19060   3.513   1.711   7.315  0.3256 -0.3937  4.9254
  169SOPE   C2619061   3.552   1.494   7.325  0.1233 -0.2618  0.1710
  169SOPE   H6R19062   3.498   1.468   7.231 -0.8730 -2.2449  1.2541
  169SOPE   H6S19063   3.632   1.420   7.344 -1.1081 -2.0426 -1.5374
  169SOPE   C2719064   3.455   1.484   7.452 -0.1938  0.1526  0.5377
  169SOPE   H7R19065   3.374   1.558   7.441 -1.6742 -1.8490 -3.1586
  169SOPE   H7S19066   3.409   1.384   7.464 -0.4773  0.6607  4.1911
  169SOPE   C2819067   3.514   1.507   7.596 -0.2545 -0.3555 -0.6589
  169SOPE   H8R19068   3.530   1.617   7.603  2.4489 -0.7780  0.7118
  169SOPE   H8S19069   3.435   1.474   7.667  2.0089 -1.2763  1.5015
  169SOPE   C2919070   3.649   1.448   7.625 -0.3819 -0.0323  0.0709
  169SOPE   H9119071   3.733   1.506   7.585 -1.1535  2.4350  1.9033
  169SOPE  C21019072   3.673   1.330   7.693 -0.1488 -0.5756 -1.0717
  169SOPE  H10119073   3.778   1.312   7.721  0.1605  1.0364 -1.1622
  169SOPE  C21119074   3.573   1.248   7.768 -1.1807  0.3802  0.1970
  169SOPE  H11R19075   3.557   1.155   7.708  1.5970  0.6645 -1.0345
  169SOPE  H11S19076   3.476   1.304   7.774 -1.0287  0.8275 -1.2519
  169SOPE  C21219077   3.604   1.200   7.910  0.3273  0.0049  0.3114
  169SOPE  H12R19078   3.710   1.165   7.911  0.6122  0.8014 -1.1678
  169SOPE  H12S19079   3.540   1.119   7.951 -2.7214  2.7980  1.2352
  169SOPE  C21319080   3.595   1.320   8.012  0.7131 -0.1389 -0.1583
  169SOPE  H13R19081   3.490   1.358   8.001  0.2642 -1.1100  0.7541
  169SOPE  H13S19082   3.668   1.397   7.980  0.7684 -0.0911  0.0853
  169SOPE  C21419083   3.616   1.285   8.156  0.3772 -0.8345 -0.9610
  169SOPE  H14R19084   3.710   1.227   8.167  1.0736  0.5512  0.7200
  169SOPE  H14S19085   3.531   1.218   8.181 -0.3469 -0.2744 -1.9080
  169SOPE  C21519086   3.617   1.399   8.261 -0.4889  1.1484  0.2151
  169SOPE  H15R19087   3.524   1.460   8.251  0.0011  1.6751 -1.3363
  169SOPE  H15S19088   3.701   1.466   8.233  1.5728 -0.6772  1.9090
  169SOPE  C21619089   3.639   1.360   8.406 -0.3456  0.2612 -0.6638
  169SOPE  H16R19090   3.735   1.312   8.434 -1.1971 -0.6593  0.7504
  169SOPE  H16S19091   3.556   1.290   8.429 -0.5692  0.5842 -0.4737
  169SOPE  C21719092   3.636   1.477   8.508 -0.1127 -0.0380  0.4619
  169SOPE  H17R19093   3.565   1.547   8.459 -0.1633 -0.9059 -0.7306
  169SOPE  H17S19094   3.731   1.536   8.509 -0.8346  1.2563 -2.4354
  169SOPE  C21819095   3.592   1.444   8.647 -0.6903 -0.3919  0.6284
  169SOPE  H18R19096   3.662   1.372   8.696  2.2124  1.6089 -0.4400
  169SOPE  H18S19097   3.492   1.396   8.657  0.5552 -3.1436  0.5011
  169SOPE  H18T19098   3.601   1.529   8.718 -1.5434  1.0221 -0.9410
  169SOPE   C3319099   3.769   2.070   7.356  1.0132  0.2558  0.2510
  169SOPE   H3X19100   3.837   1.996   7.309 -1.3606 -4.2215  3.5179
  169SOPE   H3Y19101   3.673   2.071   7.299  0.9910  3.0318  0.2822
  169SOPE   C3419102   3.738   2.039   7.508 -0.2982 -0.1655 -0.2534
  169SOPE   H4X19103   3.833   2.026   7.566 -1.1977 -2.7400  0.7239
  169SOPE   H4Y19104   3.681   1.944   7.505  0.8662 -0.8577 -0.8848
  169SOPE   C3519105   3.664   2.148   7.584 -0.4058  0.3870  0.6404
  169SOPE   H5X19106   3.579   2.167   7.515 -0.9879 -4.2315 -0.0362
  169SOPE   H5Y19107   3.724   2.242   7.589 -2.1963  1.5324  1.2063
  169SOPE   C3619108   3.622   2.127   7.730  0.3737 -0.0841 -0.9111
  169SOPE   H6X19109   3.706   2.099   7.798  0.4668 -0.3733 -1.1425
  169SOPE   H6Y19110   3.558   2.038   7.749 -1.9786  1.3918 -1.7336
  169SOPE   C3719111   3.557   2.248   7.799  0.4056  0.0024 -0.4610
  169SOPE   H7X19112   3.484   2.300   7.734 -1.4261  0.2880  1.8071
  169SOPE   H7Y19113   3.640   2.321   7.802  0.6687 -0.2903 -0.5183
  169SOPE   C3819114   3.508   2.229   7.946  1.0634 -0.7688 -0.3320
  169SOPE   H8X19115   3.416   2.167   7.937  0.7698 -0.5041  0.7778
  169SOPE   H8Y19116   3.577   2.172   8.013  0.2336 -1.3714  0.0137
  169SOPE   C3919117   3.487   2.355   8.022 -0.6761  0.2827  0.0117
  169SOPE   H9X19118   3.419   2.430   7.977  0.0794  0.5703 -0.6654
  169SOPE   H9Y19119   3.587   2.403   8.033 -1.4283  1.6929  0.8837
  169SOPE  C31019120   3.424   2.325   8.159 -0.4685  0.5476 -0.1002
  169SOPE  H10X19121   3.470   2.233   8.200 -0.3438  1.0578  0.9179
  169SOPE  H10Y19122   3.314   2.313   8.157 -0.2781 -1.1618 -0.7591
  169SOPE  C31119123   3.450   2.442   8.255 -0.5587 -0.6414 -0.3430
  169SOPE  H11X19124   3.427   2.543   8.214 -0.8103 -0.7212 -0.4039
  169SOPE  H11Y19125   3.559   2.448   8.275 -0.8129  1.3305  0.6890
  169SOPE  C31219126   3.378   2.440   8.388  0.7094 -0.0953  0.3978
  169SOPE  H12X19127   3.271   2.446   8.359  1.2643  2.4391 -1.2890
  169SOPE  H12Y19128   3.396   2.530   8.450 -3.0545  0.4568  0.7924
  169SOPE  C31319129   3.409   2.316   8.477  0.2692 -0.0818  0.3096
  169SOPE  H13X19130   3.519   2.305   8.479  0.3711  0.9605  0.6177
  169SOPE  H13Y19131   3.359   2.230   8.427 -1.7623  1.2422 -0.0087
  169SOPE  C31419132   3.357   2.337   8.616 -0.4388  1.1451 -0.1776
  169SOPE  H14X19133   3.390   2.254   8.681 -0.0894 -0.3974 -2.2794
  169SOPE  H14Y19134   3.247   2.348   8.617 -1.0190 -3.6702  1.1332
  169SOPE  C31519135   3.402   2.465   8.675  0.0249 -0.0934 -0.9273
  169SOPE  H15X19136   3.338   2.549   8.641 -1.3608  0.5555  3.0060
  169SOPE  H15Y19137   3.508   2.484   8.647 -0.1679  0.2032 -1.4733
  169SOPE  C31619138   3.395   2.458   8.834 -0.2558 -0.0359 -0.3728
  169SOPE  H16X19139   3.456   2.373   8.871 -1.6511 -0.7704  0.2673
  169SOPE  H16Y19140   3.294   2.434   8.874  1.1111 -2.1510  1.9762
  169SOPE  C31719141   3.458   2.579   8.907 -0.2223 -0.7111 -0.7922
  169SOPE  H17X19142   3.435   2.575   9.015 -0.4258 -1.7780 -0.8649
  169SOPE  H17Y19143   3.397   2.670   8.887  0.3839 -0.1638 -0.1686
  169SOPE  C31819144   3.596   2.590   8.868 -0.8633  0.2741  0.3557
  169SOPE  H18X19145   3.651   2.498   8.839  0.2066  1.4482 -1.4123
  169SOPE  H18Y19146   3.648   2.655   8.941  0.3400  1.9892 -1.9376
  169SOPE  H18Z19147   3.602   2.644   8.771  1.6057 -2.5939 -1.2108
  170SOPE     N19148   4.687   0.164   6.437  0.2105 -0.3987  0.2317
  170SOPE   HN119149   4.609   0.103   6.467  1.3435 -1.5834  0.8133
  170SOPE   HN219150   4.766   0.107   6.401  1.3084  1.4740 -0.4031
  170SOPE   HN319151   4.714   0.218   6.522  1.2400  1.0206 -0.9704
  170SOPE   C1219152   4.631   0.262   6.329 -0.1096  0.0647 -0.3210
  170SOPE  H12A19153   4.597   0.193   6.248 -0.7963  0.2358 -0.1811
  170SOPE  H12B19154   4.709   0.337   6.303 -0.8189 -0.0127 -2.7830
  170SOPE   C1119155   4.515   0.353   6.385  0.3397  0.2543 -0.5970
  170SOPE  H11A19156   4.554   0.422   6.462 -0.5252 -1.1560  1.1713
  170SOPE  H11B19157   4.447   0.287   6.444  0.7445 -0.2494 -0.6874
  170SOPE     P19158   4.298   0.450   6.281 -0.1727  0.0230  0.0461
  170SOPE   O1319159   4.228   0.317   6.273 -0.3236  0.1231  0.1579
  170SOPE   O1419160   4.262   0.564   6.190 -0.2652  0.3358 -0.7883
  170SOPE   O1219161   4.454   0.425   6.277  0.1286 -0.5581  0.1433
  170SOPE   O1119162   4.276   0.504   6.430 -0.0046 -0.0063  0.2007
  170SOPE    C119163   4.333   0.630   6.469 -0.8244  0.4539  0.2805
  170SOPE    HA19164   4.294   0.719   6.416  0.3210  1.2995  0.8318
  170SOPE    HB19165   4.444   0.629   6.466 -0.8165  0.4544  0.5822
  170SOPE    C219166   4.284   0.661   6.614  0.4258  0.5269 -1.1605
  170SOPE    HS19167   4.313   0.762   6.649 -1.6774  0.4915  0.7689
  170SOPE   O2119168   4.340   0.560   6.695 -0.1206  0.0790 -0.6126
  170SOPE   C2119169   4.454   0.584   6.752 -0.5985 -0.4150 -0.1750
  170SOPE   O2219170   4.517   0.688   6.748  0.2222 -0.7914  0.0930
  170SOPE   C2219171   4.485   0.473   6.861 -0.3855 -0.3075 -0.3948
  170SOPE   H2R19172   4.521   0.378   6.816 -1.9474 -1.5340  0.8733
  170SOPE   H2S19173   4.387   0.448   6.906 -0.8593 -0.0460 -1.2645
  170SOPE    C319174   4.125   0.647   6.618  0.4874  0.0492 -0.1337
  170SOPE    HX19175   4.104   0.552   6.563 -1.5970  1.1439 -1.2642
  170SOPE    HY19176   4.083   0.721   6.547 -1.5336 -0.1568  0.8104
  170SOPE   O3119177   4.061   0.655   6.746  0.2681  0.3514 -0.3216
  170SOPE   C3119178   4.078   0.760   6.814 -0.1152  0.5606  0.0023
  170SOPE   O3219179   4.135   0.865   6.787  0.1764  0.3405  0.0438
  170SOPE   C3219180   4.009   0.734   6.954  0.2948  0.3969  0.0156
  170SOPE   H2X19181   3.919   0.672   6.932  1.8520 -1.3239 -1.5812
  170SOPE   H2Y19182   3.974   0.833   6.992  2.4904  0.9149  0.7079
  170SOPE   C2319183   4.587   0.525   6.959  0.1225 -0.6439  0.5144
  170SOPE   H3R19184   4.554   0.613   7.018 -2.6521 -0.6672 -0.8996
  170SOPE   H3S19185   4.687   0.549   6.918 -1.5488  1.7375 -2.3835
  170SOPE   C2419186   4.639   0.412   7.047  0.8407  0.0864  0.2382
  170SOPE   H4R19187   4.552   0.351   7.079  2.2432 -0.8954  2.3102
  170SOPE   H4S19188   4.708   0.343   6.994 -0.3499 -1.0000  0.0843
  170SOPE   C2519189   4.730   0.448   7.168 -0.4091  1.1464  0.4499
  170SOPE   H5R19190   4.817   0.510   7.136 -0.8731  1.5233 -0.1051
  170SOPE   H5S19191   4.657   0.499   7.235 -1.9045 -0.2197 -0.1005
  170SOPE   C2619192   4.785   0.327   7.248 -0.0841  0.3770 -0.3568
  170SOPE   H6R19193   4.709   0.303   7.325 -1.2023 -0.5644 -1.7442
  170SOPE   H6S19194   4.789   0.231   7.193 -1.8727 -0.6735  1.2734
  170SOPE   C2719195   4.915   0.355   7.328 -0.6332  0.2475 -0.2768
  170SOPE   H7R19196   4.996   0.344   7.253 -1.6394  1.2654 -1.5472
  170SOPE   H7S19197   4.909   0.459   7.364 -0.2132 -0.3705  1.6192
  170SOPE   C2819198   4.940   0.252   7.441 -0.4766  0.2009  0.2279
  170SOPE   H8R19199   4.869   0.268   7.525  0.8816  1.2162  1.2029
  170SOPE   H8S19200   4.924   0.153   7.393 -1.1436 -0.6560  2.1796
  170SOPE   C2919201   5.085   0.252   7.482  0.1219 -0.0104  0.1199
  170SOPE   H9119202   5.163   0.230   7.408  2.4236 -0.4777  2.6115
  170SOPE  C21019203   5.129   0.276   7.604 -0.0929 -0.5187 -0.5137
  170SOPE  H10119204   5.233   0.291   7.634  0.0327  0.4387 -1.4176
  170SOPE  C21119205   5.042   0.321   7.719 -0.4832 -0.4347  0.0048
  170SOPE  H11R19206   4.958   0.381   7.679  0.2585  1.5681  1.3706
  170SOPE  H11S19207   5.105   0.386   7.784 -0.1687 -0.1190 -0.6143
  170SOPE  C21219208   4.986   0.212   7.807 -0.0570 -0.2086 -1.1421
  170SOPE  H12R19209   5.067   0.142   7.841  0.3570  0.1886 -1.3054
  170SOPE  H12S19210   4.909   0.151   7.755  1.0186 -1.2818 -1.5297
  170SOPE  C21319211   4.916   0.267   7.933 -0.3434  0.0639  0.3836
  170SOPE  H13R19212   4.850   0.194   7.984 -0.8272  0.9246  1.0187
  170SOPE  H13S19213   4.852   0.353   7.902 -1.0919 -0.9260 -0.8322
  170SOPE  C21419214   5.014   0.303   8.051  0.3071  0.3866 -0.7309
  170SOPE  H14R19215   4.964   0.366   8.128  1.6716  0.9178 -0.2617
  170SOPE  H14S19216   5.100   0.361   8.011 -0.4596  2.3592  0.4286
  170SOPE  C21519217   5.061   0.179   8.117 -0.5774  0.3242 -0.5615
  170SOPE  H15R19218   5.097   0.108   8.040 -0.0224  0.1995 -0.1904
  170SOPE  H15S19219   4.984   0.133   8.182 -0.5899 -0.8610 -1.3946
  170SOPE  C21619220   5.184   0.199   8.210  0.2121 -0.9472 -0.4649
  170SOPE  H16R19221   5.263   0.249   8.150  1.1515 -1.5040  0.3051
  170SOPE  H16S19222   5.222   0.099   8.240  2.3000  0.2949  1.1153
  170SOPE  C21719223   5.169   0.288   8.336 -0.0605 -0.0538  0.3386
  170SOPE  H17R19224   5.127   0.388   8.316  0.6611  0.2545  0.3472
  170SOPE  H17S19225   5.268   0.307   8.383 -0.0021  1.3796 -0.3517
  170SOPE  C21819226   5.085   0.216   8.442  0.7566 -0.5805  0.1251
  170SOPE  H18R19227   5.066   0.278   8.533  0.8412  3.8626 -2.7440
  170SOPE  H18S19228   5.125   0.118   8.475  3.1896  0.6957  1.0963
  170SOPE  H18T19229   4.984   0.189   8.403  0.2749  2.0762 -0.5319
  170SOPE   C3319230   4.095   0.676   7.062 -0.1187 -0.4702 -0.3779
  170SOPE   H3X19231   4.126   0.578   7.020  0.7002  0.7464 -2.7416
  170SOPE   H3Y19232   4.034   0.652   7.152  0.4169 -0.5318 -0.0352
  170SOPE   C3419233   4.217   0.750   7.109 -0.4755  0.3232 -0.8610
  170SOPE   H4X19234   4.188   0.833   7.176  1.6712 -0.3036  0.9068
  170SOPE   H4Y19235   4.272   0.802   7.027 -0.1464  0.7915 -0.3491
  170SOPE   C3519236   4.325   0.665   7.180 -0.3456 -0.4147  0.3253
  170SOPE   H5X19237   4.418   0.721   7.204  0.0900 -0.8022 -0.4456
  170SOPE   H5Y19238   4.364   0.591   7.108 -0.1544  0.9721 -1.0126
  170SOPE   C3619239   4.276   0.586   7.307 -0.5210  0.1545  0.1671
  170SOPE   H6X19240   4.213   0.499   7.279 -0.5030  0.0752  0.3743
  170SOPE   H6Y19241   4.208   0.647   7.370  0.1356  0.9424  0.1213
  170SOPE   C3719242   4.399   0.529   7.374  0.2973  0.0001  0.1867
  170SOPE   H7X19243   4.480   0.605   7.378  0.5544 -0.3598  2.0706
  170SOPE   H7Y19244   4.443   0.451   7.309 -2.3430  0.5501 -2.3765
  170SOPE   C3819245   4.360   0.473   7.508 -0.7559 -0.5170  0.1795
  170SOPE   H8X19246   4.284   0.392   7.512 -0.3022 -0.9593 -0.1574
  170SOPE   H8Y19247   4.313   0.547   7.577  0.5220  1.0492 -0.5982
  170SOPE   C3919248   4.494   0.429   7.579  0.2462 -0.2101 -0.0493
  170SOPE   H9X19249   4.555   0.516   7.608  0.5421 -0.6737  0.7243
  170SOPE   H9Y19250   4.557   0.378   7.503  0.5833  1.5990 -0.9945
  170SOPE  C31019251   4.493   0.325   7.696  0.1574  0.1840 -0.5119
  170SOPE  H10X19252   4.592   0.274   7.699  0.0739  0.0017 -0.7730
  170SOPE  H10Y19253   4.425   0.241   7.671 -0.1316  0.7324 -1.5805
  170SOPE  C31119254   4.476   0.388   7.839  0.0320 -0.3800  1.0247
  170SOPE  H11X19255   4.412   0.478   7.827  0.8514 -0.0175 -0.8374
  170SOPE  H11Y19256   4.577   0.423   7.869  0.5051 -0.0368 -0.9172
  170SOPE  C31219257   4.424   0.292   7.943  0.8352 -0.1920 -0.0190
  170SOPE  H12X19258   4.492   0.204   7.940 -0.1631 -0.9357 -1.1922
  170SOPE  H12Y19259   4.322   0.262   7.911  1.2034 -2.2807  0.6983
  170SOPE  C31319260   4.416   0.352   8.092 -0.4175 -0.0621 -0.4601
  170SOPE  H13X19261   4.345   0.282   8.141 -1.7112  1.0876 -0.6680
  170SOPE  H13Y19262   4.365   0.450   8.074 -0.4632 -0.0241 -0.1276
  170SOPE  C31419263   4.545   0.388   8.165 -0.8711  0.2531 -0.0684
  170SOPE  H14X19264   4.530   0.452   8.254 -1.0298 -0.5191  0.4673
  170SOPE  H14Y19265   4.609   0.446   8.095  0.4800  0.3298  1.1928
  170SOPE  C31519266   4.621   0.269   8.220  0.2242 -0.0149  0.1381
  170SOPE  H15X19267   4.718   0.315   8.245  0.1148 -1.0488  2.7021
  170SOPE  H15Y19268   4.634   0.196   8.137  1.9755  0.4919 -0.0420
  170SOPE  C31619269   4.558   0.212   8.347 -0.3853  0.1473 -0.4379
  170SOPE  H16X19270   4.448   0.206   8.337 -0.6271 -2.6395  3.1725
  170SOPE  H16Y19271   4.584   0.290   8.422 -0.7099  2.5935 -2.7530
  170SOPE  C31719272   4.608   0.071   8.383  0.5292  0.0624 -0.1475
  170SOPE  H17X19273   4.575   0.003   8.301 -0.1894 -1.9147  1.7154
  170SOPE  H17Y19274   4.549   0.031   8.469  0.0912  0.4605 -0.2645
  170SOPE  C31819275   4.758   0.043   8.410 -0.2135 -0.1762  0.1773
  170SOPE  H18X19276   4.816   0.071   8.320  1.4803  1.8131  1.8228
  170SOPE  H18Y19277   4.791  -0.062   8.423 -0.7139 -0.2870  0.5791
  170SOPE  H18Z19278   4.784   0.112   8.494  0.6337 -0.9661  0.5821
  171SOPE     N19279   4.136   3.790   6.150 -0.1165  0.2806  0.3236
  171SOPE   HN119280   4.138   3.688   6.171  0.3852 -0.4694 -3.0186
  171SOPE   HN219281   4.082   3.831   6.228  2.0120 -0.5444  2.2722
  171SOPE   HN319282   4.079   3.796   6.063 -0.3759 -1.2094  0.3706
  171SOPE   C1219283   4.277   3.845   6.133 -0.2952 -0.4688  0.1048
  171SOPE  H12A19284   4.268   3.948   6.094 -2.8866 -1.7165 -2.7724
  171SOPE  H12B19285   4.332   3.778   6.063  0.5420  1.6793 -1.3187
  171SOPE   C1119286   4.353   3.842   6.272 -0.3872  0.2186  0.5156
  171SOPE  H11A19287   4.357   3.737   6.306 -1.0238 -0.3576 -1.1366
  171SOPE  H11B19288   4.282   3.899   6.336  0.7675 -0.2218  2.2076
  171SOPE     P19289   4.523   4.005   6.366 -0.2490 -0.4282 -0.2278
  171SOPE   O1319290   4.452   4.130   6.338 -0.7364  0.5835 -0.7777
  171SOPE   O1419291   4.670   4.004   6.368  0.2168 -0.2441  0.7109
  171SOPE   O1219292   4.486   3.899   6.259 -0.0062  0.2433  0.6655
  171SOPE   O1119293   4.459   3.955   6.500  0.3732 -0.2107  0.9755
  171SOPE    C119294   4.473   3.815   6.548 -0.2248 -0.2366  0.2555
  171SOPE    HA19295   4.533   3.751   6.481 -2.3599  0.0768 -2.0384
  171SOPE    HB19296   4.374   3.765   6.550 -0.5412  0.3914  0.6158
  171SOPE    C219297   4.551   3.805   6.684  0.4618 -0.6182  0.0604
  171SOPE    HS19298   4.524   3.710   6.736  0.6421 -0.3494  0.6475
  171SOPE   O2119299   4.524   3.922   6.766 -0.3991  0.4886 -0.0703
  171SOPE   C2119300   4.419   3.919   6.836  0.0883  0.1224 -0.3669
  171SOPE   O2219301   4.349   3.821   6.854 -0.6512 -0.0953 -0.2023
  171SOPE   C2219302   4.382   4.060   6.878 -0.1802 -1.1138  0.2111
  171SOPE   H2R19303   4.326   4.107   6.794 -0.4468  2.0505  2.0699
  171SOPE   H2S19304   4.475   4.120   6.875 -0.0489 -1.2871  0.8058
  171SOPE    C319305   4.703   3.803   6.657 -0.8505  0.1673  0.1145
  171SOPE    HX19306   4.727   3.901   6.610  1.2794  0.1114  1.0223
  171SOPE    HY19307   4.724   3.717   6.590  0.1688 -1.0829  1.9982
  171SOPE   O3119308   4.785   3.796   6.775  0.4236  0.0566 -0.4071
  171SOPE   C3119309   4.795   3.676   6.836 -0.7258 -0.2523  0.2412
  171SOPE   O3219310   4.740   3.578   6.789  0.5399  0.1785  0.2718
  171SOPE   C3219311   4.877   3.695   6.959 -0.5031 -0.1420 -0.3602
  171SOPE   H2X19312   4.946   3.780   6.937 -1.6270  0.1961 -2.7674
  171SOPE   H2Y19313   4.932   3.600   6.973 -1.4779 -0.5440  0.8173
  171SOPE   C2319314   4.307   4.077   7.011  1.0223  0.2879 -0.0504
  171SOPE   H3R19315   4.224   4.003   7.017  1.5134 -0.3307 -0.8986
  171SOPE   H3S19316   4.263   4.178   6.997 -2.7943 -1.3760 -0.8882
  171SOPE   C2419317   4.392   4.067   7.136 -0.3236  0.3714  0.1949
  171SOPE   H4R19318   4.433   3.965   7.148  0.7932  0.7807 -0.1143
  171SOPE   H4S19319   4.481   4.132   7.129  0.2037 -0.3398  0.2780
  171SOPE   C2519320   4.310   4.088   7.264  0.1980 -0.0509 -0.6057
  171SOPE   H5R19321   4.265   4.190   7.268  0.6567  0.1023  0.9637
  171SOPE   H5S19322   4.220   4.024   7.271 -0.1623  0.3312 -1.6817
  171SOPE   C2619323   4.395   4.070   7.389  0.9405  0.0085 -0.3229
  171SOPE   H6R19324   4.454   3.976   7.395  3.1297  1.3779  0.3130
  171SOPE   H6S19325   4.469   4.153   7.387  0.6777  0.2233 -1.2644
  171SOPE   C2719326   4.319   4.077   7.520  0.4465  0.5309 -0.2203
  171SOPE   H7R19327   4.256   4.169   7.515 -0.6843 -0.2052  0.2688
  171SOPE   H7S19328   4.254   3.988   7.511 -2.4312  2.6106 -0.8042
  171SOPE   C2819329   4.409   4.051   7.632 -0.9133  0.3124 -0.8541
  171SOPE   H8R19330   4.454   3.950   7.617 -0.1910  0.4006  0.5377
  171SOPE   H8S19331   4.484   4.133   7.626  0.2998 -0.7883 -0.9655
  171SOPE   C2919332   4.343   4.060   7.767 -1.1128  0.4257  0.2812
  171SOPE   H9119333   4.240   4.022   7.763 -0.5667 -1.0690  0.0578
  171SOPE  C21019334   4.394   4.108   7.876  0.6546 -0.4583 -0.4943
  171SOPE  H10119335   4.339   4.109   7.971  2.4348 -0.0266  0.5428
  171SOPE  C21119336   4.521   4.187   7.891  0.8263  0.6783 -0.6588
  171SOPE  H11R19337   4.493   4.288   7.927 -0.8006  0.6288 -1.7459
  171SOPE  H11S19338   4.580   4.184   7.797 -0.0540 -0.6158 -1.1811
  171SOPE  C21219339   4.603   4.120   8.001  0.4046  0.0406 -0.0006
  171SOPE  H12R19340   4.707   4.156   7.983  0.4381  0.6123  1.2871
  171SOPE  H12S19341   4.599   4.010   7.986 -0.0401 -0.0814  0.9610
  171SOPE  C21319342   4.556   4.159   8.147  0.3528  0.5995  0.2293
  171SOPE  H13R19343   4.445   4.154   8.158  0.2752  0.2485 -0.6660
  171SOPE  H13S19344   4.589   4.262   8.170  1.4298  0.3687 -0.2519
  171SOPE  C21419345   4.611   4.059   8.257 -0.1223 -0.5426  0.7684
  171SOPE  H14R19346   4.717   4.046   8.225 -0.0445  1.3236  0.1849
  171SOPE  H14S19347   4.564   3.958   8.255 -0.1075 -0.5502  0.8217
  171SOPE  C21519348   4.607   4.132   8.399 -0.3167 -0.4976 -0.0116
  171SOPE  H15R19349   4.515   4.194   8.404 -0.8961 -1.2295 -1.1963
  171SOPE  H15S19350   4.693   4.197   8.423 -0.0694 -2.0424  3.6081
  171SOPE  C21619351   4.601   4.028   8.519  0.0818  0.5068  0.0164
  171SOPE  H16R19352   4.495   3.996   8.521 -0.2269  1.4967 -0.1997
  171SOPE  H16S19353   4.627   4.077   8.615  0.8514 -0.0555  0.0989
  171SOPE  C21719354   4.686   3.908   8.502 -0.5449  0.0207 -0.4545
  171SOPE  H17R19355   4.786   3.932   8.543 -1.2946 -3.2980  3.7620
  171SOPE  H17S19356   4.701   3.886   8.394 -0.2643 -0.6847 -0.2786
  171SOPE  C21819357   4.649   3.782   8.588  0.0476 -0.3476 -0.2311
  171SOPE  H18R19358   4.736   3.714   8.600 -0.2576 -0.8328 -0.7170
  171SOPE  H18S19359   4.575   3.726   8.528 -2.1959  2.6812 -0.4126
  171SOPE  H18T19360   4.593   3.815   8.678  0.8417 -2.3971  1.0573
  171SOPE   C3319361   4.796   3.725   7.077  0.3809 -0.0307  0.6329
  171SOPE   H3X19362   4.850   3.688   7.167  1.3529  0.2711  0.1799
  171SOPE   H3Y19363   4.697   3.676   7.076 -0.9423  2.6001 -0.8501
  171SOPE   C3419364   4.759   3.865   7.105 -0.5517  0.1438  0.3130
  171SOPE   H4X19365   4.684   3.888   7.027 -1.9528 -1.9439  1.0101
  171SOPE   H4Y19366   4.848   3.930   7.092 -1.3980  1.0451 -1.0503
  171SOPE   C3519367   4.692   3.878   7.248 -0.2766  0.2981  0.0993
  171SOPE   H5X19368   4.621   3.794   7.263 -0.4638  0.4478  0.0519
  171SOPE   H5Y19369   4.648   3.980   7.248  1.6254  1.1325 -0.4575
  171SOPE   C3619370   4.799   3.880   7.359 -0.2264  0.3385  0.2583
  171SOPE   H6X19371   4.860   3.973   7.353 -2.5342  1.7755 -1.4857
  171SOPE   H6Y19372   4.849   3.783   7.337 -0.4579  0.2828 -0.0234
  171SOPE   C3719373   4.735   3.875   7.496 -1.0333 -0.1000 -0.8599
  171SOPE   H7X19374   4.648   3.806   7.498 -0.6374 -0.5893  2.0007
  171SOPE   H7Y19375   4.696   3.977   7.517  0.1178  0.1279  0.2223
  171SOPE   C3819376   4.838   3.844   7.599 -0.2643 -0.2736  0.5948
  171SOPE   H8X19377   4.924   3.913   7.587  1.9579 -2.8509  1.1541
  171SOPE   H8Y19378   4.869   3.738   7.589 -0.2401 -0.0216 -2.4438
  171SOPE   C3919379   4.787   3.852   7.750  0.2758  0.2660 -0.5440
  171SOPE   H9X19380   4.706   3.776   7.751 -0.9529  1.5304 -2.5602
  171SOPE   H9Y19381   4.753   3.957   7.763 -0.3887 -0.1805  1.5120
  171SOPE  C31019382   4.885   3.816   7.856 -0.5650 -0.1121  0.0156
  171SOPE  H10X19383   4.975   3.882   7.859 -0.0181 -0.8317 -0.4978
  171SOPE  H10Y19384   4.918   3.715   7.822  0.3044  0.6345 -1.4233
  171SOPE  C31119385   4.826   3.808   7.997 -0.1208  0.1356 -0.0305
  171SOPE  H11X19386   4.741   3.736   7.996 -0.2417  0.2801 -1.8728
  171SOPE  H11Y19387   4.791   3.906   8.035  1.4898  0.6559  0.1355
  171SOPE  C31219388   4.923   3.753   8.105  0.1826 -0.5013  0.1363
  171SOPE  H12X19389   4.987   3.680   8.050 -1.6876 -2.3829  0.4040
  171SOPE  H12Y19390   4.868   3.693   8.181  0.1055 -1.4015 -0.6167
  171SOPE  C31319391   5.005   3.863   8.164 -0.0282  0.1162 -0.5199
  171SOPE  H13X19392   4.932   3.925   8.220 -1.0677  0.3195 -2.0590
  171SOPE  H13Y19393   5.037   3.926   8.078  0.2723 -3.0265 -2.8107
  171SOPE  C31419394   5.127   3.820   8.245  0.0595 -0.1840 -0.4513
  171SOPE  H14X19395   5.215   3.813   8.177 -1.7906  0.7440 -3.0121
  171SOPE  H14Y19396   5.107   3.714   8.271 -0.0284  0.4792  2.3308
  171SOPE  C31519397   5.167   3.909   8.361 -0.6794 -0.0778 -0.0291
  171SOPE  H15X19398   5.121   4.007   8.337 -0.1957 -0.2547 -1.7325
  171SOPE  H15Y19399   5.276   3.930   8.355 -1.1200  2.9168  1.7302
  171SOPE  C31619400   5.126   3.862   8.502  0.0847  0.8993 -0.2151
  171SOPE  H16X19401   5.160   3.761   8.535 -2.3617 -0.4569 -1.6527
  171SOPE  H16Y19402   5.015   3.865   8.508  0.0592  0.3558 -0.3826
  171SOPE  C31719403   5.170   3.965   8.613  1.2132  0.5765  0.7292
  171SOPE  H17X19404   5.097   3.961   8.697  1.2912 -0.9763  0.7326
  171SOPE  H17Y19405   5.181   4.069   8.576 -1.2310  0.8167  0.5747
  171SOPE  C31819406   5.298   3.926   8.690  0.1634 -0.4166  0.8078
  171SOPE  H18X19407   5.391   3.923   8.630  1.0638 -0.2240  2.1598
  171SOPE  H18Y19408   5.294   3.824   8.734  0.3953 -0.5259  0.5784
  171SOPE  H18Z19409   5.320   3.993   8.776 -1.6530 -0.1994  1.1186
  172SOPE     N19410   5.815   5.113   6.323  0.5194 -0.2687 -0.1516
  172SOPE   HN119411   5.807   5.035   6.255 -1.6135  0.5659 -0.8949
  172SOPE   HN219412   5.775   5.196   6.274  1.0471  1.0521  1.6018
  172SOPE   HN319413   5.918   5.113   6.341  0.3126 -0.2693  1.0717
  172SOPE   C1219414   5.749   5.076   6.447 -0.0976  0.5108 -0.4632
  172SOPE  H12A19415   5.778   4.971   6.471 -0.0739  0.5165 -0.4688
  172SOPE  H12B19416   5.641   5.074   6.420  0.3648  1.3420 -2.4061
  172SOPE   C1119417   5.765   5.172   6.566  0.0585 -0.3133 -0.3259
  172SOPE  H11A19418   5.870   5.156   6.598  1.1474  0.0804 -3.5868
  172SOPE  H11B19419   5.689   5.140   6.641 -0.6342 -3.8402 -2.4173
  172SOPE     P19420   5.602   5.375   6.527 -0.0077 -0.3501 -0.1823
  172SOPE   O1319421   5.517   5.300   6.429 -0.5277  0.0449  0.7625
  172SOPE   O1419422   5.619   5.517   6.496 -0.6101  0.5405 -0.4496
  172SOPE   O1219423   5.738   5.308   6.525 -0.1717  0.3861  0.1261
  172SOPE   O1119424   5.534   5.354   6.670 -0.2395 -0.5442  0.1079
  172SOPE    C119425   5.590   5.391   6.792 -0.9459  0.3127 -0.4203
  172SOPE    HA19426   5.700   5.399   6.787 -0.9467 -0.4297 -1.9844
  172SOPE    HB19427   5.568   5.321   6.876 -0.7329  0.1585 -0.4920
  172SOPE    C219428   5.535   5.530   6.842  0.1443 -0.1926 -0.7155
  172SOPE    HS19429   5.602   5.609   6.803  1.7175  0.0268  2.2918
  172SOPE   O2119430   5.562   5.537   6.984 -0.3009  0.0117  0.0028
  172SOPE   C2119431   5.488   5.480   7.085 -0.8678  0.6451  0.3117
  172SOPE   O2219432   5.393   5.411   7.067 -0.1054  0.1424 -0.2234
  172SOPE   C2219433   5.543   5.521   7.225  0.6296 -0.7514  0.3031
  172SOPE   H2R19434   5.561   5.631   7.231  0.3102 -0.8137  2.9569
  172SOPE   H2S19435   5.646   5.481   7.220  0.9620  0.2624 -1.3610
  172SOPE    C319436   5.387   5.545   6.816  0.8213  0.4917  0.1605
  172SOPE    HX19437   5.324   5.458   6.845 -0.1201  0.9642 -0.4675
  172SOPE    HY19438   5.369   5.544   6.707 -2.8814 -1.7571  0.6975
  172SOPE   O3119439   5.319   5.652   6.885 -0.1709  0.3885  0.2907
  172SOPE   C3119440   5.329   5.769   6.830  0.1361 -0.1893 -0.2995
  172SOPE   O3219441   5.377   5.796   6.721  0.0219  0.2679  0.3172
  172SOPE   C3219442   5.277   5.879   6.927 -0.1922  1.1039 -0.1576
  172SOPE   H2X19443   5.166   5.870   6.933 -0.0331 -1.5986 -0.5239
  172SOPE   H2Y19444   5.309   5.974   6.879  1.1077  1.1022  0.6863
  172SOPE   C2319445   5.455   5.477   7.345 -0.2255  0.8941 -0.2231
  172SOPE   H3R19446   5.428   5.370   7.331 -0.2026  0.9515 -0.7098
  172SOPE   H3S19447   5.366   5.542   7.358  0.3712  1.8049 -0.6593
  172SOPE   C2419448   5.539   5.476   7.473 -0.0785  0.6255 -0.1546
  172SOPE   H4R19449   5.641   5.433   7.463 -0.4158  0.0512 -1.2205
  172SOPE   H4S19450   5.560   5.579   7.508  1.7237  1.1480 -2.6072
  172SOPE   C2519451   5.475   5.390   7.584  0.4820 -0.0741  0.1491
  172SOPE   H5R19452   5.370   5.422   7.602 -0.0683 -1.7327  0.0156
  172SOPE   H5S19453   5.477   5.282   7.557 -2.5589 -0.3675  0.8841
  172SOPE   C2619454   5.551   5.404   7.718 -0.0303 -0.3546  0.3727
  172SOPE   H6R19455   5.654   5.363   7.709  0.9979  1.5863  2.5330
  172SOPE   H6S19456   5.561   5.512   7.743  0.8101  0.6491 -3.9825
  172SOPE   C2719457   5.497   5.332   7.845  0.2651 -0.2997  0.1194
  172SOPE   H7R19458   5.387   5.345   7.838  0.6333  2.0891 -2.4043
  172SOPE   H7S19459   5.530   5.226   7.852  0.5513 -0.3650 -1.8746
  172SOPE   C2819460   5.544   5.401   7.980  0.8697 -0.5840 -0.7173
  172SOPE   H8R19461   5.527   5.510   7.965  1.9100 -0.4374 -0.8919
  172SOPE   H8S19462   5.477   5.369   8.063  0.1163  1.3774 -0.5392
  172SOPE   C2919463   5.688   5.379   8.008  0.6417 -0.2328 -0.0451
  172SOPE   H9119464   5.748   5.419   7.925  0.4650  0.1261 -0.0041
  172SOPE  C21019465   5.735   5.310   8.114 -0.8877 -0.3747  0.2882
  172SOPE  H10119466   5.844   5.322   8.131 -0.8590  0.2026 -0.3233
  172SOPE  C21119467   5.667   5.235   8.232  0.0955 -0.5859  0.0886
  172SOPE  H11R19468   5.691   5.126   8.233  0.7902 -0.4770 -2.2377
  172SOPE  H11S19469   5.558   5.229   8.215 -0.3849  0.6954  2.5343
  172SOPE  C21219470   5.682   5.295   8.373  0.6612 -1.0074  0.5635
  172SOPE  H12R19471   5.625   5.389   8.385  1.4222 -0.6654  1.5204
  172SOPE  H12S19472   5.790   5.320   8.385  0.9816 -2.1039  0.0766
  172SOPE  C21319473   5.630   5.191   8.469  0.1417 -0.8936  0.1459
  172SOPE  H13R19474   5.706   5.110   8.477  2.1550  0.9961  0.7671
  172SOPE  H13S19475   5.543   5.136   8.429 -0.0255 -1.0481  0.7133
  172SOPE  C21419476   5.607   5.249   8.607  0.5104  1.4141  0.0205
  172SOPE  H14R19477   5.517   5.314   8.599 -0.5740 -0.1371 -0.6834
  172SOPE  H14S19478   5.690   5.312   8.646 -0.3381  0.6196  3.2657
  172SOPE  C21519479   5.595   5.149   8.724 -0.4626 -0.2378  0.2487
  172SOPE  H15R19480   5.661   5.060   8.712 -0.9864 -0.6232  0.2521
  172SOPE  H15S19481   5.491   5.112   8.717 -0.5278 -0.3773  1.7888
  172SOPE  C21619482   5.631   5.201   8.863 -0.1908  0.8958  0.0759
  172SOPE  H16R19483   5.558   5.284   8.875  2.3002  3.2763 -0.6725
  172SOPE  H16S19484   5.733   5.245   8.855  0.1121 -0.1791 -2.4318
  172SOPE  C21719485   5.612   5.099   8.972 -0.1740 -0.0206  0.2615
  172SOPE  H17R19486   5.655   5.007   8.928 -1.5943 -0.5777  0.0405
  172SOPE  H17S19487   5.505   5.072   8.983  0.2241 -1.3026  1.1967
  172SOPE  C21819488   5.681   5.133   9.105 -0.7909 -0.2203  0.2299
  172SOPE  H18R19489   5.632   5.224   9.145 -1.8980 -1.0895  0.8812
  172SOPE  H18S19490   5.789   5.158   9.100 -0.5264 -1.4636 -0.4159
  172SOPE  H18T19491   5.679   5.054   9.184  1.9474  0.3291  0.8992
  172SOPE   C3319492   5.329   5.876   7.069 -0.8345 -0.3258 -0.7705
  172SOPE   H3X19493   5.306   5.779   7.118 -1.4234  0.4741  0.5818
  172SOPE   H3Y19494   5.270   5.949   7.129 -1.2247 -0.5081 -0.9271
  172SOPE   C3419495   5.482   5.912   7.085 -0.2817  0.4987  0.8720
  172SOPE   H4X19496   5.511   6.005   7.032 -1.2327  0.8081  0.8906
  172SOPE   H4Y19497   5.544   5.835   7.034  1.7663  1.9405  1.1215
  172SOPE   C3519498   5.530   5.926   7.234 -0.0125  0.0745 -0.1636
  172SOPE   H5X19499   5.495   5.833   7.282  0.2528  0.5008  0.8609
  172SOPE   H5Y19500   5.482   6.016   7.279  1.7607  1.1752 -0.4297
  172SOPE   C3619501   5.681   5.928   7.256  0.2279 -0.0628 -0.3572
  172SOPE   H6X19502   5.712   6.020   7.202  0.9351 -0.1368 -0.0846
  172SOPE   H6Y19503   5.729   5.835   7.221 -3.3229 -0.7902 -3.5832
  172SOPE   C3719504   5.727   5.953   7.399  0.0611 -0.5767 -0.0471
  172SOPE   H7X19505   5.695   6.052   7.439  1.4366 -1.8332  4.5169
  172SOPE   H7Y19506   5.836   5.960   7.420  0.4172  0.5009 -2.1431
  172SOPE   C3819507   5.681   5.829   7.484  0.7540  0.1821 -0.0125
  172SOPE   H8X19508   5.719   5.740   7.431 -1.4222  0.7233 -2.5768
  172SOPE   H8Y19509   5.570   5.829   7.480  0.7940 -1.2679 -1.2008
  172SOPE   C3919510   5.725   5.852   7.628  0.5512  0.0974  0.5228
  172SOPE   H9X19511   5.689   5.952   7.659 -0.0487 -0.3007  1.1154
  172SOPE   H9Y19512   5.835   5.860   7.634  0.7148 -0.7367 -1.1141
  172SOPE  C31019513   5.682   5.746   7.730 -0.2831 -0.6643  0.1424
  172SOPE  H10X19514   5.709   5.643   7.701  3.0821  0.0919  0.4336
  172SOPE  H10Y19515   5.571   5.747   7.731 -0.2892 -1.0234 -0.2952
  172SOPE  C31119516   5.728   5.781   7.878 -0.2970  0.3681 -0.0034
  172SOPE  H11X19517   5.682   5.705   7.944 -1.0920  0.6991 -0.1638
  172SOPE  H11Y19518   5.675   5.869   7.920 -2.6244 -0.9804 -0.0057
  172SOPE  C31219519   5.882   5.794   7.898 -0.4811  0.3277 -0.5653
  172SOPE  H12X19520   5.903   5.900   7.871 -1.3168  0.8164  0.6048
  172SOPE  H12Y19521   5.923   5.717   7.831 -0.3208  0.2123 -0.3351
  172SOPE  C31319522   5.940   5.759   8.037 -0.4839  0.3213 -1.1809
  172SOPE  H13X19523   6.044   5.799   8.030 -0.9947  1.8396 -0.4086
  172SOPE  H13Y19524   5.930   5.649   8.047 -0.2874  0.3995  0.0178
  172SOPE  C31419525   5.874   5.831   8.159  0.0901  0.6577 -0.3491
  172SOPE  H14X19526   5.771   5.790   8.166  0.1913  0.0454 -2.3543
  172SOPE  H14Y19527   5.869   5.940   8.135  1.0732  0.5956 -0.8594
  172SOPE  C31519528   5.936   5.803   8.301 -0.2532  0.3400 -0.0869
  172SOPE  H15X19529   5.905   5.874   8.381  2.6849 -0.2454  1.6316
  172SOPE  H15Y19530   6.046   5.810   8.295 -0.3588  2.3696  0.0200
  172SOPE  C31619531   5.890   5.667   8.361  0.3823 -0.6964 -0.0105
  172SOPE  H16X19532   5.931   5.582   8.303 -1.7129 -2.2860  0.7868
  172SOPE  H16Y19533   5.781   5.648   8.349  0.7192 -3.5268  1.0139
  172SOPE  C31719534   5.932   5.653   8.508 -0.2526 -0.2666 -0.2366
  172SOPE  H17X19535   5.911   5.552   8.547  0.5447 -0.1343  0.5517
  172SOPE  H17Y19536   5.865   5.727   8.557  0.2761  0.5278 -0.6860
  172SOPE  C31819537   6.075   5.682   8.551  1.1623 -0.3267  1.2160
  172SOPE  H18X19538   6.095   5.631   8.648  2.0703 -0.5978  0.8934
  172SOPE  H18Y19539   6.085   5.793   8.554 -0.0223 -0.1239 -0.9770
  172SOPE  H18Z19540   6.142   5.649   8.469  0.1350  0.9479 -0.1494
  173SAPI   C1219541   6.505   2.594  10.846 -0.3061 -0.5854 -0.5341
  173SAPI    H219542   6.474   2.524  10.765  0.0440 -1.9860  0.5186
  173SAPI    O219543   6.526   2.723  10.785 -0.5103  0.3296 -0.5221
  173SAPI   HO219544   6.569   2.710  10.700  0.1172  1.3233 -0.3589
  173SAPI   C1319545   6.388   2.600  10.942 -0.6579 -0.0643  0.4826
  173SAPI    H319546   6.374   2.498  10.984  1.1912 -0.3542  0.4590
  173SAPI    O319547   6.272   2.633  10.872 -0.0134  0.5091 -0.6544
  173SAPI   HO319548   6.264   2.728  10.863 -1.4775  0.4845  0.2023
  173SAPI   C1419549   6.424   2.698  11.060 -0.0422  0.0736 -1.1581
  173SAPI    H419550   6.436   2.798  11.014 -0.8898 -0.7355 -3.1999
  173SAPI    O419551   6.319   2.706  11.150 -0.2948  0.2212 -0.0729
  173SAPI   HO419552   6.251   2.769  11.125  1.1584  1.6915 -0.2977
  173SAPI   C1519553   6.558   2.654  11.129  0.8419 -0.1962 -0.6374
  173SAPI    H519554   6.539   2.556  11.178  2.2213  1.3739  3.2740
  173SAPI    O519555   6.590   2.743  11.231  0.1300  0.0721  0.2099
  173SAPI   HO519556   6.655   2.698  11.285  1.9055  0.0749 -1.8427
  173SAPI   C1619557   6.672   2.639  11.022  0.7589 -0.0080 -0.4097
  173SAPI    H619558   6.698   2.741  10.986  2.8618  0.4897  2.3251
  173SAPI    O619559   6.782   2.579  11.090  0.3436  0.4690 -0.2646
  173SAPI   HO619560   6.855   2.623  11.044 -1.4935  1.1411 -2.6201
  173SAPI   C1119561   6.625   2.540  10.916 -0.3290  0.7876  0.2399
  173SAPI    H119562   6.593   2.439  10.950  0.9789 -0.9349 -3.3742
  173SAPI     P19563   6.775   2.394  10.739  0.1898 -0.0576  0.0520
  173SAPI   O1319564   6.741   2.277  10.819  0.3708 -0.5996 -0.1346
  173SAPI   O1419565   6.916   2.417  10.707  0.4024  0.5204  0.0204
  173SAPI   O1219566   6.724   2.528  10.814  0.7160  0.1792 -0.5750
  173SAPI   O1119567   6.673   2.394  10.615 -0.2847 -0.2306 -0.1329
  173SAPI    C119568   6.699   2.475  10.499 -0.6121  0.1247  0.7595
  173SAPI    HA19569   6.595   2.482  10.459 -0.6865 -1.9201  0.5294
  173SAPI    HB19570   6.734   2.573  10.538  0.6089 -0.8773  2.2470
  173SAPI    C219571   6.794   2.399  10.404 -0.0837  0.2184 -0.0400
  173SAPI    HS19572   6.894   2.395  10.452 -0.5542  0.9896  1.0270
  173SAPI   O2119573   6.783   2.474  10.284  0.3117  0.0733  0.6843
  173SAPI   C2119574   6.861   2.582  10.285 -0.4228 -0.6918  0.0586
  173SAPI   O2219575   6.939   2.617  10.370 -0.3772 -0.4999 -0.1661
  173SAPI   C2219576   6.858   2.650  10.143 -0.2728 -0.7246  0.2750
  173SAPI   H2R19577   6.766   2.713  10.142 -0.1406 -0.5300  0.3283
  173SAPI   H2S19578   6.944   2.717  10.122 -1.0570 -0.1757 -1.2660
  173SAPI    C319579   6.748   2.252  10.369  0.4608 -0.6984 -0.0106
  173SAPI    HX19580   6.638   2.262  10.374  0.5157  0.1471 -0.3154
  173SAPI    HY19581   6.782   2.181  10.448 -2.2245 -1.3643  0.5797
  173SAPI   O3119582   6.789   2.202  10.238 -0.2455 -0.5223  0.2129
  173SAPI   C3119583   6.918   2.184  10.210  0.2618  0.6378 -0.1679
  173SAPI   O3219584   7.004   2.211  10.295 -0.7498  0.0782 -0.3894
  173SAPI   C3219585   6.929   2.104  10.085 -0.0328 -0.7538 -0.1068
  173SAPI   H2X19586   6.834   2.057  10.052  0.0523 -0.7614 -0.3417
  173SAPI   H2Y19587   6.990   2.016  10.115 -1.1578 -1.0467  1.3611
  173SAPI   C2319588   6.858   2.545  10.025  0.0012 -0.1121  0.4268
  173SAPI   H3R19589   6.768   2.480  10.032 -0.5924  0.5869 -0.4396
  173SAPI   H3S19590   6.946   2.481  10.043 -0.2926 -0.7566 -0.3760
  173SAPI   C2419591   6.855   2.605   9.888 -0.7898  0.2420  0.3812
  173SAPI   H4R19592   6.941   2.675   9.874  1.7077 -2.6053  0.8822
  173SAPI   H4S19593   6.756   2.655   9.878 -0.7204  0.1676 -0.6935
  173SAPI   C2519594   6.847   2.500   9.779  0.3146 -0.2636  0.2287
  173SAPI   H5R19595   6.787   2.411   9.806  0.4047  0.6203  3.5060
  173SAPI   C2619596   6.914   2.497   9.656 -0.2405 -0.4439 -0.2634
  173SAPI   H6R19597   6.886   2.416   9.586 -1.0832  0.6143 -1.1731
  173SAPI   C2719598   7.016   2.594   9.603  0.3892 -0.1043  0.0768
  173SAPI   H7R19599   7.063   2.653   9.685 -0.2394  0.5973 -0.0623
  173SAPI   H7S19600   6.958   2.666   9.540 -0.4970  1.4484  2.5852
  173SAPI   C2819601   7.126   2.524   9.522  0.1087  0.1595  0.4126
  173SAPI   H8R19602   7.169   2.449   9.591  1.5171 -0.8646 -1.5476
  173SAPI   C2919603   7.150   2.532   9.389  0.1965 -0.3405 -0.3807
  173SAPI   H9R19604   7.225   2.461   9.351 -1.2900 -2.7413  0.9777
  173SAPI  C21019605   7.076   2.609   9.283 -0.0544  0.2675  0.3406
  173SAPI  H10R19606   7.113   2.713   9.269  0.3049 -0.0227 -0.9287
  173SAPI  H10S19607   6.966   2.620   9.295  0.2940  2.2408  1.9355
  173SAPI  C21119608   7.078   2.537   9.148 -0.1669  0.1266  0.1982
  173SAPI  H11R19609   7.002   2.458   9.136 -0.0324  0.0229  0.0212
  173SAPI  C21219610   7.132   2.578   9.033  0.1382 -0.5565 -0.2032
  173SAPI  H12R19611   7.123   2.522   8.939 -3.1230 -0.2447 -0.1333
  173SAPI  C21319612   7.221   2.702   9.011  0.2952  0.0656  0.4681
  173SAPI  H13R19613   7.327   2.669   9.019 -0.2858 -1.8004  0.9409
  173SAPI  H13S19614   7.205   2.777   9.091  2.2662  0.4669  0.5115
  173SAPI  C21419615   7.187   2.757   8.877  0.4080 -0.2845  0.8337
  173SAPI  H14R19616   7.081   2.740   8.853  1.0271 -1.5420 -1.2077
  173SAPI  C21519617   7.276   2.801   8.783 -0.2539  0.5164  0.2727
  173SAPI  H15R19618   7.244   2.805   8.678  1.9442 -2.4419 -0.5876
  173SAPI  C21619619   7.422   2.823   8.791 -0.4652 -0.9161  0.1360
  173SAPI  H16R19620   7.473   2.741   8.735 -2.2250 -1.3871 -0.8066
  173SAPI  H16S19621   7.462   2.814   8.894  0.7561 -1.3474 -0.3588
  173SAPI  C21719622   7.462   2.969   8.756  0.0366 -0.0066  0.5351
  173SAPI  H17R19623   7.462   3.037   8.843 -0.0056  1.0311 -0.2694
  173SAPI  H17S19624   7.374   3.007   8.701 -0.1956 -2.5465 -0.9630
  173SAPI  C21819625   7.601   2.972   8.691 -0.0964  0.9261  0.7051
  173SAPI  H18R19626   7.664   2.922   8.768  0.0880 -0.3437 -0.2423
  173SAPI  H18S19627   7.634   3.077   8.676  0.3923  0.3574 -2.7242
  173SAPI  C21919628   7.622   2.893   8.558  0.5074  0.3822 -0.3116
  173SAPI  H19R19629   7.531   2.874   8.497  1.1988  0.0253 -1.2487
  173SAPI  H19S19630   7.667   2.797   8.590  1.3987  0.3795 -1.5176
  173SAPI  C22019631   7.738   2.963   8.487  0.7834  0.2159 -0.2732
  173SAPI  H20R19632   7.751   2.924   8.383 -0.4968 -1.4918  0.1894
  173SAPI  H20S19633   7.832   2.957   8.547 -1.0137 -3.0522  2.3805
  173SAPI  H20T19634   7.715   3.071   8.478  1.7922  0.5053  0.4494
  173SAPI   C3319635   7.001   2.181   9.974 -0.1487 -0.2576  0.0656
  173SAPI   H3X19636   7.104   2.196  10.013 -0.9935  0.3734  2.1325
  173SAPI   H3Y19637   6.948   2.276   9.954 -1.6690 -1.4188 -1.6365
  173SAPI   C3419638   7.011   2.097   9.855  0.4672  1.0790 -0.7783
  173SAPI   H4X19639   6.908   2.071   9.821 -0.2219  0.1890  1.8479
  173SAPI   H4Y19640   7.077   2.009   9.868 -0.8275  0.4775  2.2664
  173SAPI   C3519641   7.075   2.167   9.737  0.5133 -0.4640  0.3671
  173SAPI   H5X19642   7.181   2.187   9.765 -0.5293  1.5806  3.1383
  173SAPI   H5Y19643   7.028   2.266   9.717 -0.4509 -0.4739  2.4513
  173SAPI   C3619644   7.073   2.076   9.612  0.1055  0.2836 -0.3166
  173SAPI   H6X19645   6.972   2.034   9.588 -0.6798  1.4485  0.9198
  173SAPI   H6Y19646   7.129   1.983   9.636 -2.0227 -0.9430  0.0701
  173SAPI   C3719647   7.111   2.157   9.489  0.0875 -0.7282 -0.0227
  173SAPI   H7X19648   7.209   2.206   9.505  0.3172  0.1936 -3.7432
  173SAPI   H7Y19649   7.042   2.240   9.465  0.9649  0.3079  1.0180
  173SAPI   C3819650   7.116   2.082   9.360  0.2384  0.4756  0.0932
  173SAPI   H8X19651   7.037   2.005   9.345 -0.7737  1.8221 -1.7569
  173SAPI   H8Y19652   7.218   2.039   9.362  0.4864  0.8997 -2.0444
  173SAPI   C3919653   7.104   2.174   9.240  0.5307 -0.9184  1.1439
  173SAPI   H9X19654   7.164   2.266   9.255 -0.6303 -0.1633  1.1756
  173SAPI   H9Y19655   6.998   2.209   9.237  1.3728  1.8075  2.0931
  173SAPI  C31019656   7.117   2.092   9.112 -0.3315  0.5550  0.1316
  173SAPI  H10X19657   7.040   2.014   9.097 -0.5901  1.2037 -2.0380
  173SAPI  H10Y19658   7.217   2.049   9.135 -0.3007 -0.2625 -1.3993
  173SAPI  C31119659   7.129   2.178   8.986 -0.5446 -0.0709  0.0224
  173SAPI  H11X19660   7.205   2.257   9.005 -0.7944 -0.4263  2.6912
  173SAPI  H11Y19661   7.030   2.226   8.973 -0.8977 -1.1145 -1.1766
  173SAPI  C31219662   7.178   2.110   8.865  0.5827  0.6655 -0.2330
  173SAPI  H12X19663   7.105   2.028   8.844  1.4547 -0.0471 -0.4810
  173SAPI  H12Y19664   7.275   2.063   8.889  0.0822  0.4680  1.4525
  173SAPI  C31319665   7.186   2.207   8.746 -0.3099  0.3910 -0.1751
  173SAPI  H13X19666   7.276   2.269   8.763 -0.4798  0.8019 -0.7619
  173SAPI  H13Y19667   7.098   2.274   8.737 -0.5940 -0.0246 -0.5126
  173SAPI  C31419668   7.200   2.125   8.611  0.0480  0.6419  0.7096
  173SAPI  H14X19669   7.285   2.054   8.624  1.5520  2.5168  1.4357
  173SAPI  H14Y19670   7.230   2.197   8.532 -1.3639  0.5638  0.0861
  173SAPI  C31519671   7.069   2.054   8.560 -0.1090 -0.3465  0.1125
  173SAPI  H15X19672   6.983   2.124   8.551 -0.4497 -0.9052 -1.0814
  173SAPI  H15Y19673   7.047   1.970   8.630 -1.6140 -1.3525 -1.5465
  173SAPI  C31619674   7.090   1.989   8.423 -0.0545 -0.5206  0.8765
  173SAPI  H16X19675   7.033   1.894   8.417  0.1158 -0.6287  0.9679
  173SAPI  H16Y19676   7.200   1.971   8.419  0.1084  0.8425 -2.3584
  173SAPI  C31719677   7.049   2.084   8.301  0.0183 -0.5494  0.0720
  173SAPI  H17X19678   7.091   2.183   8.327 -1.6890  0.1906  0.1034
  173SAPI  H17Y19679   6.939   2.098   8.302 -0.1177 -1.4491 -1.2778
  173SAPI  C31819680   7.092   2.050   8.155  0.4103  0.3272  0.7838
  173SAPI  H18X19681   7.072   2.123   8.074  2.3760 -0.9010 -0.8621
  173SAPI  H18Y19682   7.058   1.950   8.120 -0.4671  0.8904  0.0048
  173SAPI  H18Z19683   7.203   2.056   8.150  0.3132  0.6609 -1.3774
  174SAPI   C1219684   3.064   2.921  11.049 -0.7061  0.2994 -0.0166
  174SAPI    H219685   3.046   2.873  10.950  0.2272  1.0074 -0.5452
  174SAPI    O219686   2.940   2.966  11.102  0.1125 -0.1890 -0.4367
  174SAPI   HO219687   2.874   2.905  11.068  0.0509  1.2371 -3.0292
  174SAPI   C1319688   3.126   2.817  11.137  0.6736 -0.0150 -0.2981
  174SAPI    H319689   3.226   2.799  11.091  0.8339  1.6306 -0.6111
  174SAPI    O319690   3.066   2.687  11.139  0.2690  0.1017  0.6069
  174SAPI   HO319691   3.037   2.667  11.228  2.3082 -2.4880  0.7237
  174SAPI   C1419692   3.137   2.874  11.279 -0.3364  0.0055 -0.1482
  174SAPI    H419693   3.036   2.905  11.314 -1.9201 -1.7393 -2.9137
  174SAPI    O419694   3.191   2.779  11.367  0.2922 -0.5840 -0.7224
  174SAPI   HO419695   3.285   2.771  11.348  0.1776 -2.4500 -0.5380
  174SAPI   C1519696   3.220   3.007  11.277 -1.0055  0.1055  0.4234
  174SAPI    H519697   3.319   2.976  11.238 -1.4062  1.3433 -1.7252
  174SAPI    O519698   3.234   3.072  11.407  0.1278 -0.2499  0.0627
  174SAPI   HO519699   3.150   3.095  11.447 -0.6713 -0.5924 -1.3786
  174SAPI   C1619700   3.169   3.109  11.170  0.3487 -0.3739  0.1522
  174SAPI    H619701   3.070   3.142  11.207  0.1650 -0.4215 -0.2971
  174SAPI    O619702   3.259   3.224  11.175  0.1034 -0.3178  0.1394
  174SAPI   HO619703   3.203   3.302  11.166 -1.0104 -1.2363 -1.0940
  174SAPI   C1119704   3.159   3.041  11.035 -0.8109 -0.9398  0.2957
  174SAPI    H119705   3.255   3.007  10.991 -0.9502  0.2911 -0.9915
  174SAPI     P19706   3.157   3.147  10.781  0.5329  0.1602  0.5087
  174SAPI   O1319707   3.036   3.174  10.706 -0.4413 -0.4357 -0.0153
  174SAPI   O1419708   3.223   3.019  10.750 -0.1256 -0.4568  0.2088
  174SAPI   O1219709   3.106   3.142  10.939 -0.1452  0.3036 -0.3501
  174SAPI   O1119710   3.265   3.261  10.759 -0.0192 -0.2083  0.5506
  174SAPI    C119711   3.226   3.396  10.774  0.3565  0.0989  0.2786
  174SAPI    HA19712   3.145   3.412  10.850  0.5379 -1.3888  0.7962
  174SAPI    HB19713   3.306   3.453  10.825  2.0455 -0.8988 -1.2176
  174SAPI    C219714   3.186   3.461  10.635  0.2718  0.5171 -0.6713
  174SAPI    HS19715   3.125   3.380  10.591  0.6275 -0.3011  0.3265
  174SAPI   O2119716   3.304   3.501  10.572 -0.0090 -0.3092 -0.3419
  174SAPI   C2119717   3.315   3.459  10.447 -0.4479 -0.4106  0.7277
  174SAPI   O2219718   3.240   3.389  10.386 -0.3058 -0.0368  0.2110
  174SAPI   C2219719   3.452   3.505  10.394 -0.4625  0.0516 -0.4723
  174SAPI   H2R19720   3.452   3.612  10.423  3.6812 -0.2023  0.7933
  174SAPI   H2S19721   3.540   3.461  10.445  0.7827  1.3204 -1.4788
  174SAPI    C319722   3.097   3.588  10.651 -0.0328  0.1065 -1.0804
  174SAPI    HX19723   3.127   3.651  10.737 -0.1881 -1.7310  0.3567
  174SAPI    HY19724   3.000   3.561  10.699  0.8880  0.8933  1.2927
  174SAPI   O3119725   3.081   3.667  10.531 -0.3389 -0.5818 -0.4264
  174SAPI   C3119726   2.965   3.652  10.475 -0.4184 -0.3209  0.3561
  174SAPI   O3219727   2.865   3.613  10.528  0.5563 -0.1039  0.4130
  174SAPI   C3219728   2.969   3.689  10.320  0.1835  0.4031  0.3573
  174SAPI   H2X19729   2.887   3.761  10.303 -2.3070 -2.3829  0.3276
  174SAPI   H2Y19730   2.963   3.598  10.257  0.8813  0.9160 -0.4555
  174SAPI   C2319731   3.473   3.466  10.245 -0.0229  0.0437  0.3700
  174SAPI   H3R19732   3.431   3.363  10.240 -0.1968  0.0399  1.7349
  174SAPI   H3S19733   3.579   3.456  10.211 -0.1124 -1.1089  0.4126
  174SAPI   C2419734   3.405   3.548  10.134  0.3040  0.1755 -0.0269
  174SAPI   H4R19735   3.295   3.534  10.138  0.5918 -1.7119  2.3803
  174SAPI   H4S19736   3.442   3.501  10.040  0.9491 -0.4044  0.5046
  174SAPI   C2519737   3.461   3.692  10.133  0.0983 -0.2698 -0.3019
  174SAPI   H5R19738   3.448   3.737  10.233  0.3692 -1.4824  0.2826
  174SAPI   C2619739   3.511   3.761  10.029 -0.0882  0.4853  0.7350
  174SAPI   H6R19740   3.553   3.859  10.055  2.2257 -0.2345 -0.1643
  174SAPI   C2719741   3.534   3.706   9.883 -0.4480  0.0109 -0.2686
  174SAPI   H7R19742   3.597   3.616   9.897 -1.0210 -0.2455  0.7142
  174SAPI   H7S19743   3.598   3.776   9.824  2.1854 -1.5572  0.6295
  174SAPI   C2819744   3.412   3.658   9.807  0.7794 -0.4900 -0.2677
  174SAPI   H8R19745   3.330   3.628   9.875 -0.6858  1.6855 -1.0122
  174SAPI   C2919746   3.387   3.656   9.677  0.2022 -0.1888 -0.5769
  174SAPI   H9R19747   3.294   3.620   9.631  0.3002 -1.3584  0.1194
  174SAPI  C21019748   3.491   3.694   9.577 -0.1502 -0.0625 -0.2861
  174SAPI  H10R19749   3.534   3.599   9.541  0.6723  0.6566 -1.2305
  174SAPI  H10S19750   3.582   3.751   9.606 -1.4324  4.0422 -3.7590
  174SAPI  C21119751   3.427   3.774   9.466 -0.4477  0.3878  0.1287
  174SAPI  H11R19752   3.395   3.877   9.484  0.4340  0.7315 -0.2503
  174SAPI  C21219753   3.426   3.738   9.336 -0.1787  0.5384 -0.4450
  174SAPI  H12R19754   3.373   3.807   9.269 -1.6473 -1.0395 -0.9278
  174SAPI  C21319755   3.484   3.608   9.272 -0.1705  1.0570 -0.6545
  174SAPI  H13R19756   3.505   3.521   9.337  0.1256 -0.2834 -2.5120
  174SAPI  H13S19757   3.586   3.629   9.232 -0.1920  0.5308 -0.9770
  174SAPI  C21419758   3.394   3.560   9.169  0.7453  0.5317 -0.0535
  174SAPI  H14R19759   3.323   3.484   9.204  2.6765 -1.9916 -1.4683
  174SAPI  C21519760   3.383   3.597   9.043 -0.2546  0.1966 -1.2399
  174SAPI  H15R19761   3.312   3.547   8.974  1.7593 -0.6973 -2.7079
  174SAPI  C21619762   3.470   3.703   8.976 -1.1597 -0.2101 -0.4490
  174SAPI  H16R19763   3.569   3.657   8.955 -1.0120 -1.1894  2.1686
  174SAPI  H16S19764   3.492   3.778   9.055 -1.0091  0.6150 -1.2654
  174SAPI  C21719765   3.424   3.752   8.843  0.5035  0.0391  0.8640
  174SAPI  H17R19766   3.316   3.778   8.840  0.7508  1.1031  1.0857
  174SAPI  H17S19767   3.434   3.662   8.779  0.8322  0.0251  0.9334
  174SAPI  C21819768   3.512   3.859   8.771 -0.3981 -0.2727  0.6784
  174SAPI  H18R19769   3.504   3.948   8.837 -1.0329  0.6578 -0.6117
  174SAPI  H18S19770   3.477   3.882   8.668 -3.4108 -1.1924  1.4506
  174SAPI  C21919771   3.659   3.819   8.772  0.2762  0.1451 -0.3196
  174SAPI  H19R19772   3.668   3.709   8.760  1.9112  0.1838  0.3318
  174SAPI  H19S19773   3.691   3.848   8.875 -3.1645  3.1522 -0.0030
  174SAPI  C22019774   3.755   3.887   8.675  0.2691 -0.2137 -0.5238
  174SAPI  H20R19775   3.739   3.997   8.683 -0.5923 -0.4131  0.5937
  174SAPI  H20S19776   3.727   3.857   8.572  2.7211 -2.1889 -0.6542
  174SAPI  H20T19777   3.861   3.866   8.700  0.5215  1.0024 -0.5011
  174SAPI   C3319778   3.105   3.742  10.278 -1.2646  0.3211 -0.0966
  174SAPI   H3X19779   3.177   3.657  10.284 -4.7555 -2.5856  2.8582
  174SAPI   H3Y19780   3.148   3.814  10.351 -0.5887  1.1885 -1.3325
  174SAPI   C3419781   3.100   3.793  10.129  0.6086 -0.4530 -0.5524
  174SAPI   H4X19782   3.198   3.824  10.089  1.3039 -0.4647  1.1069
  174SAPI   H4Y19783   3.039   3.886  10.133  1.5245  0.1971 -1.7964
  174SAPI   C3519784   3.021   3.711  10.027 -0.3195 -0.1469 -0.1048
  174SAPI   H5X19785   2.917   3.696  10.064 -1.1027  1.6484 -1.4908
  174SAPI   H5Y19786   3.076   3.614  10.027 -0.9490 -0.5043 -0.2475
  174SAPI   C3619787   3.015   3.771   9.886 -0.2506  0.3360  0.8731
  174SAPI   H6X19788   2.981   3.687   9.822  0.1147  0.8319  0.0301
  174SAPI   H6Y19789   3.118   3.789   9.848 -0.5171 -1.0035 -0.5542
  174SAPI   C3719790   2.932   3.900   9.866 -0.5479 -0.7110 -0.0167
  174SAPI   H7X19791   2.987   3.978   9.923 -1.8683  1.7313 -1.9494
  174SAPI   H7Y19792   2.832   3.878   9.911 -0.5247 -0.4482  0.1637
  174SAPI   C3819793   2.918   3.949   9.723 -0.5090 -0.5246 -0.7466
  174SAPI   H8X19794   2.898   4.058   9.731 -0.8011 -0.4715 -2.1095
  174SAPI   H8Y19795   2.827   3.898   9.685 -1.4039  0.5077 -0.0400
  174SAPI   C3919796   3.029   3.925   9.630  0.7685  0.3336  0.6394
  174SAPI   H9X19797   3.087   3.831   9.646  1.6479  0.7655  0.0283
  174SAPI   H9Y19798   3.110   4.001   9.627 -0.0478  1.1301 -1.2608
  174SAPI  C31019799   2.969   3.917   9.487 -0.5133  0.2346 -0.0978
  174SAPI  H10X19800   2.903   4.005   9.472  0.1789  1.0096  1.2589
  174SAPI  H10Y19801   2.891   3.839   9.475 -0.9683  1.1424 -3.4459
  174SAPI  C31119802   3.078   3.883   9.382  0.1093 -0.1927  0.0199
  174SAPI  H11X19803   3.126   3.786   9.407 -1.1982 -0.7982  0.2055
  174SAPI  H11Y19804   3.147   3.968   9.403  0.4671 -0.4820  0.0142
  174SAPI  C31219805   3.029   3.894   9.232 -0.0330 -0.0323  0.1253
  174SAPI  H12X19806   3.088   3.965   9.171  0.3981 -0.6255 -0.1589
  174SAPI  H12Y19807   2.926   3.935   9.233  0.8045  2.1038  0.3052
  174SAPI  C31319808   3.018   3.755   9.171  0.3391  0.5107  0.0745
  174SAPI  H13X19809   2.930   3.704   9.216 -0.3253  0.3185 -1.4456
  174SAPI  H13Y19810   3.104   3.694   9.207 -0.0230  0.0010  0.0887
  174SAPI  C31419811   3.008   3.745   9.018  0.4409 -0.2466 -0.6883
  174SAPI  H14X19812   2.952   3.655   8.985  0.5646 -0.1546 -1.1468
  174SAPI  H14Y19813   3.110   3.751   8.974  1.5239  2.1106  1.9463
  174SAPI  C31519814   2.945   3.870   8.956 -0.0337  0.0629  0.1140
  174SAPI  H15X19815   2.999   3.962   8.986 -0.7650  1.4131 -2.6545
  174SAPI  H15Y19816   2.842   3.889   8.994  0.1253  2.0215 -0.3870
  174SAPI  C31619817   2.941   3.858   8.799  0.4910  0.0046 -0.4288
  174SAPI  H16X19818   2.877   3.943   8.766 -0.1930 -0.3608 -0.0678
  174SAPI  H16Y19819   2.892   3.761   8.776 -2.6110  0.9430  1.9040
  174SAPI  C31719820   3.076   3.863   8.724  0.1321 -0.3474  0.5355
  174SAPI  H17X19821   3.056   3.862   8.615  0.9274  1.2655  0.3575
  174SAPI  H17Y19822   3.129   3.769   8.751  0.1376 -0.6934 -0.6674
  174SAPI  C31819823   3.160   3.987   8.759 -0.0250  0.1166  0.2209
  174SAPI  H18X19824   3.199   3.991   8.862  0.1735  0.6653  0.1236
  174SAPI  H18Y19825   3.097   4.071   8.722  0.1813 -1.4223 -3.9019
  174SAPI  H18Z19826   3.256   3.977   8.705  0.4820  1.5016  0.8583
  175SAPI   C1219827   5.741   3.198   6.108  0.1599 -0.6806  0.3742
  175SAPI    H219828   5.841   3.244   6.117  0.1420 -0.7953  1.2372
  175SAPI    O219829   5.681   3.239   5.989 -0.0631 -0.2030 -0.0343
  175SAPI   HO219830   5.620   3.309   6.013 -0.6500 -0.7177 -0.0146
  175SAPI   C1319831   5.757   3.045   6.112  0.4954  0.2631 -0.6529
  175SAPI    H319832   5.800   3.017   6.210  1.3443  0.6920 -0.8982
  175SAPI    O319833   5.834   2.997   6.007  0.4283 -0.6885 -0.0554
  175SAPI   HO319834   5.926   2.993   6.031  0.2084  1.6488  1.3549
  175SAPI   C1419835   5.610   2.982   6.108 -0.5155 -0.1571  0.0835
  175SAPI    H419836   5.559   3.019   6.016  1.0945  0.6297 -0.5050
  175SAPI    O419837   5.622   2.837   6.103 -0.1024 -0.1627  0.4299
  175SAPI   HO419838   5.663   2.804   6.023 -0.1057  1.5785 -0.3056
  175SAPI   C1519839   5.519   3.031   6.225  0.0197  0.3640 -0.2506
  175SAPI    H519840   5.564   2.988   6.317 -0.4026 -1.7348 -1.0008
  175SAPI    O519841   5.389   2.975   6.201  0.6856 -0.6022  0.2434
  175SAPI   HO519842   5.390   2.886   6.237 -1.3274  0.2436  2.5726
  175SAPI   C1619843   5.516   3.180   6.244 -0.2316 -0.9372 -0.3397
  175SAPI    H619844   5.465   3.215   6.153  0.4355 -1.8723 -1.0801
  175SAPI    O619845   5.439   3.227   6.361  0.3205  0.4498 -0.6736
  175SAPI   HO619846   5.454   3.321   6.356 -0.6689  0.5619 -1.6133
  175SAPI   C1119847   5.658   3.235   6.236  0.1674 -0.0858  0.6507
  175SAPI    H119848   5.713   3.201   6.327 -0.1207 -0.0402  0.8409
  175SAPI     P19849   5.738   3.488   6.307  0.6980 -0.2505  0.5378
  175SAPI   O1319850   5.698   3.625   6.258  0.2192  0.5769 -0.1246
  175SAPI   O1419851   5.879   3.455   6.294 -0.0456 -0.6546  0.1547
  175SAPI   O1219852   5.644   3.376   6.235  0.1600 -0.2837 -0.0092
  175SAPI   O1119853   5.700   3.472   6.462 -0.0082 -0.3956  0.4234
  175SAPI    C119854   5.792   3.490   6.566  0.1526  0.6108 -0.8117
  175SAPI    HA19855   5.872   3.561   6.537 -0.9394  2.8356  1.4670
  175SAPI    HB19856   5.743   3.534   6.656 -1.7635 -3.0778  0.0876
  175SAPI    C219857   5.846   3.352   6.610  0.2661 -0.0720 -0.2599
  175SAPI    HS19858   5.901   3.307   6.524  0.1425 -2.4368  0.8703
  175SAPI   O2119859   5.740   3.260   6.646  0.1840  0.3297 -0.4232
  175SAPI   C2119860   5.771   3.130   6.640  0.2925  0.6512  0.1939
  175SAPI   O2219861   5.879   3.086   6.603  0.1856  0.3206  0.2537
  175SAPI   C2219862   5.640   3.058   6.692 -0.1527  0.3317  0.1985
  175SAPI   H2R19863   5.578   3.121   6.758  0.0953  0.5238  0.2501
  175SAPI   H2S19864   5.580   3.029   6.603  0.9064 -0.0751 -0.3930
  175SAPI    C319865   5.939   3.377   6.726  0.2562 -0.0738 -0.4695
  175SAPI    HX19866   5.874   3.435   6.794  1.0034 -1.5372  1.5413
  175SAPI    HY19867   6.017   3.447   6.690 -0.5911  0.6206 -0.9617
  175SAPI   O3119868   5.997   3.264   6.786  0.6716 -0.2566  0.0402
  175SAPI   C3119869   6.114   3.219   6.743  0.2822 -0.5219 -0.3678
  175SAPI   O3219870   6.187   3.271   6.659  0.1884 -0.5571 -0.6440
  175SAPI   C3219871   6.149   3.081   6.812 -0.2721 -0.1687  0.1348
  175SAPI   H2X19872   6.125   2.997   6.743  1.0011 -1.6300  1.4457
  175SAPI   H2Y19873   6.082   3.085   6.901  1.2538  1.8726  1.2581
  175SAPI   C2319874   5.680   2.918   6.759 -0.2937 -0.4437  0.5214
  175SAPI   H3R19875   5.747   2.861   6.691 -0.9486 -0.9284  0.2775
  175SAPI   H3S19876   5.579   2.873   6.770 -0.3279 -1.0276 -1.9270
  175SAPI   C2419877   5.755   2.927   6.885 -0.9306 -0.3029  0.3429
  175SAPI   H4R19878   5.697   2.982   6.962 -1.6030 -0.3939 -0.0927
  175SAPI   H4S19879   5.851   2.981   6.869 -1.3593  1.1369  2.4118
  175SAPI   C2519880   5.804   2.803   6.944  0.5233 -0.6127 -0.6329
  175SAPI   H5R19881   5.794   2.710   6.887  0.0999 -0.3695 -0.9571
  175SAPI   C2619882   5.873   2.804   7.060 -0.4056 -0.4920  0.4588
  175SAPI   H6R19883   5.912   2.708   7.096  2.2096  1.6400  3.6739
  175SAPI   C2719884   5.900   2.925   7.139  0.4091  0.1813  0.2961
  175SAPI   H7R19885   5.905   3.007   7.064  0.2022 -1.5542 -1.6599
  175SAPI   H7S19886   6.006   2.917   7.171 -0.1023 -0.6504  1.8467
  175SAPI   C2819887   5.805   2.968   7.249 -0.5064 -0.2474  0.2152
  175SAPI   H8R19888   5.752   3.063   7.232  0.1095  0.1035  0.2486
  175SAPI   C2919889   5.783   2.901   7.364 -0.1721 -0.3326 -0.0998
  175SAPI   H9R19890   5.734   2.960   7.443 -1.8525  2.4232 -3.1058
  175SAPI  C21019891   5.843   2.770   7.406  0.1102 -0.3237 -0.2615
  175SAPI  H10R19892   5.940   2.798   7.451 -0.1154  0.0858 -0.0186
  175SAPI  H10S19893   5.887   2.712   7.322  0.5828 -1.2782  0.6366
  175SAPI  C21119894   5.763   2.692   7.502  0.1680  0.7650  0.0831
  175SAPI  H11R19895   5.704   2.615   7.451 -0.4093  1.3943 -0.2029
  175SAPI  C21219896   5.776   2.688   7.636  0.0121  0.6045  0.1748
  175SAPI  H12R19897   5.711   2.620   7.693  1.3370 -0.0707  0.8952
  175SAPI  C21319898   5.862   2.775   7.720 -0.0867  0.2146  0.5260
  175SAPI  H13R19899   5.864   2.878   7.679  1.1601  0.0641  0.2084
  175SAPI  H13S19900   5.963   2.731   7.726  0.1900  0.8621  0.6953
  175SAPI  C21419901   5.813   2.788   7.864  0.2061  0.0193  0.5432
  175SAPI  H14R19902   5.741   2.869   7.877 -1.7994 -1.6810  0.2071
  175SAPI  C21519903   5.845   2.703   7.961 -0.7023 -0.5952 -0.3789
  175SAPI  H15R19904   5.799   2.708   8.060  2.4776  1.4617  1.0818
  175SAPI  C21619905   5.938   2.579   7.960  0.3813  0.7645 -0.1991
  175SAPI  H16R19906   5.959   2.536   7.860 -0.6151  1.2646 -0.6342
  175SAPI  H16S19907   5.876   2.508   8.019 -1.2378  0.7847 -1.8404
  175SAPI  C21719908   6.082   2.591   8.007  0.2661  0.0330 -0.3893
  175SAPI  H17R19909   6.134   2.672   7.952  1.5370 -2.2300 -2.5965
  175SAPI  H17S19910   6.139   2.500   7.979  1.4084  0.9148 -0.9605
  175SAPI  C21819911   6.085   2.607   8.160  0.2394 -0.0179  0.0507
  175SAPI  H18R19912   6.024   2.696   8.189  1.8012  2.3984 -3.6564
  175SAPI  H18S19913   6.188   2.644   8.178  0.5105 -0.2242 -1.0077
  175SAPI  C21919914   6.056   2.484   8.243 -0.2682 -0.0133  0.0894
  175SAPI  H19R19915   6.124   2.401   8.215  0.2658  0.4907 -0.1129
  175SAPI  H19S19916   5.953   2.454   8.214 -1.0602  2.8496 -0.2180
  175SAPI  C22019917   6.060   2.510   8.398 -0.5703 -0.7016  0.1372
  175SAPI  H20R19918   6.160   2.475   8.431 -1.3490 -1.2591  2.0327
  175SAPI  H20S19919   5.982   2.451   8.453  0.2163 -2.3041 -0.4405
  175SAPI  H20T19920   6.054   2.619   8.415 -0.7864 -0.5305 -1.0268
  175SAPI   C3319921   6.293   3.083   6.870 -0.1113 -0.5391  0.4161
  175SAPI   H3X19922   6.302   3.175   6.933  0.2400 -0.0622 -0.3224
  175SAPI   H3Y19923   6.363   3.091   6.784 -2.2524  0.7703 -1.2602
  175SAPI   C3419924   6.325   2.963   6.962 -0.1799 -0.6525 -0.2748
  175SAPI   H4X19925   6.263   2.958   7.054  1.0453  0.1694  0.6112
  175SAPI   H4Y19926   6.433   2.957   6.985 -0.5954 -1.0086  1.7148
  175SAPI   C3519927   6.305   2.833   6.878  0.5702 -0.2012  0.2149
  175SAPI   H5X19928   6.340   2.853   6.775  0.8928 -1.7263  0.0168
  175SAPI   H5Y19929   6.196   2.811   6.873 -0.0039  1.7665  2.7822
  175SAPI   C3619930   6.381   2.711   6.936  0.1840 -0.2517 -0.6025
  175SAPI   H6X19931   6.490   2.729   6.926  0.7345 -2.8474  0.4313
  175SAPI   H6Y19932   6.359   2.621   6.876 -1.0420 -0.2011 -0.2496
  175SAPI   C3719933   6.366   2.696   7.096  0.2373 -0.0028 -0.0233
  175SAPI   H7X19934   6.404   2.791   7.140 -1.5562  0.0905  1.4087
  175SAPI   H7Y19935   6.433   2.614   7.128  0.5733 -0.8578 -2.7488
  175SAPI   C3819936   6.221   2.660   7.135  0.0165 -0.4974  0.3934
  175SAPI   H8X19937   6.186   2.579   7.067  0.8194 -0.0583 -0.5616
  175SAPI   H8Y19938   6.152   2.746   7.122 -0.0680 -0.7633 -0.9355
  175SAPI   C3919939   6.194   2.631   7.283  0.6444 -0.0333  0.0414
  175SAPI   H9X19940   6.096   2.676   7.310  1.3150 -0.3073  3.1138
  175SAPI   H9Y19941   6.262   2.685   7.353  1.2691 -1.6334  0.6911
  175SAPI  C31019942   6.174   2.480   7.315  0.1504  0.8472  0.2801
  175SAPI  H10X19943   6.264   2.422   7.286 -1.3173 -1.1387 -0.4471
  175SAPI  H10Y19944   6.079   2.446   7.267  0.0541  1.0183  0.3488
  175SAPI  C31119945   6.140   2.445   7.457 -0.0565  0.5708 -0.1957
  175SAPI  H11X19946   6.073   2.521   7.502  1.8044  1.6187  0.9008
  175SAPI  H11Y19947   6.236   2.455   7.513 -1.2794 -2.2533  2.5892
  175SAPI  C31219948   6.078   2.307   7.471  0.0302 -0.0932 -0.4606
  175SAPI  H12X19949   6.168   2.243   7.454  2.6176  3.3709 -0.5006
  175SAPI  H12Y19950   6.011   2.294   7.383  0.7073  1.0197 -1.1493
  175SAPI  C31319951   6.029   2.266   7.612  0.2601 -0.1895 -0.2127
  175SAPI  H13X19952   6.094   2.318   7.685  1.9856 -3.3097  0.5701
  175SAPI  H13Y19953   6.053   2.159   7.630 -0.5184 -0.3545 -0.1220
  175SAPI  C31419954   5.871   2.288   7.608  0.2124 -0.7054  0.1180
  175SAPI  H14X19955   5.832   2.250   7.510 -1.5735  1.7062 -0.1611
  175SAPI  H14Y19956   5.835   2.393   7.611 -1.7011 -1.3838  2.8057
  175SAPI  C31519957   5.798   2.210   7.719 -0.1654  0.2414  0.0041
  175SAPI  H15X19958   5.811   2.269   7.812 -1.5106  0.1569  0.2574
  175SAPI  H15Y19959   5.843   2.108   7.724 -0.4466  0.1519  0.8305
  175SAPI  C31619960   5.646   2.196   7.704 -0.5482 -0.4330 -0.0007
  175SAPI  H16X19961   5.621   2.126   7.786  3.4090  0.4906  2.1480
  175SAPI  H16Y19962   5.633   2.144   7.607 -1.0502 -2.5194  1.1637
  175SAPI  C31719963   5.574   2.331   7.724  0.4687 -0.1286 -0.5647
  175SAPI  H17X19964   5.627   2.413   7.671  1.5733 -1.8215 -2.2023
  175SAPI  H17Y19965   5.583   2.361   7.830 -0.3762  0.3646 -0.6357
  175SAPI  C31819966   5.427   2.324   7.687  0.1278  0.7513  0.3362
  175SAPI  H18X19967   5.372   2.258   7.757  0.0903  0.3885 -0.0325
  175SAPI  H18Y19968   5.415   2.274   7.588  0.7959 -0.9058  1.0742
  175SAPI  H18Z19969   5.387   2.427   7.698  1.2181  1.0452  1.6316
  176SAPI   C1219970   6.039   0.739   6.145  0.1613  0.2382 -0.3097
  176SAPI    H219971   5.992   0.639   6.132  1.3099 -0.4953  1.0079
  176SAPI    O219972   6.161   0.725   6.073 -0.3494 -0.5208  0.1584
  176SAPI   HO219973   6.176   0.631   6.059 -1.0352 -0.9232  1.9981
  176SAPI   C1319974   5.944   0.835   6.069 -0.4653  0.2509  0.0689
  176SAPI    H319975   5.845   0.838   6.120 -0.6010 -0.4720 -0.1543
  176SAPI    O319976   5.905   0.783   5.940 -0.1641  0.5087 -0.1023
  176SAPI   HO319977   5.979   0.792   5.880 -0.5195 -1.6250 -0.9433
  176SAPI   C1419978   6.018   0.970   6.058  0.1524  0.0512 -0.3272
  176SAPI    H419979   6.117   0.965   6.007  0.7455 -0.2466  0.8261
  176SAPI    O419980   5.943   1.062   5.973 -0.1798  1.3101 -0.2166
  176SAPI   HO419981   5.866   1.081   6.027  0.6950  0.9092  1.1994
  176SAPI   C1519982   6.046   1.023   6.200 -0.2110  0.0484 -0.7629
  176SAPI    H519983   5.952   1.033   6.258  0.8354 -0.2793  1.0266
  176SAPI    O519984   6.102   1.152   6.193  0.3929  0.2315  0.2562
  176SAPI   HO519985   6.196   1.148   6.174  0.4244 -0.8786  0.5829
  176SAPI   C1619986   6.129   0.925   6.280  0.4288  0.4451 -0.7546
  176SAPI    H619987   6.227   0.921   6.228  0.3947  0.4519 -0.8195
  176SAPI    O619988   6.151   0.966   6.416  0.1612  0.3414 -0.5351
  176SAPI   HO619989   6.205   0.904   6.464  1.6391  2.3229  0.4434
  176SAPI   C1119990   6.057   0.794   6.286  0.1373  0.1973 -0.1501
  176SAPI    H119991   5.955   0.800   6.329  1.2751  1.4720  2.4917
  176SAPI     P19992   6.070   0.557   6.427  0.1538  0.0164 -0.5636
  176SAPI   O1319993   6.172   0.487   6.510 -0.7269 -0.4123  0.0093
  176SAPI   O1419994   6.014   0.475   6.322  0.0193  0.4227  0.4644
  176SAPI   O1219995   6.139   0.699   6.364 -0.1512  0.1523 -0.0436
  176SAPI   O1119996   5.957   0.597   6.530 -0.0427 -0.0686 -0.0080
  176SAPI    C119997   5.998   0.688   6.635  0.0001  0.1500 -0.1449
  176SAPI    HA19998   6.100   0.669   6.675  0.5458 -0.2726 -1.7286
  176SAPI    HB19999   5.983   0.792   6.597 -0.4269 -0.9116 -2.9612
  176SAPI    C220000   5.914   0.678   6.770  0.0154  0.9091  0.0534
  176SAPI    HS20001   5.972   0.614   6.839 -0.8154 -0.2703 -0.3201
  176SAPI   O2120002   5.778   0.628   6.737  0.0679  0.6397  0.3176
  176SAPI   C2120003   5.720   0.555   6.826 -0.4411  1.4262  0.9913
  176SAPI   O2220004   5.768   0.529   6.936 -0.0294 -0.0683  0.0687
  176SAPI   C2220005   5.579   0.518   6.774  0.2901  0.0415  0.0023
  176SAPI   H2R20006   5.535   0.606   6.723 -1.6170 -0.9730 -0.1605
  176SAPI   H2S20007   5.582   0.438   6.697 -1.4923  0.5837 -0.6586
  176SAPI    C320008   5.903   0.813   6.841 -0.2312  0.3741 -0.7346
  176SAPI    HX20009   5.857   0.888   6.774 -0.1530 -0.1325 -1.3578
  176SAPI    HY20010   6.007   0.850   6.854 -0.7800  1.5653  0.4826
  176SAPI   O3120011   5.833   0.804   6.967  0.4395  0.0251  1.0631
  176SAPI   C3120012   5.899   0.782   7.078  1.0093  0.0198 -0.6935
  176SAPI   O3220013   6.023   0.777   7.089 -0.4251  0.2953 -0.4949
  176SAPI   C3220014   5.787   0.767   7.186 -0.1410 -0.5291 -0.0141
  176SAPI   H2X20015   5.715   0.694   7.145  1.2263 -1.6106 -0.5381
  176SAPI   H2Y20016   5.723   0.858   7.183 -2.8832 -2.4008 -0.1710
  176SAPI   C2320017   5.479   0.470   6.887  0.9312 -0.0827  0.5810
  176SAPI   H3R20018   5.463   0.550   6.962 -0.2542  0.8942 -0.6871
  176SAPI   H3S20019   5.519   0.378   6.935  1.7596  0.4116  0.8463
  176SAPI   C2420020   5.344   0.432   6.824  0.0632  0.0563 -0.7149
  176SAPI   H4R20021   5.289   0.370   6.898  2.6807 -1.5844 -0.0809
  176SAPI   H4S20022   5.350   0.367   6.735  0.1586  0.9647 -1.3760
  176SAPI   C2520023   5.267   0.556   6.791  0.1697  0.1927  0.2742
  176SAPI   H5R20024   5.254   0.596   6.689 -0.2057 -2.7495 -0.8789
  176SAPI   C2620025   5.173   0.614   6.868  0.0616  0.0777  0.8348
  176SAPI   H6R20026   5.127   0.711   6.844  0.7199  0.4120  0.9203
  176SAPI   C2720027   5.129   0.580   7.005  1.0039  0.2192  0.0584
  176SAPI   H7R20028   5.171   0.483   7.039 -1.2805 -0.1757  1.9247
  176SAPI   H7S20029   5.022   0.554   6.993  0.8468  1.2677 -0.8714
  176SAPI   C2820030   5.152   0.677   7.121 -0.7298  0.1126  0.3012
  176SAPI   H8R20031   5.099   0.772   7.104  0.5838  0.6600 -0.8866
  176SAPI   C2920032   5.226   0.672   7.233 -0.1399  0.1424 -0.3773
  176SAPI   H9R20033   5.218   0.759   7.299 -1.0843 -1.1435  1.2510
  176SAPI  C21020034   5.312   0.553   7.269  0.1550 -0.4944  0.3538
  176SAPI  H10R20035   5.269   0.451   7.263  0.2265 -0.3774 -3.1977
  176SAPI  H10S20036   5.322   0.560   7.379 -0.0287  0.1513  0.3326
  176SAPI  C21120037   5.450   0.551   7.227 -0.3794 -1.0236  0.5228
  176SAPI  H11R20038   5.505   0.644   7.209  0.7626 -2.1195 -1.9827
  176SAPI  C21220039   5.533   0.444   7.216  0.5835 -0.0862  0.9041
  176SAPI  H12R20040   5.629   0.473   7.172  0.1291  2.5931  1.6176
  176SAPI  C21320041   5.503   0.297   7.259 -0.4566  0.0825  0.1959
  176SAPI  H13R20042   5.515   0.229   7.172 -1.7022  0.0194  0.0747
  176SAPI  H13S20043   5.401   0.279   7.298 -0.2362 -1.1866  0.2095
  176SAPI  C21420044   5.610   0.266   7.360  0.5263 -0.9509 -0.1915
  176SAPI  H14R20045   5.704   0.321   7.352  1.3239 -2.1849  0.5519
  176SAPI  C21520046   5.611   0.168   7.456 -0.7841 -0.5781 -0.3608
  176SAPI  H15R20047   5.706   0.156   7.509 -0.5309  0.4050 -0.5825
  176SAPI  C21620048   5.503   0.070   7.480 -1.0361 -0.1252 -0.4511
  176SAPI  H16R20049   5.533  -0.029   7.439  1.4610  0.3461  0.1519
  176SAPI  H16S20050   5.408   0.089   7.426 -1.2125 -2.0003 -0.8197
  176SAPI  C21720051   5.473   0.071   7.627  0.4287  0.2775  0.0228
  176SAPI  H17R20052   5.422   0.162   7.662 -1.7737  0.7248 -4.0474
  176SAPI  H17S20053   5.559   0.062   7.696  0.2804 -1.0126  0.0550
  176SAPI  C21820054   5.380  -0.050   7.660 -0.4820 -0.7527  0.5440
  176SAPI  H18R20055   5.434  -0.144   7.637  0.8214  0.1769 -0.2194
  176SAPI  H18S20056   5.294  -0.049   7.589 -0.0782 -0.2248  0.0645
  176SAPI  C21920057   5.332  -0.032   7.807 -0.2490 -0.2792  0.1518
  176SAPI  H19R20058   5.289   0.070   7.801 -1.9276 -0.9756  0.2051
  176SAPI  H19S20059   5.421  -0.013   7.871 -1.5943  1.1867  1.6091
  176SAPI  C22020060   5.224  -0.125   7.865  0.4965 -1.3179  0.6480
  176SAPI  H20R20061   5.275  -0.219   7.896  0.4408 -1.2739  0.8741
  176SAPI  H20S20062   5.144  -0.129   7.789  1.3778  0.7521 -0.4235
  176SAPI  H20T20063   5.182  -0.073   7.954  1.0542 -0.6685  0.5311
  176SAPI   C3320064   5.830   0.735   7.325  0.4629  0.0710 -0.2099
  176SAPI   H3X20065   5.739   0.721   7.386  1.2627 -1.6648  0.6240
  176SAPI   H3Y20066   5.891   0.818   7.365  0.1189 -0.3901  1.2984
  176SAPI   C3420067   5.913   0.606   7.335  0.0731  0.0945  0.4945
  176SAPI   H4X20068   6.018   0.633   7.355 -0.4205  0.7284  2.3159
  176SAPI   H4Y20069   5.899   0.529   7.256 -1.3160 -0.1773  0.9745
  176SAPI   C3520070   5.883   0.531   7.473 -0.6337  0.1927  0.1283
  176SAPI   H5X20071   5.930   0.431   7.460  0.1769  0.5894  0.0325
  176SAPI   H5Y20072   5.775   0.510   7.489 -1.1205  1.0288 -1.8742
  176SAPI   C3620073   5.943   0.600   7.597 -0.0092  0.6336 -0.0283
  176SAPI   H6X20074   5.880   0.690   7.613 -1.3614 -0.7479  2.8025
  176SAPI   H6Y20075   6.049   0.630   7.586 -0.2580  1.9983  1.1738
  176SAPI   C3720076   5.909   0.510   7.713  0.2297 -0.4080 -1.1549
  176SAPI   H7X20077   5.957   0.410   7.713 -0.7329 -0.8989  1.1183
  176SAPI   H7Y20078   5.801   0.488   7.695  0.3139 -0.0858 -2.0910
  176SAPI   C3820079   5.948   0.576   7.848 -0.3341  0.1162 -0.4246
  176SAPI   H8X20080   6.048   0.623   7.860 -1.4128  2.1252  0.8104
  176SAPI   H8Y20081   5.942   0.497   7.927  0.9962  1.5027  1.0991
  176SAPI   C3920082   5.850   0.687   7.896 -0.0776  0.5197  0.5389
  176SAPI   H9X20083   5.752   0.637   7.904  0.3806 -0.3830  0.5112
  176SAPI   H9Y20084   5.844   0.770   7.822 -0.7406 -1.1306 -1.3086
  176SAPI  C31020085   5.887   0.748   8.026 -0.2159 -0.4398 -0.1356
  176SAPI  H10X20086   5.982   0.805   8.012 -1.3883  1.8160  0.7321
  176SAPI  H10Y20087   5.894   0.677   8.110 -2.8548 -0.7147 -0.1145
  176SAPI  C31120088   5.787   0.849   8.084  1.4223  0.2534 -0.3816
  176SAPI  H11X20089   5.771   0.944   8.028  2.1567  1.6832  1.7436
  176SAPI  H11Y20090   5.831   0.887   8.179  0.9402 -0.9118  0.3176
  176SAPI  C31220091   5.652   0.780   8.106 -0.5693 -0.4916 -0.2683
  176SAPI  H12X20092   5.657   0.672   8.134 -1.6591  0.0701  2.2176
  176SAPI  H12Y20093   5.602   0.796   8.008  2.0533  1.8848 -1.2664
  176SAPI  C31320094   5.563   0.846   8.208  0.4448 -0.6290 -0.7994
  176SAPI  H13X20095   5.505   0.929   8.162 -0.1532  0.2780  1.5149
  176SAPI  H13Y20096   5.623   0.881   8.295 -1.5317 -0.1157  0.4119
  176SAPI  C31420097   5.462   0.741   8.263  0.2620 -0.1545 -0.3348
  176SAPI  H14X20098   5.508   0.650   8.307 -0.0535 -1.4620 -2.5915
  176SAPI  H14Y20099   5.413   0.703   8.170  1.6757 -0.6767 -0.8849
  176SAPI  C31520100   5.359   0.788   8.369 -0.3803 -0.8061 -0.1595
  176SAPI  H15X20101   5.305   0.871   8.318 -0.5443 -1.3330 -0.8475
  176SAPI  H15Y20102   5.419   0.837   8.449 -0.0909 -1.1148 -0.1878
  176SAPI  C31620103   5.278   0.668   8.424 -1.0746  0.0547  1.2079
  176SAPI  H16X20104   5.353   0.589   8.444 -0.3042  0.2073 -0.9152
  176SAPI  H16Y20105   5.222   0.630   8.335 -1.8204  1.0518  1.2445
  176SAPI  C31720106   5.194   0.698   8.551  0.4870 -0.0767  0.2510
  176SAPI  H17X20107   5.100   0.748   8.521  0.1950  0.4850  2.0312
  176SAPI  H17Y20108   5.252   0.761   8.622  1.6524  1.2473 -1.8436
  176SAPI  C31820109   5.155   0.574   8.624 -0.6292 -0.4641 -0.3792
  176SAPI  H18X20110   5.233   0.539   8.695  0.4145 -0.7546 -1.6580
  176SAPI  H18Y20111   5.136   0.490   8.554  2.2878 -1.6875  0.2473
  176SAPI  H18Z20112   5.060   0.584   8.681  0.4909  1.4601  1.1967
  177SLPC     N20113   4.996   4.584  11.075  0.7598  0.0126  0.0739
  177SLPC   C1320114   4.976   4.719  11.143 -0.2399 -0.0545 -0.8081
  177SLPC  H13A20115   5.067   4.773  11.169 -1.2332  0.7904  1.0420
  177SLPC  H13B20116   4.923   4.787  11.078  1.4728  0.9364 -1.1917
  177SLPC  H13C20117   4.914   4.711  11.231 -0.2167 -1.0227 -0.8831
  177SLPC   C1420118   4.864   4.520  11.076  0.2396  0.8234  0.3982
  177SLPC  H14A20119   4.867   4.417  11.043  0.6194  0.7382  0.6976
  177SLPC  H14B20120   4.810   4.528  11.169 -0.5587  0.4134 -0.0292
  177SLPC  H14C20121   4.806   4.567  10.998  0.2261 -1.6873 -1.1452
  177SLPC   C1520122   5.085   4.502  11.160 -0.4190 -0.3802 -1.2574
  177SLPC  H15A20123   5.099   4.403  11.119  3.1089 -0.3033 -0.4392
  177SLPC  H15B20124   5.184   4.543  11.176  0.1681 -1.6842 -1.4069
  177SLPC  H15C20125   5.045   4.494  11.260  0.4252  1.3646 -0.7648
  177SLPC   C1220126   5.051   4.591  10.928  0.4994 -0.2516  0.1835
  177SLPC  H12A20127   5.154   4.621  10.940  0.4661 -0.3286  0.7108
  177SLPC  H12B20128   4.997   4.663  10.869  1.0652  0.5784  0.6642
  177SLPC   C1120129   5.042   4.461  10.848 -0.2543 -0.0477 -0.2247
  177SLPC  H11A20130   5.064   4.487  10.743  0.4949 -0.7550 -0.2472
  177SLPC  H11B20131   4.948   4.403  10.862 -0.1978  0.0474  0.5664
  177SLPC     P20132   5.294   4.398  10.856 -0.4481  0.0650  0.0033
  177SLPC   O1320133   5.337   4.533  10.889 -0.0745  0.3999 -0.2216
  177SLPC   O1420134   5.386   4.309  10.928  0.2706  0.4304 -0.3124
  177SLPC   O1220135   5.145   4.375  10.907  0.2538 -0.1486  0.0951
  177SLPC   O1120136   5.298   4.375  10.703 -0.7853  0.4500  0.3668
  177SLPC    C120137   5.307   4.244  10.655  0.7216  0.0799 -0.3221
  177SLPC    HA20138   5.413   4.211  10.655  0.8375  0.4282 -2.4763
  177SLPC    HB20139   5.252   4.173  10.720  0.3980  1.1079  0.5339
  177SLPC    C220140   5.240   4.231  10.518 -0.2542 -0.0451  0.3174
  177SLPC    HS20141   5.242   4.125  10.486 -2.2576 -0.4844  1.5298
  177SLPC   O2120142   5.290   4.330  10.428  0.2569 -1.1573  0.1256
  177SLPC   C2120143   5.396   4.297  10.367 -0.0967 -0.0280 -0.5623
  177SLPC   O2220144   5.461   4.194  10.377  0.3489 -0.1614  0.5625
  177SLPC   C2220145   5.427   4.409  10.264  0.3586 -0.4488  0.0682
  177SLPC   H2R20146   5.370   4.500  10.295  0.8298 -0.2804  0.4364
  177SLPC   H2S20147   5.535   4.429  10.278  0.0913  0.1952  1.2750
  177SLPC    C320148   5.088   4.265  10.530 -0.0018  0.6674  0.1585
  177SLPC    HX20149   5.092   4.372  10.560 -2.3536  0.8103  0.0568
  177SLPC    HY20150   5.053   4.197  10.610 -0.6090  0.4056 -0.3252
  177SLPC   O3120151   5.017   4.242  10.406 -0.9795  0.4399 -0.8758
  177SLPC   C3120152   4.921   4.325  10.374 -0.3901 -0.9842 -0.4118
  177SLPC   O3220153   4.886   4.422  10.445  0.0098  0.0251 -0.2737
  177SLPC   C3220154   4.866   4.286  10.241  0.8249 -0.5262  0.7533
  177SLPC   H2X20155   4.836   4.179  10.243  1.5532 -0.7503  0.1699
  177SLPC   H2Y20156   4.942   4.308  10.163 -0.8117 -1.9553 -1.3249
  177SLPC   C2320157   5.396   4.367  10.124  0.7621  0.4776  0.1010
  177SLPC   H3R20158   5.418   4.259  10.108 -1.7370  0.2826 -2.6097
  177SLPC   H3S20159   5.465   4.425  10.059 -1.3366  2.3595 -0.5415
  177SLPC   C2420160   5.256   4.398  10.070 -0.1121 -0.8630  0.0274
  177SLPC   H4R20161   5.239   4.501  10.108 -1.4231 -1.2635  0.5588
  177SLPC   H4S20162   5.171   4.344  10.116 -1.3009  0.3356 -0.7360
  177SLPC   C2520163   5.255   4.393   9.916 -0.1201 -0.1859 -0.0154
  177SLPC   H5R20164   5.267   4.287   9.885 -0.0132 -0.1393 -0.1310
  177SLPC   H5S20165   5.345   4.448   9.881  0.9892 -1.1820  1.1580
  177SLPC   C2620166   5.132   4.467   9.850 -0.5576  0.0034  0.0533
  177SLPC   H6R20167   5.137   4.577   9.865 -0.2474  0.2402 -1.6807
  177SLPC   H6S20168   5.041   4.425   9.899 -0.4576 -1.1582 -0.7292
  177SLPC   C2720169   5.134   4.434   9.698 -1.1774  0.2899 -0.5378
  177SLPC   H7R20170   5.113   4.325   9.685  0.7047  0.0772 -2.2038
  177SLPC   H7S20171   5.240   4.443   9.665 -0.6355  2.3538  1.6654
  177SLPC   C2820172   5.041   4.522   9.610  0.0144 -0.0052  0.2439
  177SLPC   H8R20173   5.070   4.627   9.630 -1.9779  0.8560 -1.1880
  177SLPC   H8S20174   4.935   4.511   9.644  0.9957 -2.1635  2.7741
  177SLPC   C2920175   5.066   4.498   9.462 -0.5219 -0.5941  0.1732
  177SLPC   H9R20176   5.173   4.490   9.440 -0.1526  2.5238  0.6142
  177SLPC  C21020177   4.971   4.497   9.357 -0.6388  0.2535 -0.5604
  177SLPC  H10R20178   4.990   4.461   9.256  0.7699  1.8932 -0.8944
  177SLPC  C21120179   4.820   4.510   9.389 -0.0742 -0.0280  0.2935
  177SLPC  H11R20180   4.790   4.477   9.491 -0.1188 -0.2068  0.2222
  177SLPC  H11S20181   4.797   4.619   9.382 -1.2360 -0.2405  0.6983
  177SLPC  C21220182   4.729   4.439   9.289 -0.6097  0.6939 -0.6135
  177SLPC  H12R20183   4.683   4.347   9.327 -0.0200  1.0708  1.0663
  177SLPC  C21320184   4.704   4.486   9.164  0.8041 -0.1270 -0.4391
  177SLPC  H13R20185   4.626   4.432   9.108 -0.6052  2.5493 -1.1756
  177SLPC  C21420186   4.770   4.604   9.096  0.5386  0.4922 -0.2770
  177SLPC  H14R20187   4.824   4.661   9.174  1.5112 -1.4909  0.5291
  177SLPC  H14S20188   4.695   4.668   9.044 -0.9302 -0.0207  1.2009
  177SLPC  C21520189   4.869   4.566   8.991 -1.1544 -0.1571 -0.6704
  177SLPC  H15R20190   4.808   4.537   8.903 -0.7028  1.0146 -1.3945
  177SLPC  H15S20191   4.926   4.478   9.027  0.0218  0.9069  0.1175
  177SLPC  C21620192   4.955   4.688   8.953 -0.4394  0.5952  0.1126
  177SLPC  H16R20193   5.022   4.713   9.038  0.2423 -1.1372  0.1151
  177SLPC  H16S20194   4.879   4.768   8.949 -2.6479 -1.3117  2.1494
  177SLPC  C21720195   5.018   4.681   8.814 -0.2853  0.2079  0.7608
  177SLPC  H17R20196   4.942   4.643   8.743  0.8629 -1.5665  0.4268
  177SLPC  H17S20197   5.091   4.597   8.817  0.3568  0.7711  1.0322
  177SLPC  C21820198   5.073   4.808   8.750  0.8827  0.9047 -0.0748
  177SLPC  H18R20199   5.108   4.778   8.649  0.9626 -0.8347  0.4447
  177SLPC  H18S20200   5.158   4.847   8.811  0.6001  0.1026  0.8423
  177SLPC  H18T20201   4.990   4.881   8.744 -0.6082 -0.6566  1.1822
  177SLPC   C3320202   4.734   4.365  10.213  0.0975 -0.2139  0.6061
  177SLPC   H3X20203   4.745   4.473  10.234 -0.1518  0.1229 -0.9539
  177SLPC   H3Y20204   4.654   4.323  10.278 -0.7311  1.5540  0.7614
  177SLPC   C3420205   4.692   4.339  10.070  0.0309  0.1463 -0.3111
  177SLPC   H4X20206   4.659   4.235  10.052 -0.0099 -0.0796  1.0507
  177SLPC   H4Y20207   4.780   4.364  10.006  0.1155  2.5546  0.6670
  177SLPC   C3520208   4.579   4.427  10.026  0.3638  0.2406  0.8034
  177SLPC   H5X20209   4.614   4.532  10.020  2.1568 -0.3605  0.3517
  177SLPC   H5Y20210   4.490   4.404  10.088 -0.8074  2.4963  0.0088
  177SLPC   C3620211   4.533   4.378   9.885  0.5005 -0.2112  1.1709
  177SLPC   H6X20212   4.457   4.296   9.886  0.1449  0.1179  1.2242
  177SLPC   H6Y20213   4.623   4.343   9.830  0.3054  1.7973 -0.4844
  177SLPC   C3720214   4.451   4.489   9.808 -0.5765 -0.5046 -0.3632
  177SLPC   H7X20215   4.502   4.587   9.820 -1.0092 -0.3174 -0.0358
  177SLPC   H7Y20216   4.357   4.496   9.866 -1.3029  0.9591 -1.6814
  177SLPC   C3820217   4.432   4.479   9.657 -0.8695 -0.3446  0.3655
  177SLPC   H8X20218   4.353   4.403   9.637 -1.1360  0.5249 -1.9604
  177SLPC   H8Y20219   4.531   4.451   9.615 -0.8454 -0.6799  0.6333
  177SLPC   C3920220   4.391   4.613   9.592  0.2200  0.4401 -0.8296
  177SLPC   H9X20221   4.452   4.696   9.634 -0.8925  1.0468 -0.3884
  177SLPC   H9Y20222   4.284   4.624   9.619  0.3846  0.3465 -0.1066
  177SLPC  C31020223   4.413   4.616   9.445 -0.6766 -0.1461  0.1853
  177SLPC  H10X20224   4.514   4.573   9.426 -0.3846 -0.7809  3.0556
  177SLPC  H10Y20225   4.423   4.721   9.409  1.5489 -0.7776 -1.1611
  177SLPC  C31120226   4.305   4.551   9.350 -0.1520  0.0481 -0.3600
  177SLPC  H11X20227   4.214   4.614   9.359 -0.4810 -0.4844 -0.0088
  177SLPC  H11Y20228   4.286   4.443   9.366 -1.3735  0.3054  0.0004
  177SLPC  C31220229   4.350   4.570   9.203  0.1167 -0.2400 -0.5849
  177SLPC  H12X20230   4.422   4.487   9.188  0.3776  0.2740 -2.2837
  177SLPC  H12Y20231   4.390   4.673   9.191  1.5536 -0.5330  1.4627
  177SLPC  C31320232   4.239   4.551   9.101 -0.0343 -0.0510 -0.4216
  177SLPC  H13X20233   4.158   4.622   9.127  0.5484  0.5702 -0.2696
  177SLPC  H13Y20234   4.210   4.445   9.118 -1.8041  0.2262 -1.6360
  177SLPC  C31420235   4.296   4.585   8.964 -0.2018 -0.2445  0.1240
  177SLPC  H14X20236   4.378   4.660   8.970 -0.1575 -0.1226 -1.7374
  177SLPC  H14Y20237   4.215   4.644   8.915  2.2326  3.0550 -0.1277
  177SLPC  C31520238   4.348   4.469   8.876  0.8347 -0.0402 -0.7728
  177SLPC  H15X20239   4.266   4.397   8.858 -0.1740  0.2417  2.4670
  177SLPC  H15Y20240   4.425   4.411   8.932  2.4471  3.1340  0.4239
  177SLPC  C31620241   4.389   4.523   8.743  0.0081  0.4038 -0.1903
  177SLPC  H16X20242   4.323   4.598   8.695 -0.6952 -0.6923 -0.9542
  177SLPC  H16Y20243   4.397   4.439   8.670  1.9684 -0.3690  0.8746
  177SLPC  C31720244   4.518   4.608   8.743 -0.0713  1.0177 -0.2602
  177SLPC  H17X20245   4.585   4.573   8.824 -1.5987  0.0765  0.6158
  177SLPC  H17Y20246   4.496   4.714   8.767  0.9888  0.9273  1.1804
  177SLPC  C31820247   4.593   4.603   8.619 -0.2634  0.0977  0.2890
  177SLPC  H18X20248   4.534   4.654   8.540  0.1305 -0.4931 -0.3983
  177SLPC  H18Y20249   4.598   4.499   8.579 -2.7803 -0.8383  2.2694
  177SLPC  H18Z20250   4.696   4.643   8.623  0.6151 -1.2028 -5.4763
  178SLPC     N20251   0.618   6.368  11.332 -0.0157 -0.0854 -0.2039
  178SLPC   C1320252   0.541   6.377  11.198 -0.8574 -0.0754  0.0527
  178SLPC  H13A20253   0.505   6.276  11.186 -0.6136 -0.4081  1.9151
  178SLPC  H13B20254   0.455   6.442  11.195 -0.5596  0.3030 -0.4675
  178SLPC  H13C20255   0.607   6.399  11.115  0.5228 -2.4560  0.4751
  178SLPC   C1420256   0.530   6.302  11.433 -0.0975 -0.0596  0.2863
  178SLPC  H14A20257   0.430   6.343  11.441  0.1584  0.5551  0.3149
  178SLPC  H14B20258   0.529   6.196  11.411 -1.0361  0.2989 -1.4441
  178SLPC  H14C20259   0.579   6.308  11.529  0.8104  1.0023 -0.2384
  178SLPC   C1520260   0.646   6.509  11.374 -0.1777  1.0704  0.3411
  178SLPC  H15A20261   0.696   6.513  11.470 -3.0947  0.1235  1.9788
  178SLPC  H15B20262   0.704   6.566  11.303  0.1687 -0.2710 -0.4820
  178SLPC  H15C20263   0.554   6.564  11.383 -1.6353 -1.6095  2.7926
  178SLPC   C1220264   0.745   6.274  11.329  0.1804  0.0861  0.4412
  178SLPC  H12A20265   0.710   6.173  11.312 -2.3463  0.9779  0.1474
  178SLPC  H12B20266   0.794   6.287  11.424 -0.4656 -1.6135  1.0297
  178SLPC   C1120267   0.855   6.303  11.223 -0.0224 -0.8644 -0.1272
  178SLPC  H11A20268   0.951   6.249  11.235  1.7838  2.0443 -1.1900
  178SLPC  H11B20269   0.882   6.410  11.219 -3.1627  0.0829  2.1000
  178SLPC     P20270   0.751   6.133  11.044 -0.5275 -0.1416 -0.4595
  178SLPC   O1320271   0.871   6.050  11.039  0.1837  0.3565 -0.8970
  178SLPC   O1420272   0.626   6.083  11.104 -0.3337  0.4242 -0.2289
  178SLPC   O1220273   0.786   6.278  11.100 -0.4683 -0.3287 -0.5824
  178SLPC   O1120274   0.711   6.160  10.893 -0.0256 -0.5611 -0.1960
  178SLPC    C120275   0.615   6.262  10.864 -0.1648 -0.3764 -0.3525
  178SLPC    HA20276   0.627   6.352  10.927  1.2653 -1.1116  0.4312
  178SLPC    HB20277   0.646   6.301  10.765  0.0231 -0.5264 -0.3519
  178SLPC    C220278   0.467   6.211  10.868  0.7382  0.5561 -0.1156
  178SLPC    HS20279   0.445   6.183  10.973 -0.6619  1.0045 -0.2748
  178SLPC   O2120280   0.452   6.096  10.786 -0.6369 -0.9240  0.5600
  178SLPC   C2120281   0.356   6.010  10.810  0.1161 -0.3665 -0.4476
  178SLPC   O2220282   0.272   6.021  10.895 -0.6282  0.1852  0.4438
  178SLPC   C2220283   0.377   5.890  10.724 -0.7216  0.3942  0.3495
  178SLPC   H2R20284   0.485   5.880  10.700 -1.0134 -0.4519 -0.6179
  178SLPC   H2S20285   0.335   5.795  10.761  0.1446  0.6517  2.0141
  178SLPC    C320286   0.365   6.318  10.834  0.5858 -0.5422 -0.6778
  178SLPC    HX20287   0.355   6.386  10.922 -1.8691  2.4173 -3.1086
  178SLPC    HY20288   0.264   6.272  10.828  0.3186 -0.0501 -0.0647
  178SLPC   O3120289   0.391   6.391  10.709 -0.1354  0.2905 -0.1534
  178SLPC   C3120290   0.281   6.440  10.645 -0.0176  0.4081  0.0024
  178SLPC   O3220291   0.170   6.446  10.696 -0.3397  0.7288 -0.3009
  178SLPC   C3220292   0.315   6.497  10.507 -0.1074 -0.2092  0.3885
  178SLPC   H2X20293   0.422   6.523  10.510  0.1192 -0.9417 -1.1475
  178SLPC   H2Y20294   0.257   6.589  10.484 -0.0758 -0.3038 -0.0794
  178SLPC   C2320295   0.315   5.908  10.586 -0.4737 -0.7821 -0.0908
  178SLPC   H3R20296   0.215   5.954  10.594 -0.6777 -1.5774  2.2744
  178SLPC   H3S20297   0.306   5.806  10.543 -0.2422 -1.7642  2.0761
  178SLPC   C2420298   0.409   5.981  10.481 -0.4569 -0.1620  0.1913
  178SLPC   H4R20299   0.508   5.929  10.477  0.8970  2.1994  1.8547
  178SLPC   H4S20300   0.411   6.089  10.505 -1.1497  0.2346 -1.4809
  178SLPC   C2520301   0.346   5.983  10.337 -0.7774 -0.2966 -0.3685
  178SLPC   H5R20302   0.264   6.057  10.345  1.4889  2.2536 -0.1001
  178SLPC   H5S20303   0.289   5.889  10.318  1.5790 -1.5533 -1.4342
  178SLPC   C2620304   0.438   6.009  10.221 -0.1091 -0.5596  0.3055
  178SLPC   H6R20305   0.516   5.929  10.219  0.9890  0.5166 -0.5567
  178SLPC   H6S20306   0.482   6.111  10.217  2.4111 -1.6891 -3.2453
  178SLPC   C2720307   0.359   5.987  10.088  0.3433  0.1355  0.3005
  178SLPC   H7R20308   0.272   6.056  10.087 -0.4094 -0.8222 -1.2297
  178SLPC   H7S20309   0.323   5.882  10.083  1.4674 -0.2565  0.3957
  178SLPC   C2820310   0.450   6.014   9.967 -0.4513 -0.0391  0.6737
  178SLPC   H8R20311   0.553   5.974   9.982  0.7069  2.5782 -0.0628
  178SLPC   H8S20312   0.455   6.124   9.952 -1.9764 -0.1101 -0.4689
  178SLPC   C2920313   0.396   5.972   9.828 -0.0437  0.1637  0.0034
  178SLPC   H9R20314   0.349   5.873   9.814  0.3963 -0.2816  1.6647
  178SLPC  C21020315   0.414   6.045   9.715 -0.6643 -0.0277  0.6698
  178SLPC  H10R20316   0.369   6.008   9.622 -2.3649  2.0331  0.6399
  178SLPC  C21120317   0.485   6.176   9.700 -0.3218  0.7876  0.2136
  178SLPC  H11R20318   0.491   6.239   9.792  0.4757  0.1776  0.5808
  178SLPC  H11S20319   0.423   6.230   9.625 -1.0014 -1.7750 -1.0939
  178SLPC  C21220320   0.621   6.158   9.640  0.3686  0.3099  0.1982
  178SLPC  H12R20321   0.714   6.173   9.697  1.0692  1.5785 -1.2214
  178SLPC  C21320322   0.641   6.127   9.512 -0.3892 -0.0315  0.1469
  178SLPC  H13R20323   0.745   6.112   9.479 -0.6268 -0.9055 -0.2068
  178SLPC  C21420324   0.545   6.090   9.396  0.5640  0.0117 -0.5330
  178SLPC  H14R20325   0.440   6.086   9.432 -0.0879  2.4953 -2.0181
  178SLPC  H14S20326   0.558   5.986   9.360 -2.9334 -0.2321 -1.3258
  178SLPC  C21520327   0.568   6.182   9.279  0.0496  0.3972  0.1375
  178SLPC  H15R20328   0.515   6.145   9.189  0.2491  1.0506 -0.2555
  178SLPC  H15S20329   0.677   6.188   9.260  0.1183 -1.2441 -0.0329
  178SLPC  C21620330   0.516   6.320   9.309 -0.4955 -0.2593  0.3338
  178SLPC  H16R20331   0.576   6.378   9.383 -0.6598 -0.6624  0.7831
  178SLPC  H16S20332   0.418   6.321   9.362  0.6000  0.5664  2.4383
  178SLPC  C21720333   0.490   6.406   9.184 -0.9874  0.4748 -0.0458
  178SLPC  H17R20334   0.413   6.359   9.119  0.5299  1.3593 -2.5359
  178SLPC  H17S20335   0.580   6.419   9.121  0.4354 -0.9430  1.6318
  178SLPC  C21820336   0.438   6.542   9.225 -0.2591 -0.2908 -0.2184
  178SLPC  H18R20337   0.519   6.618   9.231 -0.9247  0.5263 -1.3538
  178SLPC  H18S20338   0.381   6.533   9.320  0.2939  3.1273  0.4788
  178SLPC  H18T20339   0.363   6.573   9.150  0.5176  1.1307 -0.4242
  178SLPC   C3320340   0.278   6.404  10.390 -1.1937 -0.4523 -0.1664
  178SLPC   H3X20341   0.168   6.395  10.406 -1.2449 -0.4387 -0.5040
  178SLPC   H3Y20342   0.319   6.301  10.386 -0.0246  0.0482 -1.2074
  178SLPC   C3420343   0.308   6.463  10.251  0.3010 -0.2245  0.4186
  178SLPC   H4X20344   0.418   6.480  10.249 -0.0414  2.0732 -2.8529
  178SLPC   H4Y20345   0.250   6.558  10.244  2.6297  1.4745  3.1483
  178SLPC   C3520346   0.276   6.354  10.144  0.6440 -0.2202 -0.4456
  178SLPC   H5X20347   0.175   6.312  10.165  0.6634 -0.9308 -1.7537
  178SLPC   H5Y20348   0.341   6.264  10.150  1.2640  0.1085 -2.2181
  178SLPC   C3620349   0.295   6.411  10.011 -0.6923 -0.2780  0.6049
  178SLPC   H6X20350   0.402   6.436   9.997 -0.8259  0.6008  1.0698
  178SLPC   H6Y20351   0.250   6.513  10.010 -1.0442 -0.4316  0.5921
  178SLPC   C3720352   0.218   6.341   9.897  0.1035  0.7011  0.8915
  178SLPC   H7X20353   0.116   6.311   9.929  0.6377  0.4058  2.3743
  178SLPC   H7Y20354   0.273   6.248   9.869 -0.9486  0.1439  0.6386
  178SLPC   C3820355   0.218   6.427   9.774  0.1920  0.1382 -0.1245
  178SLPC   H8X20356   0.322   6.430   9.735  0.8644 -1.3036  1.4751
  178SLPC   H8Y20357   0.179   6.527   9.804 -1.1699 -0.0402 -1.2707
  178SLPC   C3920358   0.129   6.376   9.667  0.5007  0.3496  0.7021
  178SLPC   H9X20359   0.025   6.367   9.705 -0.0368 -1.0427 -1.0051
  178SLPC   H9Y20360   0.158   6.269   9.656 -0.0054  0.1183  1.5834
  178SLPC  C31020361   0.122   6.466   9.546  0.5419 -0.4254 -0.1366
  178SLPC  H10X20362   0.223   6.498   9.513  0.8535  0.6720  1.8687
  178SLPC  H10Y20363   0.074   6.563   9.572  1.8522 -0.0096  0.7473
  178SLPC  C31120364   0.052   6.394   9.429 -0.1222 -0.2294 -0.0411
  178SLPC  H11X20365  -0.059   6.399   9.440 -0.4185 -3.5122 -1.0204
  178SLPC  H11Y20366   0.079   6.287   9.432 -2.2858 -0.8029  0.1046
  178SLPC  C31220367   0.086   6.450   9.285  0.4337  0.3114 -0.3391
  178SLPC  H12X20368   0.196   6.439   9.281  0.6061  1.5543  0.5899
  178SLPC  H12Y20369   0.077   6.561   9.277 -0.7467  0.1844 -0.7843
  178SLPC  C31320370   0.008   6.386   9.168 -0.2800 -0.3911 -0.5298
  178SLPC  H13X20371  -0.099   6.415   9.165 -0.9462 -2.8080 -1.5627
  178SLPC  H13Y20372  -0.006   6.280   9.201 -1.2170  0.2784  1.2880
  178SLPC  C31420373   0.083   6.378   9.038 -0.0559 -0.2305 -0.1502
  178SLPC  H14X20374   0.032   6.307   8.968 -0.9979 -1.4602  1.7341
  178SLPC  H14Y20375   0.183   6.333   9.057 -1.2625 -2.0343  2.2252
  178SLPC  C31520376   0.078   6.514   8.975  0.9900  0.5433 -0.3427
  178SLPC  H15X20377  -0.026   6.549   8.959  0.7505  1.0541  2.1834
  178SLPC  H15Y20378   0.129   6.581   9.048  0.3215 -1.3200  1.8835
  178SLPC  C31620379   0.155   6.525   8.839  0.7987 -0.5412 -0.3171
  178SLPC  H16X20380   0.087   6.486   8.760 -0.7424  1.2670  0.0975
  178SLPC  H16Y20381   0.243   6.457   8.833  1.5627  0.6523 -4.3566
  178SLPC  C31720382   0.194   6.665   8.793 -1.3549 -0.1162 -0.0822
  178SLPC  H17X20383   0.103   6.729   8.790 -0.5964  0.9146 -1.1945
  178SLPC  H17Y20384   0.225   6.653   8.687  1.0951 -0.2604  0.6360
  178SLPC  C31820385   0.308   6.741   8.868 -0.1276  0.0640  0.4267
  178SLPC  H18X20386   0.340   6.839   8.827  0.1562 -0.7056 -1.2051
  178SLPC  H18Y20387   0.392   6.668   8.870 -0.6815 -0.5532  1.3643
  178SLPC  H18Z20388   0.282   6.757   8.975  0.5066 -1.5818  0.8362
  179SLPC     N20389   1.841   3.184  10.568  0.2803  0.5736 -0.2340
  179SLPC   C1320390   1.901   3.255  10.687 -0.5351 -0.5204 -0.1963
  179SLPC  H13A20391   1.920   3.195  10.774 -3.0595 -1.2664 -0.1275
  179SLPC  H13B20392   1.992   3.302  10.650 -0.2164  0.2363  1.5021
  179SLPC  H13C20393   1.830   3.328  10.723  1.3056  1.6732 -0.7975
  179SLPC   C1420394   1.947   3.088  10.520  0.2051  0.0284 -0.6797
  179SLPC  H14A20395   1.993   3.012  10.581 -0.8540 -0.2287 -0.1781
  179SLPC  H14B20396   1.904   3.028  10.441 -0.4694  1.4196 -1.3915
  179SLPC  H14C20397   2.021   3.141  10.463 -1.9889  0.7325 -2.9604
  179SLPC   C1520398   1.812   3.282  10.451  0.9824  0.2817 -0.0716
  179SLPC  H15A20399   1.777   3.219  10.371  2.3348 -0.6948  0.0940
  179SLPC  H15B20400   1.737   3.358  10.470  0.7158 -0.2010  0.8462
  179SLPC  H15C20401   1.901   3.333  10.416 -0.3359  2.1336 -0.8213
  179SLPC   C1220402   1.719   3.101  10.610  0.0690 -0.2335 -0.4532
  179SLPC  H12A20403   1.649   3.174  10.648  1.4548  0.6563  0.4563
  179SLPC  H12B20404   1.748   3.044  10.697 -2.7483 -0.2646  0.5158
  179SLPC   C1120405   1.662   3.000  10.509  0.5342  0.5038  0.1485
  179SLPC  H11A20406   1.656   3.047  10.408 -0.1927  1.1018  0.4633
  179SLPC  H11B20407   1.555   2.990  10.536  0.2950  0.6840 -0.7050
  179SLPC     P20408   1.664   2.748  10.433  0.1302 -0.1086 -0.1586
  179SLPC   O1320409   1.766   2.648  10.395 -0.5764  0.4171  0.5996
  179SLPC   O1420410   1.557   2.704  10.530 -0.5457 -0.0479  0.5413
  179SLPC   O1220411   1.732   2.877  10.505  0.0663 -0.0040  0.3198
  179SLPC   O1120412   1.596   2.813  10.305 -0.2480 -0.1784 -0.3491
  179SLPC    C120413   1.677   2.840  10.192  0.3088  0.1412 -0.0003
  179SLPC    HA20414   1.776   2.885  10.214  0.4274  0.3494 -0.9661
  179SLPC    HB20415   1.681   2.740  10.145  4.4883  1.6696 -3.1899
  179SLPC    C220416   1.605   2.928  10.087 -0.2337 -0.2265  0.5198
  179SLPC    HS20417   1.617   3.033  10.123 -2.4384  0.5054 -0.7673
  179SLPC   O2120418   1.469   2.885  10.075 -0.5822 -0.6136 -0.0060
  179SLPC   C2120419   1.392   2.987  10.038 -0.1298 -0.2516  0.2499
  179SLPC   O2220420   1.430   3.101  10.019  0.1137 -0.5687 -0.1180
  179SLPC   C2220421   1.247   2.938  10.024 -0.2026  0.5121 -0.1355
  179SLPC   H2R20422   1.256   2.835   9.984  1.5113 -0.1875  1.9932
  179SLPC   H2S20423   1.204   2.929  10.125  0.1569  0.7227  0.0392
  179SLPC    C320424   1.682   2.919   9.944  0.1874 -0.1677 -0.7723
  179SLPC    HX20425   1.678   2.809   9.928  0.6622 -0.2766 -0.1622
  179SLPC    HY20426   1.789   2.942   9.961  0.0287  2.0564 -2.5781
  179SLPC   O3120427   1.608   2.985   9.829 -0.4436  0.0610 -0.3358
  179SLPC   C3120428   1.644   3.114   9.820 -0.5466  0.5058  0.6161
  179SLPC   O3220429   1.715   3.176   9.898  0.4811  0.1567  0.1192
  179SLPC   C3220430   1.585   3.180   9.692 -0.4677 -0.2422  0.0412
  179SLPC   H2X20431   1.584   3.291   9.698 -3.1642 -0.2737  0.7968
  179SLPC   H2Y20432   1.479   3.148   9.692 -0.6158  0.2310  0.4590
  179SLPC   C2320433   1.171   3.027   9.925 -0.1286 -0.4501 -0.1923
  179SLPC   H3R20434   1.178   3.135   9.951 -0.0389 -0.1469 -1.4401
  179SLPC   H3S20435   1.069   2.985   9.939 -0.3421  0.2098  0.2740
  179SLPC   C2420436   1.207   3.008   9.780 -0.0170  0.4347 -0.5766
  179SLPC   H4R20437   1.231   2.901   9.765  1.4682  0.5821  0.5647
  179SLPC   H4S20438   1.295   3.066   9.745  0.8368 -0.3260  0.2500
  179SLPC   C2520439   1.089   3.036   9.687  0.0863 -0.0845 -0.3670
  179SLPC   H5R20440   1.059   3.143   9.695  1.3451  0.2019  0.6062
  179SLPC   H5S20441   1.002   2.972   9.713  0.1227 -1.0765 -2.5240
  179SLPC   C2620442   1.127   3.016   9.533 -0.1437 -0.1795 -0.6119
  179SLPC   H6R20443   1.028   3.026   9.482 -0.0115 -0.8165 -0.9910
  179SLPC   H6S20444   1.158   2.911   9.516 -4.2647 -1.1650 -2.9104
  179SLPC   C2720445   1.226   3.111   9.471 -0.5312 -0.7093 -0.5997
  179SLPC   H7R20446   1.326   3.093   9.518 -0.1361  0.6107 -0.9039
  179SLPC   H7S20447   1.198   3.215   9.499 -0.3304 -1.1848  1.4471
  179SLPC   C2820448   1.231   3.089   9.324 -0.2562  0.4521 -0.0910
  179SLPC   H8R20449   1.134   3.096   9.270 -0.5954  1.9195  0.6814
  179SLPC   H8S20450   1.250   2.981   9.303 -1.6040 -0.1275  1.5101
  179SLPC   C2920451   1.331   3.167   9.255 -0.4200 -0.4200  0.3738
  179SLPC   H9R20452   1.419   3.106   9.232  0.5003  0.1292  2.3506
  179SLPC  C21020453   1.329   3.294   9.206 -0.2087 -0.8610 -0.2552
  179SLPC  H10R20454   1.416   3.330   9.150 -0.8564  1.8544  0.3988
  179SLPC  C21120455   1.212   3.386   9.219 -0.5536 -0.0013 -0.0545
  179SLPC  H11R20456   1.142   3.342   9.294  0.3833 -0.1209  0.7619
  179SLPC  H11S20457   1.155   3.401   9.125  0.2821 -1.0966 -0.7577
  179SLPC  C21220458   1.261   3.522   9.277  0.2363 -0.4921  0.0126
  179SLPC  H12R20459   1.279   3.531   9.385  1.7776 -0.9501 -0.1969
  179SLPC  C21320460   1.263   3.636   9.204 -0.4396 -0.1630 -0.4917
  179SLPC  H13R20461   1.299   3.727   9.254 -0.2983 -1.6885  2.2757
  179SLPC  C21420462   1.234   3.647   9.057 -0.4105  0.2082  0.0878
  179SLPC  H14R20463   1.124   3.651   9.049 -0.3832 -0.2251 -0.5531
  179SLPC  H14S20464   1.271   3.557   9.005 -3.2142 -1.2901  0.6217
  179SLPC  C21520465   1.300   3.778   9.002  0.4319  0.6556  0.8608
  179SLPC  H15R20466   1.405   3.775   9.037 -1.0329  0.7738  5.7395
  179SLPC  H15S20467   1.242   3.863   9.045 -1.3328 -0.5438  0.9325
  179SLPC  C21620468   1.304   3.805   8.857  0.1452 -0.1925  0.6986
  179SLPC  H16R20469   1.357   3.727   8.798  0.9013  2.3353 -2.0321
  179SLPC  H16S20470   1.360   3.899   8.839 -0.5566 -0.0782 -0.9752
  179SLPC  C21720471   1.161   3.819   8.786  0.6519  0.0733  0.4304
  179SLPC  H17R20472   1.100   3.897   8.836  0.5297  1.0573 -1.2090
  179SLPC  H17S20473   1.100   3.730   8.812 -0.7643  0.7109 -0.6656
  179SLPC  C21820474   1.169   3.856   8.638  0.0442  0.0292 -0.4412
  179SLPC  H18R20475   1.230   3.944   8.611 -2.1359  1.7374  0.0780
  179SLPC  H18S20476   1.066   3.866   8.598  1.3360  2.2014 -3.4229
  179SLPC  H18T20477   1.214   3.772   8.580 -0.1806 -1.0896  0.9825
  179SLPC   C3320478   1.639   3.116   9.562 -0.6227 -0.2074  0.6591
  179SLPC   H3X20479   1.581   3.137   9.470 -0.9907 -3.2993  0.1208
  179SLPC   H3Y20480   1.622   3.007   9.577 -2.0794 -0.2941 -1.4105
  179SLPC   C3420481   1.790   3.149   9.539 -0.6363  0.3465  0.2863
  179SLPC   H4X20482   1.850   3.119   9.627  1.0563 -0.6455 -1.1648
  179SLPC   H4Y20483   1.817   3.255   9.520  1.9048 -0.4678 -0.9201
  179SLPC   C3520484   1.855   3.057   9.433 -0.6942 -0.2732  0.1840
  179SLPC   H5X20485   1.807   3.059   9.333 -2.5364  0.5096  1.0503
  179SLPC   H5Y20486   1.848   2.949   9.460  1.6809  0.3106  3.4370
  179SLPC   C3620487   2.008   3.079   9.413 -0.0438  0.0274  0.3557
  179SLPC   H6X20488   2.044   3.011   9.333 -1.4244 -0.3835  0.0626
  179SLPC   H6Y20489   2.064   3.052   9.505 -0.5211  0.4474  0.7720
  179SLPC   C3720490   2.040   3.217   9.362  0.3822  0.1197  0.2146
  179SLPC   H7X20491   2.148   3.199   9.345  0.7290  2.8635 -0.6433
  179SLPC   H7Y20492   2.015   3.287   9.445  1.5440  0.8917 -0.0783
  179SLPC   C3820493   1.973   3.266   9.236 -0.2265  0.7715  0.2795
  179SLPC   H8X20494   2.014   3.367   9.219  0.4945  0.3996 -0.1884
  179SLPC   H8Y20495   1.864   3.263   9.258 -0.7380  3.0089 -1.8131
  179SLPC   C3920496   2.021   3.175   9.113 -0.1921 -0.4793  1.0266
  179SLPC   H9X20497   1.992   3.068   9.122 -1.9905 -0.2183 -1.0263
  179SLPC   H9Y20498   2.132   3.174   9.104 -0.2845 -1.6615 -0.2437
  179SLPC  C31020499   1.958   3.224   8.982 -0.3372 -0.0193  0.7375
  179SLPC  H10X20500   1.976   3.331   8.960 -1.2644  0.0972  0.5466
  179SLPC  H10Y20501   1.848   3.223   8.997 -1.0332  2.8364 -3.2110
  179SLPC  C31120502   1.973   3.141   8.855 -0.9011  0.0827  0.3500
  179SLPC  H11X20503   1.911   3.174   8.769  2.1714  0.7154 -1.7000
  179SLPC  H11Y20504   1.941   3.039   8.882 -0.4620 -0.5636 -1.4965
  179SLPC  C31220505   2.126   3.131   8.815  0.3769 -1.0271 -0.2505
  179SLPC  H12X20506   2.172   3.037   8.853 -1.8348 -2.1138 -0.1620
  179SLPC  H12Y20507   2.184   3.218   8.852 -1.8868 -1.0402  3.5945
  179SLPC  C31320508   2.145   3.136   8.665  0.2782  0.1431  0.6063
  179SLPC  H13X20509   2.248   3.167   8.641 -0.1431  1.4503  0.4334
  179SLPC  H13Y20510   2.084   3.217   8.619 -1.8330 -0.4829  2.1702
  179SLPC  C31420511   2.128   3.006   8.582  0.0338 -0.6250  0.0237
  179SLPC  H14X20512   2.036   2.949   8.606  0.4221 -0.5432  1.8167
  179SLPC  H14Y20513   2.216   2.941   8.606  0.2280 -0.6238 -0.6678
  179SLPC  C31520514   2.130   3.034   8.429 -0.5004 -0.3103  0.1034
  179SLPC  H15X20515   2.218   3.096   8.402 -1.2154  0.8079  0.3230
  179SLPC  H15Y20516   2.039   3.083   8.389 -1.0785 -2.8618 -1.8162
  179SLPC  C31620517   2.153   2.891   8.358 -0.4879 -0.9554 -0.2423
  179SLPC  H16X20518   2.060   2.832   8.371 -1.4054  0.5580  0.1821
  179SLPC  H16Y20519   2.243   2.845   8.405  1.1437 -1.6741 -3.8815
  179SLPC  C31720520   2.196   2.905   8.208  0.4357 -0.3408 -0.2907
  179SLPC  H17X20521   2.278   2.980   8.211 -0.5003  0.6307  2.5126
  179SLPC  H17Y20522   2.115   2.958   8.154  2.1181  2.8939  0.2099
  179SLPC  C31820523   2.226   2.776   8.137 -0.0419  0.6644  0.2532
  179SLPC  H18X20524   2.293   2.711   8.198 -2.3215 -1.6555  0.3692
  179SLPC  H18Y20525   2.270   2.794   8.037  0.6311  1.3726  0.6669
  179SLPC  H18Z20526   2.131   2.720   8.122  1.2939 -1.2814 -1.2170
  180SLPC     N20527   3.336   1.548  11.116 -0.7409  0.0446  0.3251
  180SLPC   C1320528   3.487   1.596  11.126  0.6451  0.7776  0.4368
  180SLPC  H13A20529   3.536   1.557  11.214  0.6969 -0.4409 -0.1209
  180SLPC  H13B20530   3.539   1.574  11.034 -0.8220  0.8146 -0.4148
  180SLPC  H13C20531   3.491   1.704  11.131 -0.4918  0.9345 -1.4402
  180SLPC   C1420532   3.267   1.641  11.023  0.2844  0.4249 -0.2480
  180SLPC  H14A20533   3.266   1.744  11.056 -0.7513 -0.0635  1.2888
  180SLPC  H14B20534   3.313   1.639  10.925  0.8121  1.6816 -0.0339
  180SLPC  H14C20535   3.165   1.610  11.009  0.4758 -0.1246 -0.4373
  180SLPC   C1520536   3.280   1.578  11.251 -0.3528 -0.4341 -0.1620
  180SLPC  H15A20537   3.293   1.683  11.273 -1.8309 -0.0077 -1.2708
  180SLPC  H15B20538   3.175   1.556  11.252 -0.2257 -1.1350 -1.1574
  180SLPC  H15C20539   3.317   1.514  11.330  2.6694 -0.2237 -1.3196
  180SLPC   C1220540   3.316   1.405  11.084 -0.0342  0.6704 -0.5848
  180SLPC  H12A20541   3.210   1.387  11.087  0.5484 -3.3699 -1.2944
  180SLPC  H12B20542   3.362   1.339  11.156  0.2697  0.1842 -1.2204
  180SLPC   C1120543   3.368   1.363  10.942 -0.4888  0.5803  0.2921
  180SLPC  H11A20544   3.394   1.255  10.940  1.2380  1.0090 -3.0047
  180SLPC  H11B20545   3.464   1.410  10.913  0.0241 -1.6420 -1.7697
  180SLPC     P20546   3.140   1.305  10.830  0.0387 -0.1489  0.5329
  180SLPC   O1320547   3.111   1.228  10.951  0.7622 -0.2519 -0.4633
  180SLPC   O1420548   3.032   1.394  10.773  0.0294  0.3868  0.7533
  180SLPC   O1220549   3.263   1.403  10.851 -0.2675  0.3587 -0.5236
  180SLPC   O1120550   3.196   1.205  10.723  0.2350 -0.6558  0.2647
  180SLPC    C120551   3.254   1.260  10.600  0.0688 -0.6102 -0.0832
  180SLPC    HA20552   3.303   1.360  10.606  0.3052 -0.5708 -2.1239
  180SLPC    HB20553   3.325   1.180  10.569 -0.3686 -0.1700 -2.2795
  180SLPC    C220554   3.151   1.269  10.489  0.2757 -0.2670 -0.1465
  180SLPC    HS20555   3.095   1.365  10.493 -0.0402 -0.4791  0.4343
  180SLPC   O2120556   3.054   1.162  10.508  0.0402 -0.4286 -0.0551
  180SLPC   C2120557   2.926   1.183  10.475 -0.3660  0.4382  0.2075
  180SLPC   O2220558   2.880   1.278  10.417  0.0910  0.2321 -1.0195
  180SLPC   C2220559   2.855   1.049  10.512 -0.3523 -0.1506 -0.7006
  180SLPC   H2R20560   2.928   0.969  10.537 -1.0675 -0.1155  1.6624
  180SLPC   H2S20561   2.787   1.068  10.599 -1.0187 -2.5918 -0.6559
  180SLPC    C320562   3.221   1.256  10.348  0.1412  0.4987  0.1761
  180SLPC    HX20563   3.275   1.160  10.340  1.1191  0.9611  1.0168
  180SLPC    HY20564   3.293   1.340  10.340  0.6638 -0.0508 -0.9333
  180SLPC   O3120565   3.124   1.259  10.234  0.3122  0.1833 -0.5001
  180SLPC   C3120566   3.084   1.381  10.200  0.6426 -0.6740 -0.7570
  180SLPC   O3220567   3.142   1.482  10.233  0.6444  0.2908  0.2613
  180SLPC   C3220568   2.981   1.375  10.085  0.0253  0.1029 -0.7304
  180SLPC   H2X20569   2.894   1.435  10.120 -0.0528 -0.5204  0.1629
  180SLPC   H2Y20570   2.944   1.271  10.070  0.8501 -0.2531 -0.3354
  180SLPC   C2320571   2.764   0.989  10.404 -0.1097  0.4883  0.2067
  180SLPC   H3R20572   2.686   1.057  10.363  0.9658  0.5890 -1.7320
  180SLPC   H3S20573   2.707   0.901  10.441 -0.9148  1.2093  0.7065
  180SLPC   C2420574   2.859   0.956  10.281 -0.3033  0.0943  0.1357
  180SLPC   H4R20575   2.943   0.894  10.319  1.5508  1.8861 -0.9600
  180SLPC   H4S20576   2.891   1.052  10.235 -1.3125  0.3315 -0.0738
  180SLPC   C2520577   2.783   0.880  10.171 -0.0860 -0.4079 -0.1423
  180SLPC   H5R20578   2.704   0.950  10.136  0.4269  0.9981  1.4026
  180SLPC   H5S20579   2.738   0.790  10.219  0.5446 -0.5446  0.2020
  180SLPC   C2620580   2.875   0.844  10.055  0.2525  1.0892 -0.5155
  180SLPC   H6R20581   2.938   0.755  10.075 -0.2506  0.7891 -0.2874
  180SLPC   H6S20582   2.935   0.935  10.031  0.8025  1.0380  0.6251
  180SLPC   C2720583   2.801   0.790   9.925 -0.9040 -0.1187 -0.4458
  180SLPC   H7R20584   2.745   0.870   9.873  0.0093  0.3874 -0.6562
  180SLPC   H7S20585   2.722   0.719   9.960 -1.1112 -0.5768 -1.8101
  180SLPC   C2820586   2.898   0.722   9.828 -0.1364  0.8867 -0.1383
  180SLPC   H8R20587   2.825   0.702   9.746 -0.6977 -1.2151  0.8483
  180SLPC   H8S20588   2.923   0.619   9.858  2.0667  1.0260 -1.3915
  180SLPC   C2920589   3.025   0.794   9.793  0.4109  0.3015 -0.7085
  180SLPC   H9R20590   3.070   0.838   9.884 -1.5157 -1.9999  1.4354
  180SLPC  C21020591   3.075   0.823   9.671  0.1074 -0.4529 -0.2994
  180SLPC  H10R20592   3.171   0.876   9.665  0.3776 -0.6197  2.1083
  180SLPC  C21120593   3.013   0.791   9.538 -0.2808 -0.0683 -0.4747
  180SLPC  H11R20594   2.988   0.685   9.517 -0.7982  0.0997 -0.7163
  180SLPC  H11S20595   3.090   0.823   9.464 -1.1144 -0.2548 -1.4394
  180SLPC  C21220596   2.885   0.867   9.507 -0.5352  0.6437  0.5302
  180SLPC  H12R20597   2.866   0.925   9.599  0.2522 -1.4147  2.0386
  180SLPC  C21320598   2.809   0.858   9.398 -0.2299  0.1500  0.2804
  180SLPC  H13R20599   2.716   0.915   9.395  0.4640  1.5211  3.0111
  180SLPC  C21420600   2.839   0.773   9.276 -0.4762 -1.0085  0.5139
  180SLPC  H14R20601   2.745   0.732   9.231 -1.3773  0.7152  0.8019
  180SLPC  H14S20602   2.905   0.685   9.291 -0.7164 -1.4657 -1.0043
  180SLPC  C21520603   2.910   0.861   9.171  0.0023 -0.3222 -0.9300
  180SLPC  H15R20604   2.999   0.898   9.225  0.3152 -2.5891  0.1562
  180SLPC  H15S20605   2.847   0.944   9.132 -0.0135  0.4924  0.7919
  180SLPC  C21620606   2.971   0.783   9.053  0.2232 -0.2565  0.9708
  180SLPC  H16R20607   2.946   0.675   9.066 -0.3879  0.0114  2.0949
  180SLPC  H16S20608   3.081   0.797   9.059  0.3319 -0.4574 -0.4009
  180SLPC  C21720609   2.929   0.839   8.917  0.3852  0.6057 -0.4670
  180SLPC  H17R20610   2.948   0.948   8.908 -1.1986  0.7002 -3.1053
  180SLPC  H17S20611   2.818   0.845   8.914  0.3354  3.2913  3.0458
  180SLPC  C21820612   2.993   0.778   8.799 -0.1385  0.2856 -0.6776
  180SLPC  H18R20613   2.960   0.829   8.706  1.0780  3.0619  0.3634
  180SLPC  H18S20614   2.966   0.671   8.783 -3.4566  1.3343 -2.6958
  180SLPC  H18T20615   3.103   0.787   8.807 -0.1910 -1.0292  1.8818
  180SLPC   C3320616   3.037   1.411   9.943 -0.5602 -0.5662  0.6349
  180SLPC   H3X20617   3.079   1.513   9.952 -1.2630 -0.1793 -0.4073
  180SLPC   H3Y20618   2.952   1.424   9.872 -0.4864  2.2234  1.0082
  180SLPC   C3420619   3.139   1.304   9.888 -0.7039 -0.4022  0.2685
  180SLPC   H4X20620   3.087   1.206   9.891  1.4567 -1.5787  0.0883
  180SLPC   H4Y20621   3.229   1.285   9.951  0.1667 -0.7072 -1.0359
  180SLPC   C3520622   3.183   1.329   9.739  0.0244  0.1757  0.5468
  180SLPC   H5X20623   3.267   1.400   9.752  1.0810 -0.6941 -1.2464
  180SLPC   H5Y20624   3.099   1.376   9.684 -0.3667  0.6295  1.5249
  180SLPC   C3620625   3.222   1.196   9.676  0.4813 -0.4403  0.2367
  180SLPC   H6X20626   3.123   1.149   9.657  1.0403 -1.4277 -0.3287
  180SLPC   H6Y20627   3.292   1.134   9.737  1.4331  1.2308  0.8872
  180SLPC   C3720628   3.286   1.217   9.541 -0.7925 -0.0343  0.4027
  180SLPC   H7X20629   3.380   1.276   9.551 -0.1436 -0.8175 -1.0554
  180SLPC   H7Y20630   3.217   1.281   9.481 -1.0540 -0.2193  0.5033
  180SLPC   C3820631   3.313   1.082   9.476  0.4375  0.4215  0.1466
  180SLPC   H8X20632   3.220   1.021   9.465 -0.5776  2.0325 -0.3145
  180SLPC   H8Y20633   3.379   1.026   9.546  1.8029  1.3701 -0.3778
  180SLPC   C3920634   3.384   1.098   9.342 -0.3518  0.9160 -0.3965
  180SLPC   H9X20635   3.484   1.147   9.349 -0.1145  0.3347  0.2540
  180SLPC   H9Y20636   3.312   1.153   9.277 -1.5826  1.4763  1.4202
  180SLPC  C31020637   3.399   0.960   9.267 -0.1341 -0.0155 -0.1006
  180SLPC  H10X20638   3.300   0.926   9.230 -1.2645 -1.5616  3.9881
  180SLPC  H10Y20639   3.433   0.878   9.334 -0.7118 -0.5498 -0.4644
  180SLPC  C31120640   3.481   0.957   9.139  0.2310 -0.3391 -0.4476
  180SLPC  H11X20641   3.448   1.051   9.089  1.7660  0.4253 -0.0625
  180SLPC  H11Y20642   3.449   0.873   9.075  0.4277  1.1557 -2.5626
  180SLPC  C31220643   3.637   0.941   9.145 -0.9184  0.0811 -1.0256
  180SLPC  H12X20644   3.657   0.853   9.209  2.6760  0.2128 -1.8519
  180SLPC  H12Y20645   3.666   1.034   9.199 -0.2188 -1.0213  0.5096
  180SLPC  C31320646   3.699   0.926   9.001 -0.4799  0.2057 -0.3199
  180SLPC  H13X20647   3.643   0.837   8.963 -0.3266  0.2510 -0.6488
  180SLPC  H13Y20648   3.809   0.918   9.016 -0.3694  1.7459 -0.2427
  180SLPC  C31420649   3.678   1.055   8.917 -0.5927 -0.1898  0.1375
  180SLPC  H14X20650   3.578   1.097   8.943 -2.2063 -1.9286 -3.0414
  180SLPC  H14Y20651   3.688   1.034   8.809 -1.6857 -0.4896  0.0869
  180SLPC  C31520652   3.780   1.162   8.963 -0.8582  0.5113  0.3089
  180SLPC  H15X20653   3.848   1.197   8.883  1.6032 -0.2879  1.9782
  180SLPC  H15Y20654   3.842   1.122   9.046 -2.3538  0.9649  1.6731
  180SLPC  C31620655   3.712   1.279   9.027  0.1047  0.0104 -0.1772
  180SLPC  H16X20656   3.628   1.237   9.086 -0.3666  1.3205  0.1061
  180SLPC  H16Y20657   3.667   1.341   8.946 -2.1224 -0.6369  0.5359
  180SLPC  C31720658   3.797   1.362   9.128 -0.1473  1.0766 -0.0641
  180SLPC  H17X20659   3.893   1.403   9.090  1.2285 -0.6328  1.4026
  180SLPC  H17Y20660   3.827   1.288   9.206 -1.1848  0.9521  0.2177
  180SLPC  C31820661   3.724   1.464   9.208  0.1445 -0.3883 -0.1148
  180SLPC  H18X20662   3.633   1.417   9.249  0.1926 -0.3054  0.0885
  180SLPC  H18Y20663   3.693   1.544   9.137  0.9471 -1.3493 -1.5754
  180SLPC  H18Z20664   3.781   1.516   9.288 -1.0780  2.2577 -0.8791
  181SLPC     N20665   5.839   4.426  10.962 -0.5462 -0.2144 -0.0599
  181SLPC   C1320666   5.868   4.480  11.102  1.1608 -0.2633 -0.0670
  181SLPC  H13A20667   5.780   4.488  11.164  0.8407 -0.2528 -0.5213
  181SLPC  H13B20668   5.943   4.426  11.158  0.0476  0.9698  2.7106
  181SLPC  H13C20669   5.914   4.578  11.098  2.1498 -0.4785  3.9692
  181SLPC   C1420670   5.699   4.464  10.918 -0.0184 -0.7629  0.3245
  181SLPC  H14A20671   5.681   4.442  10.814 -0.4074 -0.1206  0.2574
  181SLPC  H14B20672   5.624   4.404  10.968 -1.4466  0.2547 -0.5693
  181SLPC  H14C20673   5.677   4.567  10.942  0.9219 -0.5945  0.4926
  181SLPC   C1520674   5.850   4.278  10.994 -0.5633  0.4754 -0.4854
  181SLPC  H15A20675   5.856   4.211  10.910  0.1520  1.3495 -1.1387
  181SLPC  H15B20676   5.943   4.268  11.049 -0.4619  0.2007 -0.7101
  181SLPC  H15C20677   5.772   4.238  11.057 -0.3748 -2.0690 -1.8149
  181SLPC   C1220678   5.949   4.475  10.870 -1.2340  0.4692  0.0839
  181SLPC  H12A20679   5.948   4.414  10.780  0.5716  2.4034 -1.2821
  181SLPC  H12B20680   6.046   4.458  10.913 -0.5960 -2.3975 -2.2946
  181SLPC   C1120681   5.953   4.623  10.828  0.5846  0.8975  0.6050
  181SLPC  H11A20682   5.852   4.651  10.792  0.4569  1.6575  1.5132
  181SLPC  H11B20683   6.027   4.630  10.746  0.7016 -3.4412  0.2223
  181SLPC     P20684   6.133   4.701  10.995 -0.0069  0.0594 -0.1246
  181SLPC   O1320685   6.147   4.774  11.121  0.6341  0.7473  0.2498
  181SLPC   O1420686   6.183   4.561  10.996 -0.0865 -0.1909  0.4421
  181SLPC   O1220687   5.985   4.706  10.941 -0.6115 -0.7603  0.1815
  181SLPC   O1120688   6.215   4.775  10.886 -0.3362 -0.2269 -0.1996
  181SLPC    C120689   6.192   4.911  10.848  0.1951 -0.1747 -0.6110
  181SLPC    HA20690   6.131   4.963  10.925  0.0623 -3.8433  1.9273
  181SLPC    HB20691   6.293   4.953  10.867 -0.3180 -0.1599  2.4556
  181SLPC    C220692   6.138   4.929  10.705 -0.2806 -0.3190 -0.3125
  181SLPC    HS20693   6.134   5.033  10.668 -1.5123  0.3841  1.7204
  181SLPC   O2120694   6.004   4.882  10.690 -0.4438 -0.4738 -0.2133
  181SLPC   C2120695   5.904   4.937  10.757 -0.1406  0.1967  0.0778
  181SLPC   O2220696   5.909   5.032  10.831  0.3735 -0.3277  0.6547
  181SLPC   C2220697   5.779   4.895  10.681  0.2211 -0.0381  0.0519
  181SLPC   H2R20698   5.791   4.795  10.634  0.6287  0.5331 -1.0854
  181SLPC   H2S20699   5.691   4.881  10.748 -0.4475  1.1693 -0.5551
  181SLPC    C320700   6.228   4.856  10.602  0.0275  0.3646 -0.0180
  181SLPC    HX20701   6.233   4.748  10.625 -0.8907  0.4299  0.4753
  181SLPC    HY20702   6.330   4.900  10.610 -0.4198  1.4746 -0.3492
  181SLPC   O3120703   6.187   4.878  10.463  0.2112 -0.1970  0.0720
  181SLPC   C3120704   6.103   4.779  10.408 -0.1192 -0.0903 -0.4363
  181SLPC   O3220705   6.077   4.674  10.461  0.1573  0.3974  0.2863
  181SLPC   C3220706   6.073   4.806  10.262  0.0529 -0.7970 -0.7391
  181SLPC   H2X20707   6.134   4.895  10.235 -0.7522  0.3331  1.0341
  181SLPC   H2Y20708   5.969   4.845  10.254  1.5624  3.0701 -2.4041
  181SLPC   C2320709   5.729   4.993  10.571  0.3522 -0.4823 -0.2709
  181SLPC   H3R20710   5.810   5.045  10.517  0.5450 -1.2214 -0.6946
  181SLPC   H3S20711   5.689   5.079  10.629  2.4807 -0.2311  0.8737
  181SLPC   C2420712   5.630   4.950  10.462 -0.2078 -0.1827 -0.3287
  181SLPC   H4R20713   5.588   5.036  10.406 -2.2471 -0.9124  0.0320
  181SLPC   H4S20714   5.532   4.911  10.498 -0.7707  1.4842  0.0368
  181SLPC   C2520715   5.697   4.849  10.369 -0.1652  0.0499  0.3534
  181SLPC   H5R20716   5.751   4.760  10.406  1.5167  0.7858 -0.2893
  181SLPC   H5S20717   5.778   4.909  10.320 -1.0739  0.4937 -0.6424
  181SLPC   C2620718   5.597   4.794  10.263  0.9438  0.2231 -0.3721
  181SLPC   H6R20719   5.528   4.875  10.234 -0.6104 -0.8127  0.3665
  181SLPC   H6S20720   5.531   4.717  10.309  0.3496 -1.2747 -3.6005
  181SLPC   C2720721   5.659   4.725  10.141  0.0234  0.5029  0.4337
  181SLPC   H7R20722   5.704   4.628  10.168  2.3674  2.2230  2.9194
  181SLPC   H7S20723   5.733   4.797  10.100 -1.0037  1.4312  0.1543
  181SLPC   C2820724   5.554   4.702  10.026 -0.3986  0.3084 -0.5214
  181SLPC   H8R20725   5.522   4.802   9.992 -0.6772 -0.1248 -1.5600
  181SLPC   H8S20726   5.473   4.650  10.082 -1.1966 -0.2812 -2.1995
  181SLPC   C2920727   5.606   4.621   9.906 -0.0378 -0.1109  0.0170
  181SLPC   H9R20728   5.647   4.520   9.924  1.8533  1.0117  2.2774
  181SLPC  C21020729   5.614   4.669   9.783 -0.4651 -0.1691  0.4348
  181SLPC  H10R20730   5.671   4.610   9.710 -1.3784 -1.2396  0.5570
  181SLPC  C21120731   5.568   4.805   9.749  0.3392 -0.0041  0.1270
  181SLPC  H11R20732   5.632   4.873   9.809  0.9983 -1.7542  1.4729
  181SLPC  H11S20733   5.468   4.829   9.791 -1.3669 -0.1509 -3.7054
  181SLPC  C21220734   5.571   4.842   9.604 -0.3406  0.1209 -1.0778
  181SLPC  H12R20735   5.621   4.937   9.581 -0.7906  0.8453  0.8100
  181SLPC  C21320736   5.518   4.775   9.500  0.0628 -0.0356  0.0403
  181SLPC  H13R20737   5.517   4.827   9.403 -0.2414  1.8267  1.0229
  181SLPC  C21420738   5.450   4.645   9.508 -0.1147  0.1772 -0.2231
  181SLPC  H14R20739   5.350   4.666   9.464  0.7919 -0.8465 -2.9150
  181SLPC  H14S20740   5.427   4.606   9.609  1.6050 -0.5051 -0.0707
  181SLPC  C21520741   5.523   4.529   9.437 -0.2920  0.2799 -0.5182
  181SLPC  H15R20742   5.474   4.434   9.467  0.4350 -0.4182 -1.5334
  181SLPC  H15S20743   5.625   4.525   9.482  1.1864 -0.2917 -3.8106
  181SLPC  C21620744   5.513   4.541   9.285 -0.5964  0.0832 -0.1964
  181SLPC  H16R20745   5.606   4.487   9.260  0.9488  3.1776 -1.4210
  181SLPC  H16S20746   5.524   4.646   9.248  2.4644 -0.2803 -0.4056
  181SLPC  C21720747   5.405   4.463   9.223  1.0757 -0.2602  0.4340
  181SLPC  H17R20748   5.306   4.498   9.257  1.3067 -0.2098  1.0679
  181SLPC  H17S20749   5.405   4.355   9.249  0.4430 -0.5205 -0.5904
  181SLPC  C21820750   5.411   4.474   9.071  0.2908  0.0118 -0.2509
  181SLPC  H18R20751   5.385   4.580   9.049 -1.4629 -0.3886 -0.1611
  181SLPC  H18S20752   5.345   4.403   9.019  1.8000 -0.7015 -1.2412
  181SLPC  H18T20753   5.517   4.458   9.040  1.3589  1.3623  2.4954
  181SLPC   C3320754   6.090   4.681  10.171  0.2948  0.1401 -0.1596
  181SLPC   H3X20755   6.008   4.616  10.207  1.4449 -0.0761  2.1654
  181SLPC   H3Y20756   6.186   4.625  10.179  0.9129  1.6208  3.4335
  181SLPC   C3420757   6.060   4.717  10.021  0.3453  1.1063 -0.2363
  181SLPC   H4X20758   6.142   4.775   9.972  1.0071 -1.7238 -2.6103
  181SLPC   H4Y20759   5.962   4.768  10.010 -0.3030 -0.1140 -0.1868
  181SLPC   C3520760   6.050   4.577   9.955  0.2350  0.8177 -0.6149
  181SLPC   H5X20761   5.980   4.512  10.012  1.6217  0.6358  0.9129
  181SLPC   H5Y20762   6.145   4.523   9.971  0.5283  1.8746  1.5198
  181SLPC   C3620763   6.031   4.582   9.802  0.6987 -0.2554  0.4298
  181SLPC   H6X20764   6.105   4.650   9.754 -2.4908  1.8528 -1.7204
  181SLPC   H6Y20765   5.935   4.634   9.782  1.4149  0.1480 -2.2445
  181SLPC   C3720766   6.043   4.444   9.738  0.0285  0.4265 -0.2343
  181SLPC   H7X20767   5.975   4.371   9.789  1.9386 -0.8533  0.5262
  181SLPC   H7Y20768   6.149   4.411   9.744 -0.2416 -0.3039  0.7295
  181SLPC   C3820769   6.002   4.442   9.586  0.4188  0.2017 -0.1515
  181SLPC   H8X20770   6.086   4.494   9.535  1.3422  0.6656  1.7824
  181SLPC   H8Y20771   5.917   4.512   9.576 -1.0097 -1.1365  2.1222
  181SLPC   C3920772   5.972   4.298   9.549 -0.3395  0.0378 -0.8302
  181SLPC   H9X20773   5.885   4.252   9.601  1.4289  0.2080  2.4179
  181SLPC   H9Y20774   6.060   4.237   9.579 -0.5343  0.0257 -0.2611
  181SLPC  C31020775   5.951   4.274   9.400  0.0767  0.5726 -0.4346
  181SLPC  H10X20776   5.883   4.352   9.361 -0.3706 -0.2001 -1.2246
  181SLPC  H10Y20777   5.907   4.173   9.384  0.7777 -0.4612  3.5202
  181SLPC  C31120778   6.082   4.292   9.324  0.4945 -0.6079 -0.1809
  181SLPC  H11X20779   6.169   4.236   9.363  1.1030 -0.1506 -0.8819
  181SLPC  H11Y20780   6.112   4.397   9.344  1.4471 -0.9576  0.2413
  181SLPC  C31220781   6.071   4.273   9.176  0.6856  0.1634  0.5021
  181SLPC  H12X20782   5.999   4.344   9.129 -0.1823 -0.3725  1.0060
  181SLPC  H12Y20783   6.035   4.172   9.146  3.0723 -0.5201 -0.1354
  181SLPC  C31320784   6.210   4.282   9.113  0.2893  0.9454  0.3216
  181SLPC  H13X20785   6.273   4.211   9.171 -0.8117 -0.8042 -0.5591
  181SLPC  H13Y20786   6.259   4.380   9.130 -1.1010  1.6767  0.1310
  181SLPC  C31420787   6.217   4.257   8.967  0.2675  0.8272 -0.7154
  181SLPC  H14X20788   6.167   4.343   8.918 -1.1501  0.3152 -0.1650
  181SLPC  H14Y20789   6.162   4.168   8.931 -0.8954  1.1774  0.1795
  181SLPC  C31520790   6.358   4.262   8.912  0.0804 -0.2750  0.6088
  181SLPC  H15X20791   6.409   4.167   8.940  0.6491  0.2469  1.3587
  181SLPC  H15Y20792   6.419   4.348   8.948 -0.8748  0.4634  0.4747
  181SLPC  C31620793   6.377   4.277   8.758 -0.3363 -0.0176 -0.6174
  181SLPC  H16X20794   6.326   4.193   8.707 -0.4197  0.4618 -1.3251
  181SLPC  H16Y20795   6.487   4.281   8.743 -0.0524 -3.0485  0.3486
  181SLPC  C31720796   6.324   4.405   8.691  0.2071 -0.6138 -0.1723
  181SLPC  H17X20797   6.215   4.407   8.716  0.3278 -0.9373  0.3849
  181SLPC  H17Y20798   6.334   4.389   8.582 -0.4812 -1.4806 -0.1174
  181SLPC  C31820799   6.394   4.535   8.734 -0.3800  0.2612  0.7650
  181SLPC  H18X20800   6.504   4.528   8.722 -0.7496 -3.5352 -1.2449
  181SLPC  H18Y20801   6.367   4.577   8.833  0.8137  0.8852  0.8284
  181SLPC  H18Z20802   6.374   4.614   8.659  0.0677 -0.6491 -0.3298
  182SLPC     N20803   4.080   6.495  11.300 -0.4085 -0.7626  0.1743
  182SLPC   C1320804   4.158   6.426  11.409 -0.2240  0.4679 -0.1122
  182SLPC  H13A20805   4.129   6.464  11.505 -0.0640  1.7066 -0.5421
  182SLPC  H13B20806   4.152   6.320  11.390 -1.6236  0.4016  0.6823
  182SLPC  H13C20807   4.263   6.451  11.404 -0.2415  0.5947  0.2000
  182SLPC   C1420808   4.114   6.638  11.290 -0.0918 -0.1167 -1.1811
  182SLPC  H14A20809   4.086   6.689  11.381 -0.3330  1.1118 -1.9318
  182SLPC  H14B20810   4.221   6.650  11.282 -0.2838  0.5346 -2.9950
  182SLPC  H14C20811   4.071   6.690  11.205  0.0687  1.6057 -0.2340
  182SLPC   C1520812   3.934   6.500  11.342 -0.0543  0.5141 -0.8134
  182SLPC  H15A20813   3.917   6.397  11.370  0.4039  0.7975  0.5307
  182SLPC  H15B20814   3.909   6.573  11.418 -1.5852 -1.7570  0.9477
  182SLPC  H15C20815   3.873   6.509  11.254 -1.2986 -0.2543 -0.0416
  182SLPC   C1220816   4.105   6.423  11.166 -0.3193  0.6907  0.3878
  182SLPC  H12A20817   4.077   6.319  11.171 -0.0827  0.4586 -2.6657
  182SLPC  H12B20818   4.211   6.427  11.149 -0.3236  0.3026  0.2655
  182SLPC   C1120819   4.017   6.469  11.048  0.0880  0.1812 -0.1707
  182SLPC  H11A20820   4.057   6.422  10.956 -0.7262  0.2814 -0.5764
  182SLPC  H11B20821   4.020   6.579  11.027 -2.5117  0.4859  0.8635
  182SLPC     P20822   3.841   6.281  11.036 -0.1192 -0.2052 -0.3068
  182SLPC   O1320823   3.957   6.197  11.088  0.4766  0.3053  0.0883
  182SLPC   O1420824   3.706   6.251  11.082  0.5414 -0.7937 -0.7538
  182SLPC   O1220825   3.877   6.440  11.072  0.6795 -0.4262 -0.0026
  182SLPC   O1120826   3.839   6.270  10.877 -0.0940  0.0178 -0.3918
  182SLPC    C120827   3.744   6.345  10.799  0.3560 -1.0329 -0.6306
  182SLPC    HA20828   3.640   6.307  10.809  0.3927 -1.0036 -0.0899
  182SLPC    HB20829   3.734   6.453  10.824  1.7153 -1.2172  0.7750
  182SLPC    C220830   3.774   6.354  10.648  0.1767 -0.1031  0.2086
  182SLPC    HS20831   3.678   6.387  10.601  0.0892 -1.3863 -0.5461
  182SLPC   O2120832   3.800   6.227  10.595  0.3634  0.0737  0.3361
  182SLPC   C2120833   3.704   6.145  10.571 -0.0890 -0.3491  0.1217
  182SLPC   O2220834   3.586   6.175  10.568 -0.0006 -0.1643  0.2240
  182SLPC   C2220835   3.766   6.002  10.543 -0.8301  0.2347 -1.0840
  182SLPC   H2R20836   3.876   6.016  10.539 -0.7935  0.1504 -0.3905
  182SLPC   H2S20837   3.744   5.943  10.635  1.5527  1.9428  0.6513
  182SLPC    C320838   3.894   6.447  10.612 -0.8224  0.4980 -0.1273
  182SLPC    HX20839   3.979   6.412  10.674 -0.6319  2.6019  0.8567
  182SLPC    HY20840   3.874   6.545  10.662  0.8585  2.4396 -3.1057
  182SLPC   O3120841   3.917   6.453  10.471  0.2644 -0.1366 -0.3808
  182SLPC   C3120842   4.014   6.367  10.432  0.5353  0.3358 -0.0964
  182SLPC   O3220843   4.088   6.306  10.507  0.5061 -0.3070  0.2388
  182SLPC   C3220844   4.042   6.405  10.286  0.0972 -0.4591  0.4438
  182SLPC   H2X20845   4.137   6.353  10.262  0.3236 -0.8062  1.9982
  182SLPC   H2Y20846   4.061   6.513  10.275 -0.1780 -0.4015  0.5176
  182SLPC   C2320847   3.715   5.941  10.412  0.0890  0.7448 -0.1815
  182SLPC   H3R20848   3.606   5.944  10.392  0.0581 -1.6680 -0.5705
  182SLPC   H3S20849   3.736   5.832  10.410 -0.1027  0.7208 -2.6003
  182SLPC   C2420850   3.774   6.019  10.294  0.2860 -0.0728  0.1788
  182SLPC   H4R20851   3.881   6.040  10.314  0.0333 -0.1331  1.6752
  182SLPC   H4S20852   3.727   6.118  10.282  0.4836  0.1133  0.8860
  182SLPC   C2520853   3.757   5.935  10.174 -0.1776  0.6520 -0.2009
  182SLPC   H5R20854   3.653   5.897  10.170  0.2031 -0.8394  2.5224
  182SLPC   H5S20855   3.814   5.841  10.191  0.2306  0.7092 -1.2644
  182SLPC   C2620856   3.817   5.987  10.038  0.4671 -0.1614 -0.1206
  182SLPC   H6R20857   3.841   5.889   9.992  1.6003  0.6678 -1.3240
  182SLPC   H6S20858   3.914   6.039  10.052 -0.2860  0.3932  3.6114
  182SLPC   C2720859   3.708   6.070   9.969  0.1242 -0.0635  0.2116
  182SLPC   H7R20860   3.729   6.172  10.007  2.3576 -0.8521  1.2114
  182SLPC   H7S20861   3.612   6.032  10.009  0.6724 -1.1751  0.5076
  182SLPC   C2820862   3.711   6.063   9.811  0.5010  0.6277 -0.0345
  182SLPC   H8R20863   3.614   6.102   9.775 -0.3532 -0.0911  1.4304
  182SLPC   H8S20864   3.703   5.956   9.781 -2.0807  0.9809 -0.7451
  182SLPC   C2920865   3.827   6.135   9.750  0.3976 -0.4646  0.8737
  182SLPC   H9R20866   3.861   6.233   9.786 -0.1696  1.2237 -2.9775
  182SLPC  C21020867   3.904   6.083   9.647 -0.1828  0.9631 -0.9359
  182SLPC  H10R20868   3.985   6.147   9.608  0.8353 -0.2761 -0.8898
  182SLPC  C21120869   3.888   5.952   9.570  0.1274  0.5151  0.1103
  182SLPC  H11R20870   3.780   5.923   9.571  0.1507  0.4163 -0.1203
  182SLPC  H11S20871   3.940   5.872   9.628  3.1566  0.1947 -2.9524
  182SLPC  C21220872   3.926   5.950   9.424 -0.2631 -0.4028 -0.0304
  182SLPC  H12R20873   3.839   5.927   9.361 -1.0681  0.8665  0.6075
  182SLPC  C21320874   4.044   5.974   9.365  0.1390 -0.2144 -0.0048
  182SLPC  H13R20875   4.059   5.968   9.256 -1.8946  3.0062 -0.5217
  182SLPC  C21420876   4.166   6.007   9.442  0.2919  0.1419  0.6886
  182SLPC  H14R20877   4.139   6.035   9.546 -1.1524  0.9654  0.1063
  182SLPC  H14S20878   4.204   6.106   9.408  0.9327  0.1355  1.3749
  182SLPC  C21520879   4.267   5.892   9.447 -0.1764 -0.2716  0.0941
  182SLPC  H15R20880   4.212   5.800   9.472  1.7883 -1.1728  1.2424
  182SLPC  H15S20881   4.341   5.907   9.529  0.3387  0.3380 -0.4725
  182SLPC  C21620882   4.338   5.853   9.316 -0.3076 -0.1526  0.5519
  182SLPC  H16R20883   4.356   5.950   9.265 -0.9347 -0.3532 -0.0598
  182SLPC  H16S20884   4.270   5.806   9.242 -0.5001  0.8118  0.1108
  182SLPC  C21720885   4.480   5.807   9.322  0.0877  0.3852 -0.0065
  182SLPC  H17R20886   4.471   5.718   9.388 -0.8820  2.8439  3.3034
  182SLPC  H17S20887   4.545   5.867   9.389  0.6882 -0.3721  0.0858
  182SLPC  C21820888   4.544   5.786   9.189 -0.4224 -0.2580  0.2296
  182SLPC  H18R20889   4.489   5.710   9.130  0.4584  0.6488 -1.7906
  182SLPC  H18S20890   4.645   5.741   9.201 -0.2258 -0.0794 -0.6967
  182SLPC  H18T20891   4.553   5.881   9.131 -0.6300 -0.9167 -0.8772
  182SLPC   C3320892   3.930   6.350  10.194 -0.6573  0.1576 -0.5847
  182SLPC   H3X20893   3.834   6.336  10.248  0.8868 -2.8611  1.5753
  182SLPC   H3Y20894   3.961   6.250  10.156 -4.1097 -1.0540 -0.4107
  182SLPC   C3420895   3.906   6.442  10.073  0.6389  0.1926  0.0758
  182SLPC   H4X20896   3.889   6.548  10.102 -0.7238 -0.0832  0.3591
  182SLPC   H4Y20897   3.814   6.403  10.023  0.3490 -2.3066  2.4073
  182SLPC   C3520898   4.025   6.433   9.977 -0.2689 -0.7930  0.5385
  182SLPC   H5X20899   4.062   6.329   9.966 -0.1532 -0.6014 -1.0319
  182SLPC   H5Y20900   4.107   6.494  10.018 -0.6916  2.2138 -2.8013
  182SLPC   C3620901   3.986   6.476   9.832 -0.5454  0.2182  0.6958
  182SLPC   H6X20902   3.961   6.584   9.839 -1.7146  0.0187 -0.2846
  182SLPC   H6Y20903   3.881   6.442   9.815 -0.1671  0.4976 -2.5161
  182SLPC   C3720904   4.091   6.433   9.727  0.9126 -0.2662 -0.0989
  182SLPC   H7X20905   4.091   6.322   9.725 -1.0922 -0.2597 -1.9884
  182SLPC   H7Y20906   4.193   6.462   9.761  1.4847  0.5905 -2.4792
  182SLPC   C3820907   4.058   6.476   9.583  0.3907  0.1340  0.2414
  182SLPC   H8X20908   4.045   6.586   9.576  1.5944  0.4512  2.3715
  182SLPC   H8Y20909   3.963   6.429   9.553  0.2398 -0.3536  1.4529
  182SLPC   C3920910   4.154   6.423   9.476  0.4694  0.1237 -0.6160
  182SLPC   H9X20911   4.191   6.321   9.502  0.9567  0.9563  2.0856
  182SLPC   H9Y20912   4.245   6.484   9.456 -0.4774  2.5895  2.1903
  182SLPC  C31020913   4.068   6.399   9.346 -0.5990  1.0572  0.1810
  182SLPC  H10X20914   3.996   6.483   9.338  0.9844  2.3382 -0.8812
  182SLPC  H10Y20915   4.001   6.311   9.358  3.0974 -1.5563  2.7355
  182SLPC  C31120916   4.163   6.394   9.223 -0.6353 -0.9027  0.3619
  182SLPC  H11X20917   4.246   6.326   9.254  0.2285 -0.2958 -0.5742
  182SLPC  H11Y20918   4.209   6.492   9.198 -1.6097 -0.2764  1.0323
  182SLPC  C31220919   4.120   6.325   9.100 -0.1127  0.2189  0.3353
  182SLPC  H12X20920   4.047   6.379   9.036 -0.4525  0.8226  1.2293
  182SLPC  H12Y20921   4.073   6.225   9.114 -2.7043  0.7033 -4.0660
  182SLPC  C31320922   4.236   6.305   9.000 -0.4534 -0.2362 -0.3579
  182SLPC  H13X20923   4.281   6.211   9.037 -1.6888 -0.3073  1.0246
  182SLPC  H13Y20924   4.305   6.391   9.014  0.3666 -0.9490  0.0091
  182SLPC  C31420925   4.197   6.294   8.860  0.0392 -0.2887 -0.1190
  182SLPC  H14X20926   4.294   6.280   8.807  0.5444 -2.0096  1.2371
  182SLPC  H14Y20927   4.150   6.389   8.824  0.4636  0.7999  2.0869
  182SLPC  C31520928   4.097   6.177   8.836 -0.3974  0.6993  0.3588
  182SLPC  H15X20929   4.015   6.198   8.907 -0.4675  0.6959  0.2775
  182SLPC  H15Y20930   4.139   6.079   8.868  1.3379  0.3576 -2.7531
  182SLPC  C31620931   4.055   6.166   8.689 -0.3128  0.5528  0.3326
  182SLPC  H16X20932   4.139   6.150   8.617 -0.9996  2.0486 -0.8312
  182SLPC  H16Y20933   3.997   6.256   8.659 -1.2141 -0.0544  0.2204
  182SLPC  C31720934   3.953   6.055   8.669 -0.0836  0.4452 -0.5655
  182SLPC  H17X20935   3.918   6.065   8.564 -0.0939  0.9241 -0.5190
  182SLPC  H17Y20936   3.860   6.082   8.723 -1.2680  0.7890 -2.7372
  182SLPC  C31820937   3.996   5.913   8.713 -0.2081 -0.3460 -0.2402
  182SLPC  H18X20938   3.961   5.831   8.646  3.1531 -0.3867 -2.0357
  182SLPC  H18Y20939   3.985   5.894   8.821  2.2839  0.2709  0.1560
  182SLPC  H18Z20940   4.106   5.926   8.713 -0.4697  2.2501  0.1171
  183SLPC     N20941   5.854   6.747  11.223 -0.0318 -0.2357 -0.6626
  183SLPC   C1320942   5.776   6.839  11.309 -0.5493 -0.1362 -0.2731
  183SLPC  H13A20943   5.699   6.886  11.250  1.6790  2.0548 -1.5255
  183SLPC  H13B20944   5.723   6.783  11.385 -1.0461  0.5540 -0.1080
  183SLPC  H13C20945   5.834   6.909  11.367 -0.9079 -0.0863  0.0243
  183SLPC   C1420946   5.770   6.631  11.183  0.3796  0.4289 -0.3322
  183SLPC  H14A20947   5.699   6.655  11.106  0.9554  0.1117 -0.9637
  183SLPC  H14B20948   5.836   6.557  11.138  0.1809 -0.1872  0.3838
  183SLPC  H14C20949   5.721   6.596  11.273 -2.0776  2.5953 -0.7564
  183SLPC   C1520950   5.973   6.690  11.301 -0.3839  0.1475  0.4755
  183SLPC  H15A20951   6.036   6.767  11.343 -0.2310  0.8116 -0.9740
  183SLPC  H15B20952   5.942   6.604  11.359  1.4622 -0.9727 -0.1773
  183SLPC  H15C20953   6.044   6.650  11.231 -1.4281  0.3617 -0.7191
  183SLPC   C1220954   5.912   6.825  11.105 -0.1416 -0.3290  1.0496
  183SLPC  H12A20955   5.977   6.907  11.132 -0.1850  0.1811 -0.3891
  183SLPC  H12B20956   5.829   6.878  11.061 -1.0785 -1.8282  0.9427
  183SLPC   C1120957   5.976   6.744  10.991 -0.0483  0.1333 -0.8476
  183SLPC  H11A20958   6.009   6.813  10.910 -0.4098  2.5431  1.0125
  183SLPC  H11B20959   5.903   6.675  10.943  0.4043  0.0065 -1.3646
  183SLPC     P20960   6.128   6.525  10.975  0.2632  0.3506 -0.2886
  183SLPC   O1320961   6.266   6.488  11.009 -0.1858 -0.3058 -0.5296
  183SLPC   O1420962   6.021   6.427  11.014  0.0574  0.0816 -0.1228
  183SLPC   O1220963   6.094   6.666  11.032 -0.4620 -1.0295 -0.1548
  183SLPC   O1120964   6.133   6.526  10.820 -0.6376 -0.0100  0.1683
  183SLPC    C120965   6.144   6.647  10.744 -0.2762 -0.1032 -0.0088
  183SLPC    HA20966   6.047   6.687  10.710 -0.1381  0.8664  0.7382
  183SLPC    HB20967   6.189   6.727  10.806 -0.5035  0.0222 -0.0074
  183SLPC    C220968   6.241   6.632  10.623  0.0784 -0.6623 -0.7780
  183SLPC    HS20969   6.247   6.731  10.574  2.2627  0.1751  1.1106
  183SLPC   O2120970   6.206   6.520  10.537 -0.1551  0.3799 -0.5959
  183SLPC   C2120971   6.227   6.546  10.415  0.6201  0.1981 -0.1440
  183SLPC   O2220972   6.297   6.637  10.368  0.0226 -0.0508  0.0955
  183SLPC   C2220973   6.166   6.435  10.330 -0.7191 -0.6404 -0.3145
  183SLPC   H2R20974   6.257   6.380  10.297  0.1957  0.1779  0.8130
  183SLPC   H2S20975   6.112   6.358  10.390  0.0996 -0.6769  0.3865
  183SLPC    C320976   6.390   6.611  10.685  0.7366  0.1926 -0.0463
  183SLPC    HX20977   6.379   6.512  10.733 -1.0093 -0.2118 -1.2152
  183SLPC    HY20978   6.397   6.695  10.757 -0.6277  0.5016 -0.2719
  183SLPC   O3120979   6.498   6.618  10.591 -0.3449 -0.5645 -0.3941
  183SLPC   C3120980   6.619   6.594  10.643  0.3358  0.5531 -0.8500
  183SLPC   O3220981   6.634   6.550  10.757 -0.2755  0.1528 -0.1688
  183SLPC   C3220982   6.717   6.632  10.538 -0.3081  0.4917  0.4027
  183SLPC   H2X20983   6.819   6.608  10.576 -0.0426  0.9629  0.0060
  183SLPC   H2Y20984   6.709   6.743  10.533 -0.8369  0.4353 -0.0730
  183SLPC   C2320985   6.082   6.472  10.209  0.0670  0.0288  0.7783
  183SLPC   H3R20986   6.129   6.563  10.164  2.3609 -1.6833 -0.4276
  183SLPC   H3S20987   5.979   6.502  10.236  0.7757  1.9599  1.4530
  183SLPC   C2420988   6.077   6.364  10.102  0.0256 -0.0207  0.3619
  183SLPC   H4R20989   6.064   6.259  10.138 -1.4196  0.5886  1.6565
  183SLPC   H4S20990   6.177   6.364  10.054 -0.3008  0.3825 -0.3167
  183SLPC   C2520991   5.966   6.399  10.003 -0.9870 -0.6983 -0.1466
  183SLPC   H5R20992   5.980   6.507   9.979 -1.3786 -0.8500 -1.0733
  183SLPC   H5S20993   5.866   6.398  10.052 -0.4804 -3.0925  0.8977
  183SLPC   C2620994   5.976   6.306   9.879 -0.3203  0.1650 -0.5093
  183SLPC   H6R20995   5.969   6.200   9.911 -1.5128  0.3426 -0.1636
  183SLPC   H6S20996   6.073   6.325   9.828 -1.8070  2.2823 -2.6670
  183SLPC   C2720997   5.871   6.313   9.767 -0.2154 -0.6117  0.3267
  183SLPC   H7R20998   5.852   6.421   9.750  0.9412 -0.2548  1.1948
  183SLPC   H7S20999   5.779   6.259   9.796 -2.7243  2.9770 -0.6138
  183SLPC   C2821000   5.918   6.248   9.634 -0.5160  0.0823  0.2222
  183SLPC   H8R21001   5.928   6.139   9.653  1.6831  0.4788  1.5190
  183SLPC   H8S21002   6.013   6.297   9.606  0.1968 -0.3441  1.8957
  183SLPC   C2921003   5.812   6.271   9.530 -0.1802  0.4032  0.4108
  183SLPC   H9R21004   5.714   6.232   9.558 -0.6960  3.6835  3.5011
  183SLPC  C21021005   5.838   6.305   9.402 -0.0899 -0.1456  0.4850
  183SLPC  H10R21006   5.754   6.323   9.334  0.2079  1.4864  0.5433
  183SLPC  C21121007   5.971   6.352   9.341  1.2301  0.1774 -0.8807
  183SLPC  H11R21008   6.056   6.350   9.413  1.2484 -0.0489 -0.9099
  183SLPC  H11S21009   5.971   6.458   9.307  0.5411  0.6089  0.4314
  183SLPC  C21221010   6.003   6.270   9.223 -0.2570  0.4107 -0.1368
  183SLPC  H12R21011   6.056   6.176   9.243 -0.9219  0.2469  0.9092
  183SLPC  C21321012   5.967   6.291   9.097  0.0200 -0.0854  0.0276
  183SLPC  H13R21013   6.011   6.221   9.024  0.3845 -0.1387  0.2987
  183SLPC  C21421014   5.887   6.407   9.040 -0.5390 -0.1591  0.1716
  183SLPC  H14R21015   5.938   6.443   8.948 -1.2078 -1.8172 -0.8774
  183SLPC  H14S21016   5.893   6.489   9.115 -1.0908 -0.3193  0.3944
  183SLPC  C21521017   5.738   6.375   9.011 -0.1153 -0.0003 -0.8298
  183SLPC  H15R21018   5.694   6.334   9.105  0.1445  1.3903 -0.0732
  183SLPC  H15S21019   5.743   6.288   8.943  2.0000  1.9767 -3.3432
  183SLPC  C21621020   5.665   6.500   8.957 -0.8419  0.3897  0.1735
  183SLPC  H16R21021   5.723   6.537   8.869  0.0074  0.6489  0.8322
  183SLPC  H16S21022   5.661   6.577   9.037 -0.9545 -2.2592  2.7879
  183SLPC  C21721023   5.526   6.473   8.908 -0.1390 -0.1918  0.2387
  183SLPC  H17R21024   5.471   6.413   8.983  0.8103 -0.8168  0.4470
  183SLPC  H17S21025   5.524   6.426   8.807 -1.8081  0.0496  0.1451
  183SLPC  C21821026   5.448   6.609   8.888 -0.5596 -0.1302 -0.8567
  183SLPC  H18R21027   5.504   6.652   8.802  1.4083  0.7066  0.7798
  183SLPC  H18S21028   5.452   6.677   8.976  1.2384 -2.1415  0.6684
  183SLPC  H18T21029   5.339   6.596   8.872 -0.7605  0.7311 -0.2187
  183SLPC   C3321030   6.696   6.562  10.395  0.0633 -0.1738 -0.4689
  183SLPC   H3X21031   6.590   6.531  10.384 -0.1500 -0.3719  1.8385
  183SLPC   H3Y21032   6.758   6.469  10.395  2.1202  1.1161  1.6872
  183SLPC   C3421033   6.726   6.658  10.284 -0.4173  0.0624 -0.2875
  183SLPC   H4X21034   6.818   6.721  10.288 -1.0289  0.8714  3.9204
  183SLPC   H4Y21035   6.646   6.735  10.277 -0.6841 -0.1537  0.2973
  183SLPC   C3521036   6.734   6.585  10.153  0.4886 -0.3710  0.0175
  183SLPC   H5X21037   6.826   6.523  10.156 -0.1819 -1.3387  0.9490
  183SLPC   H5Y21038   6.744   6.656  10.067 -1.6499  0.2468  0.2306
  183SLPC   C3621039   6.615   6.496  10.125 -0.0360  0.2609  0.8391
  183SLPC   H6X21040   6.518   6.544  10.149 -0.5859 -0.5652  0.2475
  183SLPC   H6Y21041   6.621   6.404  10.187  0.1684 -0.6253 -0.4922
  183SLPC   C3721042   6.600   6.463   9.976 -0.2944 -0.0232 -0.8241
  183SLPC   H7X21043   6.679   6.389   9.950 -0.2272 -0.4272  0.4820
  183SLPC   H7Y21044   6.612   6.546   9.904  0.5634  0.1046 -0.5406
  183SLPC   C3821045   6.464   6.409   9.954  0.4730  0.1147  0.1195
  183SLPC   H8X21046   6.382   6.471   9.996 -1.9744 -1.5674 -2.0099
  183SLPC   H8Y21047   6.454   6.319  10.019 -0.3891 -0.3143 -0.6027
  183SLPC   C3921048   6.427   6.350   9.815 -0.5477  0.0546  0.1059
  183SLPC   H9X21049   6.327   6.302   9.819  0.6148 -2.3385  1.3815
  183SLPC   H9Y21050   6.509   6.275   9.804  1.1916  2.1256 -1.5066
  183SLPC  C31021051   6.423   6.445   9.694 -0.1055 -0.0902 -0.0674
  183SLPC  H10X21052   6.523   6.487   9.670  0.6904 -3.0534 -2.3406
  183SLPC  H10Y21053   6.349   6.523   9.719 -0.4507 -0.2343 -0.6311
  183SLPC  C31121054   6.391   6.378   9.566 -0.2269  0.3288 -0.0598
  183SLPC  H11X21055   6.294   6.325   9.564  1.1429 -2.2488  0.0030
  183SLPC  H11Y21056   6.470   6.301   9.551 -0.1798  0.1034  1.2568
  183SLPC  C31221057   6.386   6.470   9.445  0.0956 -0.0650  0.0713
  183SLPC  H12X21058   6.480   6.528   9.437  0.5327 -0.7406  0.3128
  183SLPC  H12Y21059   6.299   6.538   9.453  0.0402 -0.1679  0.3700
  183SLPC  C31321060   6.352   6.396   9.313 -0.1630 -0.7003  0.5761
  183SLPC  H13X21061   6.265   6.333   9.340  0.2766 -0.8112  1.7511
  183SLPC  H13Y21062   6.440   6.331   9.292  1.2672  0.3023  3.2518
  183SLPC  C31421063   6.315   6.488   9.196 -0.6495  0.0514 -0.1621
  183SLPC  H14X21064   6.384   6.574   9.190 -0.5206 -0.1512 -1.6165
  183SLPC  H14Y21065   6.218   6.538   9.218  0.2574  1.6852  0.2259
  183SLPC  C31521066   6.316   6.405   9.064 -0.4622 -0.2095  0.2819
  183SLPC  H15X21067   6.259   6.460   8.986  0.6926  0.3423 -0.1815
  183SLPC  H15Y21068   6.251   6.314   9.072  1.2917 -1.6507 -1.3218
  183SLPC  C31621069   6.456   6.373   9.009 -0.1527  0.6545  0.2290
  183SLPC  H16X21070   6.504   6.323   9.095  0.4453 -0.5614 -0.7832
  183SLPC  H16Y21071   6.507   6.465   8.975  1.2154 -0.0898  0.2433
  183SLPC  C31721072   6.475   6.288   8.879  0.0350  0.4845  0.2684
  183SLPC  H17X21073   6.575   6.306   8.833 -1.1370 -0.0336 -2.5922
  183SLPC  H17Y21074   6.403   6.331   8.807 -1.0437 -1.9143 -0.1177
  183SLPC  C31821075   6.444   6.143   8.898 -1.0915 -0.1825 -0.0742
  183SLPC  H18X21076   6.353   6.131   8.961 -1.1458  0.0836 -0.1023
  183SLPC  H18Y21077   6.523   6.111   8.970 -0.3230  2.1805  0.1610
  183SLPC  H18Z21078   6.449   6.081   8.806  1.9568  1.7058 -1.2430
  184SLPC     N21079   0.625   3.794  10.955  0.8337  1.2380  0.2115
  184SLPC   C1321080   0.534   3.682  11.006 -0.7910 -0.2770  0.2871
  184SLPC  H13A21081   0.491   3.707  11.102  1.7397  0.7641  1.1966
  184SLPC  H13B21082   0.450   3.673  10.938 -2.4242 -0.3448  2.2755
  184SLPC  H13C21083   0.584   3.587  11.012  0.5087  0.1727 -2.6448
  184SLPC   C1421084   0.748   3.792  11.024  0.0359  0.5316  0.4204
  184SLPC  H14A21085   0.808   3.704  11.009  0.4064  0.2867  2.9806
  184SLPC  H14B21086   0.823   3.860  10.989  0.5945 -0.0119  0.5459
  184SLPC  H14C21087   0.737   3.795  11.132  1.7813 -3.3544  0.8037
  184SLPC   C1521088   0.562   3.922  10.986 -0.1257 -0.9871 -0.3348
  184SLPC  H15A21089   0.575   3.935  11.092 -1.0878 -0.5921 -0.2577
  184SLPC  H15B21090   0.599   4.013  10.941  1.5597 -1.3419  0.3100
  184SLPC  H15C21091   0.454   3.926  10.978 -0.2089  1.9682  1.5412
  184SLPC   C1221092   0.645   3.785  10.807 -0.3795  0.0359  0.5064
  184SLPC  H12A21093   0.716   3.861  10.776 -0.3299  0.9278  2.6655
  184SLPC  H12B21094   0.554   3.812  10.757  0.1262 -1.0577 -1.0250
  184SLPC   C1121095   0.710   3.651  10.743  0.7515 -0.1640  0.3187
  184SLPC  H11A21096   0.686   3.637  10.636  0.9150  0.2098  0.2314
  184SLPC  H11B21097   0.649   3.570  10.789  0.4455 -0.5076 -0.6806
  184SLPC     P21098   0.959   3.696  10.684 -0.3295  0.1677 -0.3791
  184SLPC   O1321099   0.972   3.839  10.722 -0.2861 -0.0984 -0.3931
  184SLPC   O1421100   1.084   3.617  10.711  0.0613  0.1953  0.0349
  184SLPC   O1221101   0.848   3.636  10.785  0.6602 -0.2870 -0.1019
  184SLPC   O1121102   0.898   3.670  10.539  0.0517  0.7701  0.3480
  184SLPC    C121103   0.867   3.786  10.458 -0.0134  0.3624 -0.0615
  184SLPC    HA21104   0.766   3.826  10.484  0.2000  2.1969 -1.9393
  184SLPC    HB21105   0.938   3.872  10.460  0.2724  0.1279 -0.1553
  184SLPC    C221106   0.839   3.746  10.307 -0.5203  0.0715 -0.1812
  184SLPC    HS21107   0.923   3.694  10.256  0.0673  1.1703 -0.3463
  184SLPC   O2121108   0.795   3.864  10.245  0.3244  0.6895  0.3536
  184SLPC   C2121109   0.883   3.955  10.206  0.0064  0.0211 -0.0022
  184SLPC   O2221110   1.005   3.939  10.216 -0.4004  0.2239 -0.0167
  184SLPC   C2221111   0.812   4.074  10.153  0.2373 -0.2620  0.0649
  184SLPC   H2R21112   0.737   4.048  10.075  1.1080 -0.8557 -0.5735
  184SLPC   H2S21113   0.765   4.118  10.244  0.8103  2.1071 -0.7436
  184SLPC    C321114   0.724   3.639  10.289  0.6393  0.4015  1.2008
  184SLPC    HX21115   0.644   3.659  10.363  1.5907 -1.2138  2.7176
  184SLPC    HY21116   0.778   3.544  10.313  1.3680  1.6361  4.7959
  184SLPC   O3121117   0.667   3.632  10.158 -0.4831  0.8485 -0.9568
  184SLPC   C3121118   0.707   3.541  10.072 -0.0506  0.6105  0.0754
  184SLPC   O3221119   0.815   3.483  10.076  0.4015  0.2523 -0.4931
  184SLPC   C3221120   0.600   3.518   9.967 -0.4027  0.0774  0.4991
  184SLPC   H2X21121   0.568   3.618   9.930 -1.2599 -0.1958  0.4883
  184SLPC   H2Y21122   0.508   3.471  10.006 -0.3809 -2.8495 -2.8045
  184SLPC   C2321123   0.921   4.169  10.102 -0.1951  0.3655  0.1266
  184SLPC   H3R21124   0.966   4.123  10.011 -0.1277  0.9381 -0.1295
  184SLPC   H3S21125   0.991   4.191  10.184 -1.1896  0.7635  0.8795
  184SLPC   C2421126   0.863   4.305  10.066  0.5711 -0.2378  0.7608
  184SLPC   H4R21127   0.951   4.363  10.032 -2.2363  1.8203 -3.2744
  184SLPC   H4S21128   0.826   4.343  10.163  0.1586 -1.7044  1.2014
  184SLPC   C2521129   0.756   4.296   9.952 -0.2703  0.2488  0.4077
  184SLPC   H5R21130   0.653   4.295   9.993 -0.4231 -0.4038  0.0064
  184SLPC   H5S21131   0.770   4.198   9.902  0.4967  1.5656 -2.0653
  184SLPC   C2621132   0.778   4.402   9.843  0.6591 -0.1018  0.2016
  184SLPC   H6R21133   0.813   4.501   9.877  1.5755 -0.4154  0.1849
  184SLPC   H6S21134   0.682   4.439   9.801  0.6723  0.2602  0.4942
  184SLPC   C2721135   0.864   4.356   9.726 -0.2811 -0.5094  0.4988
  184SLPC   H7R21136   0.822   4.257   9.699  1.6024 -0.8430 -1.4068
  184SLPC   H7S21137   0.968   4.345   9.765  0.0945  0.4560 -0.2071
  184SLPC   C2821138   0.851   4.457   9.620 -0.8959  0.5014 -0.4123
  184SLPC   H8R21139   0.889   4.554   9.658  2.1554 -0.8085 -0.0194
  184SLPC   H8S21140   0.741   4.467   9.607 -1.0287  0.3128  0.5203
  184SLPC   C2921141   0.925   4.429   9.485 -0.5853 -0.1558 -0.4824
  184SLPC   H9R21142   0.929   4.320   9.470  0.1837 -0.4409  1.5682
  184SLPC  C21021143   0.999   4.514   9.410  0.2579  1.1109 -0.7628
  184SLPC  H10R21144   1.042   4.478   9.315 -1.0158 -1.9736 -0.2396
  184SLPC  C21121145   1.019   4.663   9.423  0.0846 -0.8001  0.3087
  184SLPC  H11R21146   1.026   4.704   9.526  0.3702 -1.5363  0.5814
  184SLPC  H11S21147   0.939   4.722   9.373  1.7149  1.5028  0.3245
  184SLPC  C21221148   1.153   4.702   9.364 -0.1353  0.6678  0.3984
  184SLPC  H12R21149   1.239   4.704   9.433 -1.7847 -0.0517  2.5447
  184SLPC  C21321150   1.180   4.733   9.239  0.5127  0.3442  0.4687
  184SLPC  H13R21151   1.284   4.754   9.211 -0.1501 -0.4534 -2.7787
  184SLPC  C21421152   1.079   4.729   9.125 -0.1102 -0.2422  0.3431
  184SLPC  H14R21153   1.095   4.817   9.059 -0.8630 -1.7315 -1.8859
  184SLPC  H14S21154   0.973   4.736   9.159  0.3266  1.2580  1.4615
  184SLPC  C21521155   1.104   4.607   9.044 -0.1782  0.5755 -0.5629
  184SLPC  H15R21156   1.108   4.518   9.110  1.5801 -2.1004 -4.1510
  184SLPC  H15S21157   1.206   4.609   9.002 -0.2737 -1.8446 -0.9717
  184SLPC  C21621158   1.008   4.584   8.928  0.5929  0.3174 -0.2444
  184SLPC  H16R21159   1.028   4.670   8.861  2.2379 -0.8263 -1.2412
  184SLPC  H16S21160   0.906   4.578   8.972 -0.0213 -2.1180 -1.8918
  184SLPC  C21721161   1.044   4.466   8.848 -0.3717  0.6158  0.5675
  184SLPC  H17R21162   1.008   4.383   8.913 -0.9803 -0.2230 -0.8254
  184SLPC  H17S21163   1.154   4.461   8.836 -0.1264  1.5239  2.2642
  184SLPC  C21821164   0.968   4.468   8.713 -0.7105  0.1991 -0.0805
  184SLPC  H18R21165   0.857   4.470   8.723 -0.9367  0.2960 -2.4146
  184SLPC  H18S21166   0.993   4.398   8.630 -0.3991 -0.0009  0.1802
  184SLPC  H18T21167   1.000   4.566   8.673  1.0826  0.8393  2.7880
  184SLPC   C3321168   0.654   3.445   9.843  1.2539  0.8937  0.4946
  184SLPC   H3X21169   0.750   3.496   9.821 -0.4013  4.1157  0.5526
  184SLPC   H3Y21170   0.586   3.461   9.757 -1.4952 -0.9627  2.2438
  184SLPC   C3421171   0.681   3.291   9.867 -0.2513 -0.1268  0.4514
  184SLPC   H4X21172   0.728   3.285   9.967 -0.5033 -1.5518  0.5007
  184SLPC   H4Y21173   0.752   3.242   9.797 -0.1676  2.7156 -1.5677
  184SLPC   C3521174   0.565   3.194   9.874 -0.1548  0.1270  0.2230
  184SLPC   H5X21175   0.518   3.197   9.773  2.7759  0.7006 -1.1767
  184SLPC   H5Y21176   0.493   3.225   9.952 -0.5347  3.5954 -1.4254
  184SLPC   C3621177   0.608   3.036   9.894  0.4773 -0.4746 -0.5881
  184SLPC   H6X21178   0.640   3.035  10.000 -2.1337 -0.9417  0.2393
  184SLPC   H6Y21179   0.696   3.017   9.830  2.5858  1.9400  1.5105
  184SLPC   C3721180   0.491   2.950   9.836  0.0747  0.3926  0.7801
  184SLPC   H7X21181   0.444   2.996   9.746 -1.9405 -1.6437  0.7255
  184SLPC   H7Y21182   0.414   2.943   9.917 -0.8410  1.4320  0.0090
  184SLPC   C3821183   0.526   2.805   9.799 -0.2480 -0.0699  0.4401
  184SLPC   H8X21184   0.444   2.732   9.785 -2.5208  2.6542 -0.9968
  184SLPC   H8Y21185   0.585   2.759   9.881  2.1644 -1.8121 -2.2016
  184SLPC   C3921186   0.614   2.798   9.669  0.3446 -0.2182 -0.6506
  184SLPC   H9X21187   0.622   2.690   9.648 -0.3937 -0.0515 -1.8225
  184SLPC   H9Y21188   0.712   2.844   9.696  0.0986 -0.5690  0.9153
  184SLPC  C31021189   0.553   2.870   9.551  0.1553  0.3113  0.1782
  184SLPC  H10X21190   0.554   2.981   9.564  0.2976  0.2789  0.4465
  184SLPC  H10Y21191   0.456   2.824   9.525  1.1908 -0.9268 -1.6107
  184SLPC  C31121192   0.633   2.839   9.421  0.3575 -0.1389 -0.6666
  184SLPC  H11X21193   0.630   2.728   9.411 -0.1510 -0.0818 -1.1567
  184SLPC  H11Y21194   0.741   2.864   9.435 -0.3427  1.8113  1.5283
  184SLPC  C31221195   0.573   2.908   9.294  0.4893  0.0249  0.6141
  184SLPC  H12X21196   0.467   2.872   9.297  0.6172 -0.4033  0.1212
  184SLPC  H12Y21197   0.625   2.866   9.206 -0.0210  0.9776 -0.1502
  184SLPC  C31321198   0.574   3.064   9.289  0.1703 -0.1540  0.3400
  184SLPC  H13X21199   0.508   3.108   9.367 -0.4659  0.8244 -0.7339
  184SLPC  H13Y21200   0.533   3.101   9.193 -3.6720  0.3328  2.0716
  184SLPC  C31421201   0.719   3.116   9.314  0.1347  0.9160  0.5744
  184SLPC  H14X21202   0.777   3.067   9.234 -2.6288 -0.4210 -0.6712
  184SLPC  H14Y21203   0.754   3.077   9.412  0.3271 -0.1965  0.0634
  184SLPC  C31521204   0.732   3.268   9.288 -0.4860 -1.1944 -0.8154
  184SLPC  H15X21205   0.662   3.279   9.202 -0.1535 -2.5578 -1.2758
  184SLPC  H15Y21206   0.837   3.284   9.255 -0.4764 -0.1579 -0.3026
  184SLPC  C31621207   0.704   3.365   9.411  0.3880  0.2450 -0.2623
  184SLPC  H16X21208   0.763   3.317   9.492 -1.8160  0.0800  1.2986
  184SLPC  H16Y21209   0.596   3.362   9.438  0.6163  1.7749  0.8150
  184SLPC  C31721210   0.740   3.515   9.388 -0.0435  0.0922 -0.0340
  184SLPC  H17X21211   0.681   3.555   9.303  1.4367  3.4695  0.4480
  184SLPC  H17Y21212   0.846   3.519   9.355 -0.5916  3.0009 -1.5507
  184SLPC  C31821213   0.715   3.608   9.505  0.1354  0.0046  0.3303
  184SLPC  H18X21214   0.793   3.687   9.501  1.4266 -1.2571  0.1242
  184SLPC  H18Y21215   0.744   3.545   9.592  1.3737 -1.0774 -0.8413
  184SLPC  H18Z21216   0.612   3.650   9.509 -0.2147 -0.9680  1.9348
  185SLPC     N21217   6.777   1.119   6.815  0.3255 -0.6512 -0.0317
  185SLPC   C1321218   6.915   1.167   6.787  0.2719  0.0407 -0.2476
  185SLPC  H13A21219   6.977   1.182   6.874  1.5624 -1.0235 -0.9787
  185SLPC  H13B21220   6.959   1.104   6.711 -0.6843 -0.2147 -0.5962
  185SLPC  H13C21221   6.909   1.266   6.743  0.3932  0.4366  0.6231
  185SLPC   C1421222   6.716   1.208   6.917  0.5054  0.4042 -0.2914
  185SLPC  H14A21223   6.727   1.313   6.893 -1.1115  0.7112  0.2332
  185SLPC  H14B21224   6.611   1.185   6.918  0.3618  0.9788 -1.3379
  185SLPC  H14C21225   6.753   1.193   7.017  2.2008 -0.7664 -1.0764
  185SLPC   C1521226   6.781   0.976   6.856  0.4283 -0.8826  0.7284
  185SLPC  H15A21227   6.837   0.963   6.947  0.1712  2.1672  1.3544
  185SLPC  H15B21228   6.682   0.936   6.874 -1.3194  2.4304 -0.9630
  185SLPC  H15C21229   6.836   0.915   6.785  2.3004  1.6538 -0.0837
  185SLPC   C1221230   6.696   1.130   6.684 -0.5088  0.0192  0.2802
  185SLPC  H12A21231   6.753   1.075   6.610  0.7423 -0.6517  1.7168
  185SLPC  H12B21232   6.714   1.230   6.650 -0.2812  0.2723  1.1398
  185SLPC   C1121233   6.547   1.090   6.670  0.6790 -0.3997  0.2567
  185SLPC  H11A21234   6.510   1.138   6.577 -0.2430  0.2595  0.9564
  185SLPC  H11B21235   6.491   1.146   6.748 -1.2100 -2.5258  0.4529
  185SLPC     P21236   6.433   0.862   6.632  0.1404  0.2232  0.2565
  185SLPC   O1321237   6.392   0.909   6.499  0.2047 -0.5507  0.4418
  185SLPC   O1421238   6.473   0.720   6.641  0.0309 -0.5211  0.2326
  185SLPC   O1221239   6.541   0.951   6.692 -0.1572  0.0371 -0.1954
  185SLPC   O1121240   6.319   0.878   6.736  0.1906 -0.1544  0.1663
  185SLPC    C121241   6.324   0.860   6.872  0.0451 -0.9414 -0.4115
  185SLPC    HA21242   6.228   0.817   6.907  0.1530  0.3434  1.5910
  185SLPC    HB21243   6.408   0.804   6.920 -2.6435 -0.4170  5.3251
  185SLPC    C221244   6.296   0.998   6.940  0.3577 -0.2715  0.8942
  185SLPC    HS21245   6.387   1.060   6.928  0.9298 -1.3786 -0.4944
  185SLPC   O2121246   6.258   0.974   7.077  0.5072 -0.6359 -0.6447
  185SLPC   C2121247   6.353   0.911   7.152  0.5093 -0.8489  0.8502
  185SLPC   O2221248   6.469   0.898   7.117  0.0533  0.4709  0.5556
  185SLPC   C2221249   6.301   0.867   7.288  0.2035 -0.1271 -0.7275
  185SLPC   H2R21250   6.319   0.952   7.357  1.8625 -0.9738 -0.0684
  185SLPC   H2S21251   6.191   0.861   7.296  0.1736  0.0359 -0.9931
  185SLPC    C321252   6.200   1.105   6.873  0.7557  0.2664  0.6045
  185SLPC    HX21253   6.102   1.055   6.857  0.0409  1.6518  0.4999
  185SLPC    HY21254   6.229   1.142   6.772  0.4914 -0.1367  0.3828
  185SLPC   O3121255   6.178   1.222   6.958  0.4389  0.2773  0.3708
  185SLPC   C3121256   6.271   1.314   6.959  0.0181  0.0322 -0.0697
  185SLPC   O3221257   6.368   1.329   6.885 -1.0550  0.1367  0.3180
  185SLPC   C3221258   6.229   1.418   7.071 -0.2568 -0.4563  0.1330
  185SLPC   H2X21259   6.171   1.358   7.144  0.1493  0.3864  1.1603
  185SLPC   H2Y21260   6.155   1.476   7.012  0.8880 -1.2683 -2.1435
  185SLPC   C2321261   6.386   0.747   7.329  0.0171 -0.3418 -0.8134
  185SLPC   H3R21262   6.493   0.767   7.352  0.1171 -2.0690  0.3462
  185SLPC   H3S21263   6.385   0.673   7.246 -0.3496  0.1782 -1.2756
  185SLPC   C2421264   6.345   0.679   7.468 -0.0511  0.3725  0.3573
  185SLPC   H4R21265   6.394   0.581   7.484 -2.3082 -0.9231 -0.3800
  185SLPC   H4S21266   6.236   0.661   7.451  0.1154 -0.7336  0.4239
  185SLPC   C2521267   6.376   0.765   7.593 -1.0076 -0.4277  0.4802
  185SLPC   H5R21268   6.353   0.872   7.571 -0.8101 -0.1757  1.4578
  185SLPC   H5S21269   6.485   0.757   7.615 -1.1387  0.5915  1.5352
  185SLPC   C2621270   6.296   0.727   7.722 -0.7220 -0.7863  0.3957
  185SLPC   H6R21271   6.263   0.625   7.695  1.1763 -1.3761  0.2451
  185SLPC   H6S21272   6.205   0.788   7.737 -0.5942 -0.3863 -0.4028
  185SLPC   C2721273   6.387   0.722   7.848  0.5852  0.0200 -0.7876
  185SLPC   H7R21274   6.414   0.827   7.870 -0.5623  0.0031  0.7520
  185SLPC   H7S21275   6.474   0.658   7.820 -0.9668 -1.6451 -1.9325
  185SLPC   C2821276   6.314   0.671   7.977  0.8081  0.8559 -0.5221
  185SLPC   H8R21277   6.263   0.577   7.947 -1.0671  1.1938  1.5315
  185SLPC   H8S21278   6.247   0.750   8.017 -1.1831 -0.5605 -0.9933
  185SLPC   C2921279   6.402   0.620   8.089 -0.1535  0.0916  0.3326
  185SLPC   H9R21280   6.504   0.596   8.056 -0.6209 -1.2932 -0.1186
  185SLPC  C21021281   6.379   0.598   8.224  0.5893  1.0145  0.2393
  185SLPC  H10R21282   6.451   0.543   8.286  0.6762  2.4698  1.4538
  185SLPC  C21121283   6.246   0.620   8.286  0.4990 -0.2912 -0.3135
  185SLPC  H11R21284   6.246   0.563   8.381 -2.5335  0.2050  0.0375
  185SLPC  H11S21285   6.168   0.577   8.220 -1.6998  2.8295  0.1140
  185SLPC  C21221286   6.208   0.758   8.306  0.4555 -1.0105  0.3124
  185SLPC  H12R21287   6.143   0.799   8.227 -0.0146 -2.3262 -0.0144
  185SLPC  C21321288   6.241   0.834   8.410  0.3770 -0.4143 -0.3192
  185SLPC  H13R21289   6.194   0.933   8.420  0.6983 -0.0440 -2.2203
  185SLPC  C21421290   6.318   0.796   8.526  0.0078 -0.1939 -0.3047
  185SLPC  H14R21291   6.371   0.700   8.508  4.3616  2.6029 -3.6015
  185SLPC  H14S21292   6.241   0.782   8.605  1.0408  1.7130  1.0781
  185SLPC  C21521293   6.428   0.893   8.571  0.1453 -0.2365 -0.1084
  185SLPC  H15R21294   6.387   0.992   8.601 -1.2252 -0.7241 -0.3532
  185SLPC  H15S21295   6.506   0.906   8.493  1.6235  1.3071  1.5538
  185SLPC  C21621296   6.507   0.857   8.703  0.6854  0.8534 -0.5471
  185SLPC  H16R21297   6.602   0.910   8.726  1.2698 -0.9160  1.2531
  185SLPC  H16S21298   6.540   0.752   8.694  1.5561  1.1648 -1.0377
  185SLPC  C21721299   6.427   0.861   8.838  0.3776 -0.2427 -0.8630
  185SLPC  H17R21300   6.340   0.796   8.816 -0.2010  0.6764 -1.2981
  185SLPC  H17S21301   6.385   0.962   8.858  2.4495  0.4916 -0.0565
  185SLPC  C21821302   6.504   0.817   8.965 -0.3008  0.1090 -0.1400
  185SLPC  H18R21303   6.435   0.810   9.051  1.5750 -0.5870  1.3525
  185SLPC  H18S21304   6.580   0.889   9.003 -0.1135 -0.6376  0.9101
  185SLPC  H18T21305   6.538   0.712   8.949 -1.0420 -0.0994 -0.3504
  185SLPC   C3321306   6.338   1.496   7.143 -0.2886  0.2973  0.0541
  185SLPC   H3X21307   6.320   1.606   7.148  1.5706  0.5645  1.8208
  185SLPC   H3Y21308   6.439   1.496   7.095  0.3739 -0.7236  1.4300
  185SLPC   C3421309   6.352   1.441   7.287 -0.0744 -0.0300 -0.2151
  185SLPC   H4X21310   6.251   1.457   7.331  1.2463  1.5582  2.4075
  185SLPC   H4Y21311   6.417   1.499   7.357  0.3784 -0.4908 -0.2514
  185SLPC   C3521312   6.386   1.290   7.296  0.4865  0.3220 -0.0025
  185SLPC   H5X21313   6.488   1.275   7.256  1.0633  1.4021  1.0294
  185SLPC   H5Y21314   6.312   1.233   7.237  0.0735 -0.0683  0.8809
  185SLPC   C3621315   6.402   1.233   7.444 -0.6880  0.2862 -0.0330
  185SLPC   H6X21316   6.310   1.176   7.471 -0.6291 -0.5168 -1.4566
  185SLPC   H6Y21317   6.419   1.322   7.507  2.8301  2.0421 -3.2693
  185SLPC   C3721318   6.522   1.138   7.470 -0.4046 -0.4236  0.0796
  185SLPC   H7X21319   6.611   1.190   7.428 -0.6946  0.2095  0.2450
  185SLPC   H7Y21320   6.500   1.044   7.417  1.3698 -0.2486 -0.9935
  185SLPC   C3821321   6.542   1.107   7.615  0.2166 -0.0829  0.3028
  185SLPC   H8X21322   6.626   1.035   7.624  1.6097  1.8350  3.0245
  185SLPC   H8Y21323   6.448   1.064   7.658  0.4960  2.1772  3.3152
  185SLPC   C3921324   6.588   1.229   7.695 -0.5662  0.0114 -0.2405
  185SLPC   H9X21325   6.507   1.304   7.678  0.1599  0.2668 -2.8972
  185SLPC   H9Y21326   6.683   1.276   7.661 -0.0056 -1.1694 -0.3105
  185SLPC  C31021327   6.627   1.196   7.841  0.1491  0.3589 -0.5116
  185SLPC  H10X21328   6.667   1.288   7.888 -0.3531 -1.3145  3.3876
  185SLPC  H10Y21329   6.699   1.111   7.832 -0.3154 -0.0508 -0.3984
  185SLPC  C31121330   6.507   1.142   7.925  0.3757  0.1175  0.6734
  185SLPC  H11X21331   6.487   1.040   7.884 -2.3831 -0.2684  2.8791
  185SLPC  H11Y21332   6.415   1.199   7.900 -0.8683 -1.0888  2.4169
  185SLPC  C31221333   6.537   1.128   8.071  0.3846  0.1098 -0.2873
  185SLPC  H12X21334   6.539   1.231   8.113  0.2478  0.3367 -0.8242
  185SLPC  H12Y21335   6.626   1.069   8.102  0.2043  0.7655  1.5228
  185SLPC  C31321336   6.416   1.055   8.132  0.1714  0.1242  0.4672
  185SLPC  H13X21337   6.463   1.051   8.233  0.6090  0.0193  0.2617
  185SLPC  H13Y21338   6.405   0.952   8.093  2.1143 -1.1455  3.1208
  185SLPC  C31421339   6.279   1.117   8.154  0.2967 -0.6369 -0.1004
  185SLPC  H14X21340   6.206   1.036   8.172  1.2910 -1.1988  1.5157
  185SLPC  H14Y21341   6.241   1.173   8.066  0.8394 -2.5765 -1.5981
  185SLPC  C31521342   6.274   1.215   8.275 -0.5484  1.0632  0.2846
  185SLPC  H15X21343   6.285   1.162   8.372 -1.4559 -1.3174 -0.8512
  185SLPC  H15Y21344   6.167   1.243   8.291 -1.0998  0.3203 -1.8894
  185SLPC  C31621345   6.365   1.333   8.281 -0.2071  0.3024 -0.2271
  185SLPC  H16X21346   6.408   1.354   8.181  1.1194 -2.2731 -0.2321
  185SLPC  H16Y21347   6.448   1.300   8.348 -1.7045  0.8536  1.9613
  185SLPC  C31721348   6.314   1.455   8.339 -0.0779 -0.0506 -0.2506
  185SLPC  H17X21349   6.263   1.426   8.434  0.1243  0.4668  0.0142
  185SLPC  H17Y21350   6.234   1.500   8.276 -0.0123 -0.4017 -0.5869
  185SLPC  C31821351   6.422   1.557   8.379  0.7567 -0.3717  0.2964
  185SLPC  H18X21352   6.493   1.523   8.457  1.5654  0.3771 -0.1049
  185SLPC  H18Y21353   6.363   1.641   8.421  1.2944  0.0805  0.1423
  185SLPC  H18Z21354   6.471   1.586   8.284 -0.3375 -0.1172 -0.1994
  186SLPC     N21355   0.353   3.676   5.943 -0.1312  0.5299 -0.4542
  186SLPC   C1321356   0.470   3.616   5.871  0.0736 -0.0564 -0.4218
  186SLPC  H13A21357   0.450   3.513   5.846 -0.2352 -0.7128  2.3553
  186SLPC  H13B21358   0.476   3.675   5.780 -2.3133  1.2698  0.2313
  186SLPC  H13C21359   0.560   3.624   5.929  0.3359  2.5097 -1.1014
  186SLPC   C1421360   0.221   3.637   5.884 -0.8745 -0.0463  0.3533
  186SLPC  H14A21361   0.208   3.530   5.880  1.5693 -0.3542 -0.0564
  186SLPC  H14B21362   0.140   3.672   5.947  1.3525 -0.6977  3.6693
  186SLPC  H14C21363   0.197   3.684   5.789  1.9370  0.2606 -0.2333
  186SLPC   C1521364   0.364   3.825   5.933  0.1945  0.9027 -0.1243
  186SLPC  H15A21365   0.278   3.880   5.968  0.2787  0.3108  1.0687
  186SLPC  H15B21366   0.444   3.873   5.987 -0.6747 -0.4121  2.4555
  186SLPC  H15C21367   0.393   3.858   5.835 -1.7261  0.8094 -0.7322
  186SLPC   C1221368   0.358   3.642   6.090  0.6988  0.3221  0.2110
  186SLPC  H12A21369   0.362   3.535   6.105 -0.0851  0.2765  0.1507
  186SLPC  H12B21370   0.267   3.671   6.142  1.2861 -1.0139  2.0478
  186SLPC   C1121371   0.470   3.691   6.177  0.7093  0.7806 -0.3569
  186SLPC  H11A21372   0.432   3.776   6.238 -3.0016 -1.2720  0.3557
  186SLPC  H11B21373   0.561   3.727   6.124  0.6088 -0.9219 -1.7460
  186SLPC     P21374   0.590   3.463   6.214  0.0528  0.0292 -0.0241
  186SLPC   O1321375   0.499   3.345   6.194  0.2337  0.4257  0.3096
  186SLPC   O1421376   0.660   3.508   6.089 -0.5901 -0.4450 -0.1520
  186SLPC   O1221377   0.511   3.592   6.278 -0.4159  0.3544  0.3217
  186SLPC   O1121378   0.702   3.424   6.319 -0.1454 -0.1114 -0.1027
  186SLPC    C121379   0.772   3.536   6.388  0.5627  0.7176 -0.6238
  186SLPC    HA21380   0.883   3.526   6.390  0.7903  3.0924  0.0457
  186SLPC    HB21381   0.748   3.635   6.344  0.8460  1.0511 -0.0483
  186SLPC    C221382   0.743   3.554   6.543 -0.7680 -0.6643  0.4674
  186SLPC    HS21383   0.831   3.608   6.585  0.0508 -0.9981 -0.7894
  186SLPC   O2121384   0.742   3.427   6.610 -0.0275 -0.3000  0.7174
  186SLPC   C2121385   0.852   3.363   6.623 -0.9971 -0.5243 -0.8536
  186SLPC   O2221386   0.960   3.407   6.581 -0.0163 -0.3058 -0.2212
  186SLPC   C2221387   0.823   3.231   6.709 -0.4404  0.9706  0.4818
  186SLPC   H2R21388   0.751   3.252   6.791 -1.2326 -1.1156  0.3643
  186SLPC   H2S21389   0.778   3.168   6.630  0.5610  1.3387 -0.3884
  186SLPC    C321390   0.612   3.637   6.573  0.2270 -0.7523 -0.0150
  186SLPC    HX21391   0.532   3.568   6.538 -1.3551  0.9999  0.1018
  186SLPC    HY21392   0.613   3.723   6.503  0.4122  0.9204  2.0031
  186SLPC   O3121393   0.614   3.692   6.702  0.4819  0.6978  0.3291
  186SLPC   C3121394   0.496   3.685   6.766  0.0268  0.1097 -0.5200
  186SLPC   O3221395   0.390   3.651   6.721  0.7229  0.1301 -0.3232
  186SLPC   C3221396   0.510   3.753   6.906  0.1608  0.5888 -0.3442
  186SLPC   H2X21397   0.439   3.839   6.896 -0.9872 -0.4107 -0.8770
  186SLPC   H2Y21398   0.615   3.787   6.923  0.7437 -1.0009 -0.6719
  186SLPC   C2321399   0.955   3.169   6.762 -0.2166 -0.1439  0.3390
  186SLPC   H3R21400   1.032   3.179   6.683 -0.0233  1.6687  0.7292
  186SLPC   H3S21401   0.948   3.059   6.775 -0.4235 -0.0435  1.0669
  186SLPC   C2421402   1.008   3.237   6.889  0.2904  0.6223 -0.0237
  186SLPC   H4R21403   1.032   3.343   6.870  1.0010  0.6704  1.0937
  186SLPC   H4S21404   1.107   3.201   6.923  0.9191  2.6288  0.3235
  186SLPC   C2521405   0.909   3.219   7.011  0.0413 -0.6014  0.4519
  186SLPC   H5R21406   0.882   3.111   7.012 -0.5923 -0.4447  0.3529
  186SLPC   H5S21407   0.814   3.274   6.993  1.1142  0.6282 -1.7432
  186SLPC   C2621408   0.974   3.268   7.143 -0.2877 -0.0375 -0.2157
  186SLPC   H6R21409   0.897   3.290   7.220  1.3227  2.1491  0.8413
  186SLPC   H6S21410   1.029   3.364   7.129 -0.8406  0.4025  0.5376
  186SLPC   C2721411   1.066   3.162   7.199 -0.0037  0.6543 -0.2362
  186SLPC   H7R21412   1.126   3.119   7.115 -3.6404 -1.2951 -1.9869
  186SLPC   H7S21413   0.993   3.087   7.236  1.9863 -1.5323 -0.5608
  186SLPC   C2821414   1.151   3.215   7.318 -0.0057 -0.4136  0.9505
  186SLPC   H8R21415   1.210   3.305   7.292 -0.8148  0.4613  2.0433
  186SLPC   H8S21416   1.212   3.134   7.362 -0.2568 -1.6339 -0.9046
  186SLPC   C2921417   1.058   3.261   7.435  0.4287 -0.3786 -0.0915
  186SLPC   H9R21418   0.966   3.315   7.411 -1.1185 -1.4854  3.1628
  186SLPC  C21021419   1.075   3.250   7.564 -0.1411  0.2236  0.4685
  186SLPC  H10R21420   1.013   3.314   7.629 -1.1729 -0.5399  0.2612
  186SLPC  C21121421   1.187   3.177   7.642 -0.2031 -0.0339 -0.2996
  186SLPC  H11R21422   1.238   3.094   7.590 -0.7326 -1.4356  1.3669
  186SLPC  H11S21423   1.131   3.120   7.719  0.2348  0.2506  0.2349
  186SLPC  C21221424   1.286   3.277   7.696  0.1328  0.3879  0.1680
  186SLPC  H12R21425   1.347   3.319   7.615 -0.3518 -1.2484 -1.0730
  186SLPC  C21321426   1.310   3.328   7.816 -0.1377  0.2725  0.0182
  186SLPC  H13R21427   1.395   3.397   7.825 -1.6160  2.6370 -3.1562
  186SLPC  C21421428   1.225   3.277   7.933 -0.4334 -0.6331  0.1657
  186SLPC  H14R21429   1.127   3.260   7.884  1.3981 -0.8544 -3.5631
  186SLPC  H14S21430   1.228   3.357   8.010  0.9772  0.8122 -1.3537
  186SLPC  C21521431   1.266   3.149   7.991 -0.1593 -0.4032  0.2422
  186SLPC  H15R21432   1.376   3.134   7.984 -0.0501 -0.9157  2.5820
  186SLPC  H15S21433   1.209   3.071   7.936 -2.5024  0.3850  1.4666
  186SLPC  C21621434   1.237   3.138   8.145  0.6273  0.5995 -0.2213
  186SLPC  H16R21435   1.130   3.123   8.174  0.2456 -0.4176 -2.0917
  186SLPC  H16S21436   1.258   3.231   8.202  1.2074  1.5099 -1.9162
  186SLPC  C21721437   1.323   3.023   8.202 -0.5580 -0.2795 -0.3362
  186SLPC  H17R21438   1.425   3.066   8.209  1.2465 -4.4894  1.1606
  186SLPC  H17S21439   1.328   2.942   8.125  2.1403 -0.1002 -0.4136
  186SLPC  C21821440   1.279   2.975   8.343  0.2067  0.1431  0.2643
  186SLPC  H18R21441   1.300   3.057   8.415  1.1924  2.4589 -2.5975
  186SLPC  H18S21442   1.351   2.896   8.373 -0.0202  0.2930  1.2383
  186SLPC  H18T21443   1.171   2.948   8.350 -0.1913  1.6462  0.0915
  186SLPC   C3321444   0.459   3.672   7.028 -0.3263  0.5212  0.3689
  186SLPC   H3X21445   0.384   3.601   6.989  1.6294 -1.3251 -0.1173
  186SLPC   H3Y21446   0.409   3.748   7.092  0.0483  0.6772  0.4777
  186SLPC   C3421447   0.573   3.594   7.096 -0.6091  0.3291  0.0457
  186SLPC   H4X21448   0.648   3.675   7.105 -1.7876  1.3906  0.5108
  186SLPC   H4Y21449   0.627   3.524   7.029 -0.4433  1.3584 -0.9120
  186SLPC   C3521450   0.537   3.541   7.235 -0.8427  0.9541 -0.0507
  186SLPC   H5X21451   0.616   3.467   7.260  1.4432  2.4461 -2.5820
  186SLPC   H5Y21452   0.445   3.479   7.232  0.3100 -0.8139 -0.0207
  186SLPC   C3621453   0.521   3.651   7.341  0.9751  0.0227  0.4335
  186SLPC   H6X21454   0.435   3.707   7.300  0.0686 -2.6136 -1.4322
  186SLPC   H6Y21455   0.607   3.720   7.349 -1.0824  2.7259 -0.3876
  186SLPC   C3721456   0.503   3.587   7.485 -0.5807 -0.3845  0.3316
  186SLPC   H7X21457   0.580   3.510   7.506 -0.9819 -0.8743  0.0185
  186SLPC   H7Y21458   0.410   3.526   7.484  1.3999 -3.5287 -1.2952
  186SLPC   C3821459   0.486   3.696   7.604  0.2298 -0.4098 -0.3168
  186SLPC   H8X21460   0.385   3.741   7.609  0.5254  0.0913  2.0253
  186SLPC   H8Y21461   0.559   3.776   7.578  0.5382 -0.6246 -0.1282
  186SLPC   C3921462   0.514   3.648   7.743  0.1746 -0.5842  0.2820
  186SLPC   H9X21463   0.623   3.632   7.752  0.2113  0.3520  1.7488
  186SLPC   H9Y21464   0.469   3.547   7.751  0.4287 -1.1804 -4.4556
  186SLPC  C31021465   0.475   3.735   7.864  0.1851 -0.1119 -0.4439
  186SLPC  H10X21466   0.365   3.751   7.851  0.4301  2.6693  0.5690
  186SLPC  H10Y21467   0.529   3.831   7.849  0.7941 -0.7136 -2.2113
  186SLPC  C31121468   0.508   3.660   7.993 -0.2328  0.0794  0.2480
  186SLPC  H11X21469   0.608   3.613   7.990 -0.8977 -1.4048  1.0090
  186SLPC  H11Y21470   0.440   3.576   8.020 -1.7885  1.6530  1.3906
  186SLPC  C31221471   0.526   3.764   8.102  0.6905 -0.7326 -0.5170
  186SLPC  H12X21472   0.434   3.825   8.113  1.5328  0.4621 -0.0186
  186SLPC  H12Y21473   0.602   3.838   8.068 -1.1749  0.8416 -1.3748
  186SLPC  C31321474   0.547   3.701   8.244  0.2793  0.3527  0.1295
  186SLPC  H13X21475   0.640   3.640   8.251 -0.2709 -0.2916  2.1288
  186SLPC  H13Y21476   0.459   3.639   8.270 -0.4086  0.9386 -0.7941
  186SLPC  C31421477   0.549   3.814   8.350  0.5045  0.1820 -0.2342
  186SLPC  H14X21478   0.443   3.847   8.357 -0.4379 -2.1308 -2.6844
  186SLPC  H14Y21479   0.611   3.901   8.322  0.0411  0.0602 -1.6975
  186SLPC  C31521480   0.583   3.758   8.491 -0.3968  0.0463 -0.7550
  186SLPC  H15X21481   0.691   3.734   8.501 -0.4667 -0.2210 -0.6527
  186SLPC  H15Y21482   0.528   3.668   8.523  0.5611 -0.2454  0.0775
  186SLPC  C31621483   0.561   3.861   8.603  0.1763  0.5887 -0.5262
  186SLPC  H16X21484   0.606   3.961   8.588 -0.4330  0.9911  0.2700
  186SLPC  H16Y21485   0.615   3.825   8.693  0.5681  0.6313 -0.7445
  186SLPC  C31721486   0.405   3.868   8.634 -0.8430 -0.4949 -0.8343
  186SLPC  H17X21487   0.361   3.766   8.643  0.1931 -0.7222  2.0723
  186SLPC  H17Y21488   0.362   3.918   8.544 -1.3164 -0.3453 -0.5274
  186SLPC  C31821489   0.389   3.948   8.759 -0.4647  0.2039  0.2177
  186SLPC  H18X21490   0.290   3.915   8.799  1.2367 -3.2842  1.7672
  186SLPC  H18Y21491   0.384   4.055   8.728  1.3083  0.2813  0.1500
  186SLPC  H18Z21492   0.464   3.923   8.837 -0.6102  0.1056  0.3262
  187SLPC     N21493   0.510   0.559   6.303  0.0758  0.9501  0.0607
  187SLPC   C1321494   0.395   0.464   6.308 -0.1906 -0.5335 -0.2056
  187SLPC  H13A21495   0.301   0.513   6.330 -0.0806 -0.5812  0.3987
  187SLPC  H13B21496   0.397   0.416   6.212  1.0369 -1.7682  0.4166
  187SLPC  H13C21497   0.403   0.392   6.388  0.7053  0.2572  0.4303
  187SLPC   C1421498   0.486   0.658   6.192  0.4265  1.2333  0.4287
  187SLPC  H14A21499   0.576   0.715   6.175  0.6351  1.1792  1.3212
  187SLPC  H14B21500   0.468   0.600   6.102  0.3825  0.6081  0.8365
  187SLPC  H14C21501   0.392   0.709   6.203 -0.2595 -0.0837  0.8359
  187SLPC   C1521502   0.633   0.482   6.260 -0.0974 -0.2336  0.3119
  187SLPC  H15A21503   0.666   0.423   6.343 -0.3070  0.0372  0.5914
  187SLPC  H15B21504   0.600   0.411   6.186 -1.4107  0.9368 -0.2624
  187SLPC  H15C21505   0.714   0.546   6.228 -1.1350  0.3363 -1.2530
  187SLPC   C1221506   0.535   0.630   6.433  0.0390 -0.2445 -0.1356
  187SLPC  H12A21507   0.571   0.550   6.496  0.4142 -0.1047 -0.1704
  187SLPC  H12B21508   0.446   0.676   6.473  1.0148  0.8123  0.8615
  187SLPC   C1121509   0.644   0.747   6.438  0.2688  0.3348 -0.3670
  187SLPC  H11A21510   0.643   0.790   6.540 -1.7378  0.8132 -0.5680
  187SLPC  H11B21511   0.622   0.832   6.371  0.6636  1.4863  0.9483
  187SLPC     P21512   0.865   0.641   6.517  0.2794  0.1103  0.0336
  187SLPC   O1321513   0.971   0.570   6.449  0.6575  0.1186 -0.1293
  187SLPC   O1421514   0.904   0.749   6.613  0.2030 -0.0053 -0.1865
  187SLPC   O1221515   0.768   0.692   6.402  0.0523  0.7625  0.6052
  187SLPC   O1121516   0.772   0.534   6.592 -0.0296 -0.2157 -0.6041
  187SLPC    C121517   0.724   0.571   6.722 -0.7959 -0.0616 -0.1558
  187SLPC    HA21518   0.692   0.677   6.724  1.0803  0.5495 -1.4995
  187SLPC    HB21519   0.628   0.515   6.726 -1.4914  1.1372  0.0593
  187SLPC    C221520   0.782   0.508   6.846  0.0610  0.0329 -0.3627
  187SLPC    HS21521   0.705   0.508   6.926 -1.6381 -0.0156 -1.9644
  187SLPC   O2121522   0.892   0.582   6.894 -0.1619  0.4929  0.2856
  187SLPC   C2121523   0.862   0.707   6.930  0.8922  0.3417  0.5529
  187SLPC   O2221524   0.750   0.758   6.945 -0.2621  0.3954 -0.2447
  187SLPC   C2221525   0.992   0.784   6.942 -0.1387  0.5637  0.2684
  187SLPC   H2R21526   1.076   0.712   6.927  0.7900  1.5198  0.7719
  187SLPC   H2S21527   0.982   0.872   6.875  2.0251 -0.3507 -1.3231
  187SLPC    C321528   0.812   0.355   6.817  0.0164 -0.2486 -0.0904
  187SLPC    HX21529   0.893   0.347   6.741  0.7336  0.3093  0.6150
  187SLPC    HY21530   0.715   0.320   6.776 -0.1062 -0.6366  0.5379
  187SLPC   O3121531   0.830   0.295   6.946 -0.3830  0.2157 -0.3069
  187SLPC   C3121532   0.954   0.255   6.970 -0.7850 -0.4095 -0.0509
  187SLPC   O3221533   1.052   0.286   6.910  1.2170 -0.0483 -0.0381
  187SLPC   C3221534   0.959   0.159   7.088 -0.2490  0.0211 -0.3004
  187SLPC   H2X21535   0.964   0.057   7.044  0.1418 -1.1863  2.4243
  187SLPC   H2Y21536   0.865   0.173   7.146 -0.0156 -2.0282  0.6220
  187SLPC   C2321537   1.019   0.847   7.085 -0.2742 -0.6389  0.6022
  187SLPC   H3R21538   0.971   0.947   7.080 -0.6837 -0.8766 -0.1839
  187SLPC   H3S21539   1.127   0.869   7.096 -0.6603  1.1536  0.9574
  187SLPC   C2421540   0.968   0.776   7.212  0.5777  0.2624  0.5553
  187SLPC   H4R21541   1.011   0.674   7.218 -0.5125 -0.3982 -2.1825
  187SLPC   H4S21542   0.861   0.764   7.184  1.0650 -1.6559 -0.5354
  187SLPC   C2521543   0.978   0.858   7.345 -0.1877  0.9081  1.4004
  187SLPC   H5R21544   0.918   0.950   7.327 -1.2190  0.2477  1.4904
  187SLPC   H5S21545   1.083   0.896   7.353  0.3210 -0.3962  1.0379
  187SLPC   C2621546   0.927   0.793   7.476 -0.0035 -0.1731 -0.2415
  187SLPC   H6R21547   0.972   0.695   7.500 -0.5933 -0.8838 -1.9267
  187SLPC   H6S21548   0.818   0.786   7.453 -0.1594  0.2798  0.3439
  187SLPC   C2721549   0.928   0.898   7.588 -0.8630  0.1166  0.0537
  187SLPC   H7R21550   0.851   0.977   7.572 -0.3833  1.5874  4.4013
  187SLPC   H7S21551   1.026   0.950   7.585 -0.3217 -0.7157  2.2053
  187SLPC   C2821552   0.897   0.856   7.732  0.7393  0.4537  0.7872
  187SLPC   H8R21553   0.890   0.947   7.796 -0.8419 -0.6455  2.2275
  187SLPC   H8S21554   0.984   0.800   7.772 -0.4865 -0.5358  2.1042
  187SLPC   C2921555   0.773   0.782   7.732 -0.2942 -1.2477  0.4090
  187SLPC   H9R21556   0.720   0.777   7.636  1.3449 -1.8843 -0.4830
  187SLPC  C21021557   0.732   0.714   7.840 -0.3219  0.0888  0.1868
  187SLPC  H10R21558   0.644   0.653   7.814  1.2480 -2.1256 -0.0519
  187SLPC  C21121559   0.796   0.708   7.975 -0.4206 -0.8906 -0.0340
  187SLPC  H11R21560   0.838   0.808   8.002  1.7256 -1.0437 -2.5206
  187SLPC  H11S21561   0.883   0.641   7.959  0.5443  0.2719  0.2339
  187SLPC  C21221562   0.722   0.651   8.096 -0.1807 -0.1108 -0.0552
  187SLPC  H12R21563   0.743   0.548   8.129 -1.8770  0.2223  2.1762
  187SLPC  C21321564   0.645   0.723   8.179 -0.3100  0.3793  0.3323
  187SLPC  H13R21565   0.596   0.679   8.267  0.8948 -3.0848 -0.6625
  187SLPC  C21421566   0.615   0.872   8.182  0.5091  0.2741 -0.0428
  187SLPC  H14R21567   0.589   0.899   8.078 -2.3045 -1.1368  0.2450
  187SLPC  H14S21568   0.708   0.928   8.206  0.8071 -0.2231 -0.0322
  187SLPC  C21521569   0.497   0.907   8.273 -0.7422  0.3333  0.4883
  187SLPC  H15R21570   0.410   0.841   8.251 -1.1903  0.6993  1.1101
  187SLPC  H15S21571   0.465   1.008   8.240 -1.0771  0.2247  0.4777
  187SLPC  C21621572   0.541   0.921   8.421  0.5336 -0.4650 -0.2181
  187SLPC  H16R21573   0.617   1.002   8.422 -0.4487  0.4895 -1.1603
  187SLPC  H16S21574   0.584   0.825   8.458  1.3147 -0.0603 -0.0513
  187SLPC  C21721575   0.433   0.957   8.523 -0.3336 -0.4056  0.5391
  187SLPC  H17R21576   0.369   0.867   8.533 -0.8097 -0.6566 -3.8202
  187SLPC  H17S21577   0.375   1.039   8.476 -0.0403 -0.8955 -0.6804
  187SLPC  C21821578   0.486   0.995   8.663  0.0670  0.4906 -0.0864
  187SLPC  H18R21579   0.557   1.080   8.660  1.0962 -0.3169  0.7117
  187SLPC  H18S21580   0.560   0.922   8.703  1.9138  1.9347 -0.7700
  187SLPC  H18T21581   0.407   1.011   8.739  1.0659  1.4994  0.7500
  187SLPC   C3321582   1.076   0.182   7.191 -1.0134 -0.4174 -0.4074
  187SLPC   H3X21583   1.059   0.289   7.215  0.3376 -0.1633 -0.5497
  187SLPC   H3Y21584   1.173   0.167   7.139 -0.4173 -4.3456  1.6621
  187SLPC   C3421585   1.054   0.089   7.310  0.2680 -0.1512 -0.0769
  187SLPC   H4X21586   1.138   0.102   7.382 -0.9277 -3.4426  2.0453
  187SLPC   H4Y21587   1.066  -0.013   7.267 -0.4981 -0.2129 -0.1651
  187SLPC   C3521588   0.930   0.097   7.403  0.0770 -0.4356  0.0087
  187SLPC   H5X21589   0.839   0.045   7.367  0.6110 -0.7699 -0.8758
  187SLPC   H5Y21590   0.903   0.205   7.406  1.0073 -0.2256  1.2501
  187SLPC   C3621591   0.957   0.055   7.549 -0.2341 -0.8156 -0.2954
  187SLPC   H6X21592   0.872   0.090   7.611 -1.2234 -1.2784 -1.3576
  187SLPC   H6Y21593   1.041   0.111   7.595 -0.9762  0.2823 -0.2685
  187SLPC   C3721594   0.973  -0.101   7.575 -0.0472  0.2174  0.9640
  187SLPC   H7X21595   0.885  -0.150   7.529 -0.9364  3.5792 -1.0305
  187SLPC   H7Y21596   1.063  -0.140   7.523  0.4433  3.5881 -0.7914
  187SLPC   C3821597   0.970  -0.129   7.722 -0.0666 -0.0587  0.9059
  187SLPC   H8X21598   0.980  -0.239   7.733 -1.1895 -0.0384  2.3310
  187SLPC   H8Y21599   0.867  -0.105   7.755  0.2298  1.0389  1.0355
  187SLPC   C3921600   1.075  -0.062   7.811  0.2505 -0.3646  0.2197
  187SLPC   H9X21601   1.051   0.045   7.825  1.5807  0.0410 -0.4690
  187SLPC   H9Y21602   1.170  -0.074   7.755  0.7247  1.4086  0.6108
  187SLPC  C31021603   1.095  -0.123   7.953  0.1906  0.1328  0.2635
  187SLPC  H10X21604   1.192  -0.083   7.989  0.8035 -0.6876 -0.4757
  187SLPC  H10Y21605   1.099  -0.234   7.949 -1.1746  0.0635  0.4965
  187SLPC  C31121606   0.995  -0.084   8.060  0.0159 -0.2495  0.5366
  187SLPC  H11X21607   0.896  -0.094   8.010  0.0506  1.0478  0.2041
  187SLPC  H11Y21608   1.011   0.024   8.082  0.0426  0.1853 -1.5800
  187SLPC  C31221609   1.021  -0.155   8.197 -0.0043  0.3806  0.4011
  187SLPC  H12X21610   1.120  -0.126   8.237 -0.0954 -1.0868  1.7207
  187SLPC  H12Y21611   1.025  -0.264   8.180  2.4066  0.4292  0.5693
  187SLPC  C31321612   0.916  -0.118   8.304  0.2738 -0.0710 -0.1397
  187SLPC  H13X21613   0.824  -0.117   8.242  0.4120  2.9181 -0.3742
  187SLPC  H13Y21614   0.935  -0.013   8.334 -0.1156  0.1389 -0.6269
  187SLPC  C31421615   0.929  -0.200   8.429 -0.4762 -0.4362 -0.4935
  187SLPC  H14X21616   0.927  -0.299   8.379 -3.2961  0.2706 -1.8746
  187SLPC  H14Y21617   0.839  -0.181   8.491 -0.0791 -2.7827  0.8610
  187SLPC  C31521618   1.048  -0.163   8.518  0.4288  0.1070 -1.0237
  187SLPC  H15X21619   1.052  -0.055   8.541  0.2905  0.3678 -2.2101
  187SLPC  H15Y21620   1.144  -0.194   8.471  0.1175 -3.0743  0.2997
  187SLPC  C31621621   1.046  -0.235   8.658 -0.4334 -0.2028 -0.0161
  187SLPC  H16X21622   1.038  -0.345   8.646 -0.1587 -0.7402  4.0245
  187SLPC  H16Y21623   0.953  -0.192   8.701 -0.5679 -1.4655  1.0017
  187SLPC  C31721624   1.175  -0.193   8.728 -0.1108 -0.1552 -0.7094
  187SLPC  H17X21625   1.169  -0.181   8.838  2.6626  2.0287 -0.7343
  187SLPC  H17Y21626   1.208  -0.091   8.696  0.4125  0.4387  1.6584
  187SLPC  C31821627   1.288  -0.296   8.702  0.0950 -0.0252 -0.0800
  187SLPC  H18X21628   1.310  -0.305   8.594  0.0438 -1.6439  0.0330
  187SLPC  H18Y21629   1.258  -0.397   8.737  3.7901 -1.4151 -0.7207
  187SLPC  H18Z21630   1.381  -0.281   8.761  2.3270 -0.8539 -3.2712
  188SLPC     N21631   2.436   1.823   6.107  0.6212 -0.1677 -0.5978
  188SLPC   C1321632   2.295   1.840   6.060  0.0377 -0.5337  0.0532
  188SLPC  H13A21633   2.262   1.793   5.968 -0.1936 -1.2262  0.4936
  188SLPC  H13B21634   2.236   1.810   6.145  1.4758  0.3654  1.4050
  188SLPC  H13C21635   2.284   1.946   6.043  0.3838 -0.4835  0.1485
  188SLPC   C1421636   2.535   1.833   5.996 -0.5335 -0.2941  0.3831
  188SLPC  H14A21637   2.632   1.797   6.030  0.9778  0.9499 -2.4929
  188SLPC  H14B21638   2.497   1.776   5.913  0.2497  0.6693 -0.6384
  188SLPC  H14C21639   2.554   1.931   5.955 -0.0062 -0.2334  0.7578
  188SLPC   C1521640   2.452   1.681   6.154 -0.0093 -0.1864 -1.0338
  188SLPC  H15A21641   2.425   1.607   6.081  1.0947  1.2898 -2.9885
  188SLPC  H15B21642   2.555   1.655   6.175 -0.0163  1.3144  1.0375
  188SLPC  H15C21643   2.396   1.670   6.246  0.2326  2.6820 -0.4832
  188SLPC   C1221644   2.474   1.923   6.222  0.1132 -0.5605  0.1126
  188SLPC  H12A21645   2.505   2.010   6.166  0.0242  0.0525  1.0065
  188SLPC  H12B21646   2.566   1.901   6.274  0.3569 -2.3881 -1.0377
  188SLPC   C1121647   2.365   1.964   6.327 -0.0094  0.7251 -0.1602
  188SLPC  H11A21648   2.281   2.024   6.285 -0.2989  0.9290  0.7036
  188SLPC  H11B21649   2.421   2.033   6.395  3.6760  0.1598 -2.4614
  188SLPC     P21650   2.178   1.782   6.397  0.0247  0.4534 -0.1411
  188SLPC   O1321651   2.104   1.833   6.287 -0.1773  0.0140  0.1935
  188SLPC   O1421652   2.197   1.636   6.405  0.6475 -0.3642  0.1589
  188SLPC   O1221653   2.325   1.856   6.410  0.5148  0.7889 -0.1659
  188SLPC   O1121654   2.095   1.830   6.529 -0.0376 -0.1868 -0.5540
  188SLPC    C121655   2.010   1.948   6.500  0.0837  0.3949  0.2845
  188SLPC    HA21656   2.074   2.039   6.494  2.7665 -1.3716  1.1317
  188SLPC    HB21657   1.940   1.938   6.415  0.0934 -1.1003  0.4380
  188SLPC    C221658   1.917   1.980   6.627 -0.5353  0.0190  0.1898
  188SLPC    HS21659   1.873   2.082   6.631 -0.3034  0.1013  0.6484
  188SLPC   O2121660   1.990   1.963   6.749 -0.3734  0.5174 -0.2433
  188SLPC   C2121661   2.078   2.058   6.771  0.1450  0.0990 -0.1915
  188SLPC   O2221662   2.097   2.158   6.706  0.3012 -0.0067 -0.2911
  188SLPC   C2221663   2.154   2.019   6.896  0.8771 -0.4991  0.1975
  188SLPC   H2R21664   2.216   1.930   6.868 -0.7425 -0.6706 -3.1674
  188SLPC   H2S21665   2.218   2.109   6.907  1.2058 -0.8130  0.8976
  188SLPC    C321666   1.800   1.877   6.629  0.3555  0.2355  0.0538
  188SLPC    HX21667   1.835   1.772   6.615  0.1618  0.2083 -0.2366
  188SLPC    HY21668   1.743   1.904   6.538 -1.9526 -1.2472  0.9890
  188SLPC   O3121669   1.714   1.891   6.743  0.1538 -0.2623 -0.5318
  188SLPC   C3121670   1.757   1.831   6.860  0.2617 -0.6254  0.7649
  188SLPC   O3221671   1.841   1.746   6.872  0.2891 -0.0340  0.4591
  188SLPC   C3221672   1.655   1.880   6.958 -0.3313  0.2258 -0.2373
  188SLPC   H2X21673   1.572   1.805   6.956  1.2835 -1.6331  0.4401
  188SLPC   H2Y21674   1.614   1.977   6.923 -2.4462 -0.7347 -0.5413
  188SLPC   C2321675   2.066   1.983   7.014 -0.2141  0.5239 -0.1000
  188SLPC   H3R21676   2.014   1.892   6.976  0.0634  0.6866 -0.8939
  188SLPC   H3S21677   2.002   2.065   7.051  0.0051 -0.3506  2.2802
  188SLPC   C2421678   2.154   1.942   7.131 -0.6472 -0.3708  0.0098
  188SLPC   H4R21679   2.222   2.028   7.150 -0.9020 -0.2643  0.4250
  188SLPC   H4S21680   2.216   1.852   7.110  0.4148  0.5951 -1.1081
  188SLPC   C2521681   2.064   1.928   7.264  0.7483 -0.3957  0.3961
  188SLPC   H5R21682   1.981   1.862   7.230  1.7533 -0.1429 -2.7231
  188SLPC   H5S21683   2.020   2.027   7.286 -1.5139 -0.9386 -1.5248
  188SLPC   C2621684   2.147   1.871   7.375 -0.5607  0.8339  1.0595
  188SLPC   H6R21685   2.221   1.945   7.413 -0.2223  1.8132 -1.4313
  188SLPC   H6S21686   2.212   1.791   7.334  2.2129  2.9061  1.2957
  188SLPC   C2721687   2.063   1.825   7.487 -0.0076 -0.4251  0.1854
  188SLPC   H7R21688   2.120   1.762   7.558  0.5001 -1.2637 -0.9420
  188SLPC   H7S21689   1.983   1.767   7.435 -0.9879  0.1471  1.0413
  188SLPC   C2821690   1.996   1.929   7.581 -0.0580 -0.0908 -0.2927
  188SLPC   H8R21691   1.952   2.008   7.516  1.2005 -0.7442 -1.9576
  188SLPC   H8S21692   2.080   1.974   7.638  0.3560  1.0360 -1.7457
  188SLPC   C2921693   1.887   1.858   7.652  0.5533  0.1723 -0.6601
  188SLPC   H9R21694   1.827   1.800   7.581  0.7997 -0.1687 -0.5908
  188SLPC  C21021695   1.857   1.862   7.781 -0.2590  0.2241 -0.4414
  188SLPC  H10R21696   1.777   1.797   7.819  0.8230 -0.4688  0.6729
  188SLPC  C21121697   1.936   1.925   7.885 -0.3706  0.3825  0.4217
  188SLPC  H11R21698   1.871   1.947   7.972 -1.4569  1.3427 -0.6187
  188SLPC  H11S21699   1.978   2.020   7.846  0.0033 -0.5015 -1.4023
  188SLPC  C21221700   2.047   1.842   7.945 -0.0006 -0.2286 -0.1290
  188SLPC  H12R21701   2.066   1.742   7.904 -2.6895 -0.4330 -0.9460
  188SLPC  C21321702   2.139   1.897   8.034  0.0785 -0.0209 -0.4712
  188SLPC  H13R21703   2.222   1.837   8.072 -0.9755 -1.7187 -0.7979
  188SLPC  C21421704   2.137   2.044   8.082  0.2882  0.1705  0.1503
  188SLPC  H14R21705   2.079   2.061   8.176  1.0076 -0.7312  0.7609
  188SLPC  H14S21706   2.093   2.109   8.003 -1.4879 -1.5500 -0.3348
  188SLPC  C21521707   2.277   2.087   8.112  0.0741 -0.7811  0.2190
  188SLPC  H15R21708   2.277   2.197   8.131  2.6127 -0.6960 -0.0293
  188SLPC  H15S21709   2.337   2.060   8.023 -1.7748 -0.1848 -1.2456
  188SLPC  C21621710   2.337   2.002   8.231 -0.5903  0.3084 -0.5423
  188SLPC  H16R21711   2.373   1.900   8.207  0.5623 -0.1372  2.8585
  188SLPC  H16S21712   2.259   2.000   8.309 -1.1005  1.3429 -1.0017
  188SLPC  C21721713   2.452   2.079   8.310  0.4597 -1.1349  0.1518
  188SLPC  H17R21714   2.427   2.184   8.333  2.5612 -1.1416  2.8101
  188SLPC  H17S21715   2.528   2.085   8.229 -1.8022  1.6195 -1.8529
  188SLPC  C21821716   2.512   2.007   8.434  0.1109 -0.1589  0.6036
  188SLPC  H18R21717   2.430   1.962   8.494  0.9080 -1.5047  0.7206
  188SLPC  H18S21718   2.565   2.081   8.498 -1.5906  1.1431  0.5415
  188SLPC  H18T21719   2.588   1.932   8.401  0.1597 -1.2051  2.9506
  188SLPC   C3321720   1.715   1.883   7.099 -0.2411  0.3341 -0.7499
  188SLPC   H3X21721   1.802   1.946   7.124 -1.2581  1.3350  0.3044
  188SLPC   H3Y21722   1.749   1.780   7.123  0.2427  0.4261 -1.0401
  188SLPC   C3421723   1.596   1.925   7.192  0.1793  0.5624 -0.5720
  188SLPC   H4X21724   1.512   1.856   7.170 -1.5047  2.5718 -0.6277
  188SLPC   H4Y21725   1.563   2.030   7.177  1.3187  0.9650 -0.3251
  188SLPC   C3521726   1.636   1.907   7.341  0.3596  0.1240 -0.3293
  188SLPC   H5X21727   1.730   1.961   7.368  0.4689 -0.9195  1.4291
  188SLPC   H5Y21728   1.650   1.798   7.355  1.2868  0.2145 -0.5427
  188SLPC   C3621729   1.528   1.958   7.439 -0.2883  0.4209 -1.1431
  188SLPC   H6X21730   1.437   1.900   7.409 -1.4028  1.4829  0.0914
  188SLPC   H6Y21731   1.505   2.065   7.422 -0.5949  0.5933  0.2421
  188SLPC   C3721732   1.564   1.937   7.582 -0.0001 -0.9315  0.3967
  188SLPC   H7X21733   1.644   2.014   7.587  1.7048 -2.6367 -0.3681
  188SLPC   H7Y21734   1.613   1.839   7.600 -0.1234 -1.2361 -0.8602
  188SLPC   C3821735   1.455   1.988   7.677  0.0539  0.1644  0.4644
  188SLPC   H8X21736   1.351   1.957   7.652 -0.9365  0.7714  3.6520
  188SLPC   H8Y21737   1.451   2.099   7.670  0.2649  0.2202  1.2660
  188SLPC   C3921738   1.472   1.944   7.826 -0.1558 -0.0876 -0.1501
  188SLPC   H9X21739   1.514   1.842   7.839 -1.8390 -0.3818  3.3607
  188SLPC   H9Y21740   1.374   1.955   7.876 -0.5042 -1.1081 -0.6125
  188SLPC  C31021741   1.565   2.042   7.902  0.4454 -0.3323  0.0971
  188SLPC  H10X21742   1.547   2.147   7.872 -0.4884  0.9849  4.8403
  188SLPC  H10Y21743   1.667   2.015   7.869  0.3123  0.7428 -1.2213
  188SLPC  C31121744   1.566   2.024   8.053  0.7467 -0.1640  0.8724
  188SLPC  H11X21745   1.582   1.918   8.083 -3.4309 -1.1831 -0.1985
  188SLPC  H11Y21746   1.470   2.050   8.101 -0.3246  0.7263 -1.6645
  188SLPC  C31221747   1.673   2.116   8.116  0.5263 -0.2627  0.6254
  188SLPC  H12X21748   1.646   2.224   8.111 -1.1279 -0.5659  2.3500
  188SLPC  H12Y21749   1.758   2.116   8.044 -1.6915  1.5889 -2.1168
  188SLPC  C31321750   1.718   2.078   8.258  0.3613  0.0624 -0.0190
  188SLPC  H13X21751   1.802   2.145   8.286  0.5238 -0.5335  0.9558
  188SLPC  H13Y21752   1.758   1.974   8.257 -3.5754 -1.5256  0.3938
  188SLPC  C31421753   1.615   2.096   8.368  0.2246  0.3429  0.6872
  188SLPC  H14X21754   1.534   2.025   8.341 -0.1707  1.3671 -0.8675
  188SLPC  H14Y21755   1.578   2.201   8.372 -0.9997 -0.1311  2.5517
  188SLPC  C31521756   1.669   2.071   8.508 -0.1859  0.3732  0.0463
  188SLPC  H15X21757   1.741   2.156   8.515 -2.2943  2.2438 -0.2194
  188SLPC  H15Y21758   1.729   1.978   8.515 -0.8181  0.0645  1.6174
  188SLPC  C31621759   1.574   2.082   8.632  1.2355 -0.8898  0.0632
  188SLPC  H16X21760   1.488   2.015   8.615  1.0838 -1.1740  1.9246
  188SLPC  H16Y21761   1.531   2.185   8.628 -0.7260 -1.7270 -0.6979
  188SLPC  C31721762   1.645   2.066   8.768 -0.4358  0.0398 -0.3057
  188SLPC  H17X21763   1.587   2.122   8.844  0.1929  0.7228 -0.3181
  188SLPC  H17Y21764   1.738   2.127   8.762  0.2483 -0.9982 -0.3760
  188SLPC  C31821765   1.691   1.922   8.807 -0.4438 -0.7933 -0.1244
  188SLPC  H18X21766   1.779   1.923   8.875  0.8554 -0.4857 -1.7695
  188SLPC  H18Y21767   1.723   1.869   8.715  1.0967  0.7480 -0.4918
  188SLPC  H18Z21768   1.596   1.881   8.849 -1.3293  3.3757  2.1655
  189SLPC     N21769   4.598   3.331   6.324  0.8518  0.5762  0.5111
  189SLPC   C1321770   4.562   3.402   6.189 -0.2129  0.9211  0.1067
  189SLPC  H13A21771   4.518   3.496   6.220  0.7898  1.3036  0.4179
  189SLPC  H13B21772   4.659   3.418   6.143  1.0288 -0.3762  2.1834
  189SLPC  H13C21773   4.493   3.349   6.126  1.6470  0.5842 -1.7136
  189SLPC   C1421774   4.699   3.414   6.393  0.1973  0.3266  0.2618
  189SLPC  H14A21775   4.786   3.437   6.332 -0.2363 -1.4821 -1.1119
  189SLPC  H14B21776   4.659   3.507   6.430 -0.7878 -0.6981  1.8140
  189SLPC  H14C21777   4.735   3.372   6.486 -1.9093  3.3227  2.5228
  189SLPC   C1521778   4.663   3.204   6.296  0.5260  0.5647 -0.3743
  189SLPC  H15A21779   4.693   3.168   6.393  0.8204  1.4491 -0.1347
  189SLPC  H15B21780   4.584   3.138   6.262 -0.8012 -0.0324  3.5957
  189SLPC  H15C21781   4.748   3.224   6.233 -2.0019  3.3663 -3.0552
  189SLPC   C1221782   4.484   3.301   6.413  0.4181 -0.6108  0.5502
  189SLPC  H12A21783   4.508   3.263   6.511 -1.0699 -0.3033  1.0454
  189SLPC  H12B21784   4.425   3.220   6.371 -2.7227  1.8768 -0.0328
  189SLPC   C1121785   4.394   3.424   6.457 -0.2411 -0.3237  0.0339
  189SLPC  H11A21786   4.469   3.500   6.487  1.3991 -2.0876  0.5141
  189SLPC  H11B21787   4.340   3.390   6.548 -2.3098 -0.5665 -1.2510
  189SLPC     P21788   4.167   3.439   6.330 -0.3080  0.7884 -0.0271
  189SLPC   O1321789   4.091   3.553   6.276 -0.6940 -0.6442 -0.5694
  189SLPC   O1421790   4.166   3.311   6.251 -0.1519 -0.1401  0.2539
  189SLPC   O1221791   4.313   3.487   6.361 -0.2069 -0.0547 -0.6495
  189SLPC   O1121792   4.105   3.411   6.470  0.1022 -1.0566  0.0803
  189SLPC    C121793   4.098   3.519   6.567 -0.4574 -0.7239  0.7904
  189SLPC    HA21794   4.164   3.490   6.651  0.0184  0.7234  0.9258
  189SLPC    HB21795   4.129   3.621   6.534 -1.2089 -1.1333 -1.2477
  189SLPC    C221796   3.956   3.527   6.618 -0.4086  0.2524  0.4748
  189SLPC    HS21797   3.886   3.537   6.533  1.4191 -1.6822 -1.2923
  189SLPC   O2121798   3.946   3.634   6.712 -0.1205 -0.3995 -0.3010
  189SLPC   C2121799   3.894   3.747   6.669 -0.2044 -0.8232 -0.5022
  189SLPC   O2221800   3.859   3.775   6.556  0.5454 -0.1025  0.1090
  189SLPC   C2221801   3.867   3.849   6.783  0.7280  0.4212  0.1700
  189SLPC   H2R21802   3.931   3.937   6.760 -0.2973  1.3132  0.6831
  189SLPC   H2S21803   3.760   3.874   6.763  0.5652 -1.0129 -0.8079
  189SLPC    C321804   3.916   3.394   6.680 -0.7350 -0.8509  0.6717
  189SLPC    HX21805   3.997   3.382   6.754  0.1857 -0.8849 -0.3264
  189SLPC    HY21806   3.931   3.314   6.604  2.1947  1.1404 -0.9293
  189SLPC   O3121807   3.790   3.392   6.743 -0.6675  0.3066  0.2688
  189SLPC   C3121808   3.783   3.290   6.831 -0.4270  0.2330 -0.2625
  189SLPC   O3221809   3.868   3.207   6.842 -0.2664  0.5367  0.2423
  189SLPC   C3221810   3.653   3.295   6.910  0.1642 -0.0191 -0.1103
  189SLPC   H2X21811   3.614   3.191   6.915 -3.4494  1.2571 -0.4441
  189SLPC   H2Y21812   3.576   3.349   6.850 -2.2005 -0.9838  1.9966
  189SLPC   C2321813   3.892   3.792   6.932  0.0970 -0.1716 -0.8185
  189SLPC   H3R21814   3.985   3.731   6.928  1.6205  2.0074  0.4193
  189SLPC   H3S21815   3.804   3.736   6.971 -1.7129  2.2813 -1.2699
  189SLPC   C2421816   3.914   3.910   7.031 -0.5785  0.6805 -0.1309
  189SLPC   H4R21817   3.841   3.993   7.022 -1.2119  0.2304  0.7412
  189SLPC   H4S21818   4.007   3.954   6.992 -0.9826  1.2969 -0.4073
  189SLPC   C2521819   3.939   3.856   7.173 -0.1737 -0.2586 -0.2260
  189SLPC   H5R21820   3.995   3.937   7.223  1.2561 -0.0842 -2.0330
  189SLPC   H5S21821   4.002   3.765   7.174  0.4408  0.1779  1.1667
  189SLPC   C2621822   3.809   3.818   7.240 -0.0723  0.3012  0.0457
  189SLPC   H6R21823   3.747   3.758   7.171  0.1041  1.6529 -1.3007
  189SLPC   H6S21824   3.752   3.911   7.259 -0.2971  0.0561  0.5910
  189SLPC   C2721825   3.835   3.736   7.371  0.1220 -0.0953  0.2374
  189SLPC   H7R21826   3.899   3.797   7.438 -1.0200  0.1443  1.1440
  189SLPC   H7S21827   3.870   3.637   7.337 -2.1919 -0.0748 -2.3771
  189SLPC   C2821828   3.709   3.716   7.457  0.2635 -0.3207 -0.1388
  189SLPC   H8R21829   3.624   3.673   7.400 -0.4136  1.1884 -0.2967
  189SLPC   H8S21830   3.687   3.819   7.491 -0.5364 -0.0936 -1.3487
  189SLPC   C2921831   3.740   3.617   7.562  0.0229  0.1304 -0.6817
  189SLPC   H9R21832   3.770   3.515   7.532 -0.0095  0.1736 -0.8597
  189SLPC  C21021833   3.739   3.647   7.694  0.9222 -0.3332 -0.2787
  189SLPC  H10R21834   3.772   3.571   7.767  0.6492  0.8847  1.1434
  189SLPC  C21121835   3.709   3.778   7.759 -0.5277  0.5275 -0.6989
  189SLPC  H11R21836   3.642   3.842   7.698  1.3795  1.3419 -1.9761
  189SLPC  H11S21837   3.809   3.823   7.775 -0.2505  0.3497 -1.9529
  189SLPC  C21221838   3.642   3.743   7.886 -0.6659  0.1060 -0.4232
  189SLPC  H12R21839   3.542   3.700   7.866 -0.4295 -0.0057 -1.4060
  189SLPC  C21321840   3.687   3.762   8.013  0.6755 -0.4211  0.2271
  189SLPC  H13R21841   3.618   3.728   8.092 -2.1427 -0.2800 -2.1115
  189SLPC  C21421842   3.813   3.834   8.050 -0.6597  0.3766 -0.6184
  189SLPC  H14R21843   3.809   3.941   8.020  0.9496  1.7135  3.4896
  189SLPC  H14S21844   3.905   3.790   8.005 -0.3258  2.2861 -1.8937
  189SLPC  C21521845   3.820   3.844   8.207 -0.4044 -0.0671 -0.3245
  189SLPC  H15R21846   3.847   3.746   8.251  0.3576  1.3691  2.5028
  189SLPC  H15S21847   3.722   3.874   8.250 -0.0345 -1.1946  1.3298
  189SLPC  C21621848   3.925   3.947   8.244  0.3815  0.6230 -0.0179
  189SLPC  H16R21849   3.918   3.960   8.354 -0.6619 -0.7054  0.0806
  189SLPC  H16S21850   3.906   4.046   8.197  0.2484  0.2198 -0.8290
  189SLPC  C21721851   4.071   3.908   8.218 -0.0863 -0.0728 -0.2130
  189SLPC  H17R21852   4.087   3.858   8.120 -0.2868 -0.9774  0.2142
  189SLPC  H17S21853   4.105   3.838   8.297  2.4904  0.1723 -1.0417
  189SLPC  C21821854   4.177   4.024   8.212 -0.7119  0.2351  0.0072
  189SLPC  H18R21855   4.279   3.988   8.184 -0.3614  2.0077 -1.0907
  189SLPC  H18S21856   4.177   4.082   8.307 -2.3969  1.4789 -0.7265
  189SLPC  H18T21857   4.138   4.098   8.139  3.1690  1.0865 -1.3364
  189SLPC   C3321858   3.670   3.345   7.055  0.8538  0.2459 -0.0083
  189SLPC   H3X21859   3.567   3.362   7.094  1.1777  0.9155  0.5810
  189SLPC   H3Y21860   3.714   3.447   7.042  1.3074 -0.0740 -0.9900
  189SLPC   C3421861   3.746   3.258   7.158  0.8393 -0.7689  0.2225
  189SLPC   H4X21862   3.854   3.257   7.133  0.9648 -0.6038  0.7595
  189SLPC   H4Y21863   3.711   3.153   7.144 -0.8418 -0.4548  1.9005
  189SLPC   C3521864   3.726   3.295   7.309 -0.7869  0.2791  0.2940
  189SLPC   H5X21865   3.619   3.288   7.338 -0.3391  2.3146  2.5575
  189SLPC   H5Y21866   3.750   3.403   7.315  1.6251 -0.2916  1.3737
  189SLPC   C3621867   3.792   3.189   7.401  0.5089 -0.7969  0.4652
  189SLPC   H6X21868   3.903   3.189   7.395  0.5658 -3.3136  0.8119
  189SLPC   H6Y21869   3.753   3.089   7.372 -0.4112 -0.8337  1.7509
  189SLPC   C3721870   3.782   3.219   7.557 -0.5295 -0.2927 -0.0113
  189SLPC   H7X21871   3.823   3.319   7.584 -2.4971  0.1763  1.4279
  189SLPC   H7Y21872   3.834   3.141   7.617 -0.1700  0.5820  0.8254
  189SLPC   C3821873   3.633   3.205   7.618  0.0475 -0.0456 -0.6257
  189SLPC   H8X21874   3.591   3.102   7.626 -0.3084  0.2513  1.8814
  189SLPC   H8Y21875   3.570   3.252   7.539  0.0453 -1.4664 -1.4812
  189SLPC   C3921876   3.602   3.262   7.756 -0.0951  0.2185  0.2585
  189SLPC   H9X21877   3.491   3.262   7.764 -0.1192 -1.1386  0.1253
  189SLPC   H9Y21878   3.642   3.365   7.765 -0.4637  0.3482  0.4179
  189SLPC  C31021879   3.654   3.167   7.868 -1.0274  0.3550 -0.7817
  189SLPC  H10X21880   3.747   3.108   7.851  0.1305  1.7988  0.3712
  189SLPC  H10Y21881   3.584   3.082   7.880  1.6563 -1.6397  1.3583
  189SLPC  C31121882   3.665   3.232   8.009 -0.1321 -0.5834  0.4419
  189SLPC  H11X21883   3.651   3.147   8.080  2.5797 -0.1374  1.5766
  189SLPC  H11Y21884   3.573   3.292   8.027 -0.5332 -0.9632 -0.3149
  189SLPC  C31221885   3.782   3.328   8.022 -0.5375 -0.1951  0.0641
  189SLPC  H12X21886   3.801   3.392   7.932  0.4776  1.1242  1.1965
  189SLPC  H12Y21887   3.874   3.267   8.031  1.1431  2.1037 -1.0515
  189SLPC  C31321888   3.787   3.419   8.140  0.2938 -0.7848  0.0265
  189SLPC  H13X21889   3.686   3.465   8.142  1.0474  0.8709  2.3824
  189SLPC  H13Y21890   3.867   3.495   8.124  0.5137 -0.8524  0.7461
  189SLPC  C31421891   3.808   3.342   8.267 -0.8664 -0.2708  0.2088
  189SLPC  H14X21892   3.873   3.256   8.241  0.6031  0.5230  1.2062
  189SLPC  H14Y21893   3.723   3.294   8.321  0.4471  1.0986  3.6303
  189SLPC  C31521894   3.887   3.428   8.367  0.7704 -0.3003 -0.3988
  189SLPC  H15X21895   3.970   3.487   8.322  0.0435  1.7070  0.8047
  189SLPC  H15Y21896   3.939   3.366   8.443  1.2672  1.7031  0.9306
  189SLPC  C31621897   3.793   3.524   8.453 -0.7083  0.0673 -0.1491
  189SLPC  H16X21898   3.730   3.584   8.384 -0.3847  0.7798  0.1647
  189SLPC  H16Y21899   3.851   3.607   8.500 -1.2400  0.4566 -0.1811
  189SLPC  C31721900   3.701   3.458   8.560  0.2653  0.2559 -0.5834
  189SLPC  H17X21901   3.644   3.371   8.522  3.0283 -1.8002 -0.1464
  189SLPC  H17Y21902   3.632   3.540   8.590  2.7224  1.7556  1.1777
  189SLPC  C31821903   3.776   3.401   8.687 -0.4332 -0.3528  0.3714
  189SLPC  H18X21904   3.753   3.292   8.695  0.0228 -0.4267  0.7109
  189SLPC  H18Y21905   3.745   3.448   8.782 -0.0746  0.8711 -0.1128
  189SLPC  H18Z21906   3.885   3.420   8.678 -0.3925 -0.6648  0.1857
  190SLPC     N21907   4.979   2.790   6.063  0.5576  0.3194 -0.1218
  190SLPC   C1321908   4.961   2.740   5.919 -0.1850  0.6514  0.5454
  190SLPC  H13A21909   4.871   2.681   5.912  0.6116 -0.5474  0.2704
  190SLPC  H13B21910   4.965   2.824   5.851 -3.0773  0.7215  0.3850
  190SLPC  H13C21911   5.044   2.674   5.900 -0.6319 -0.2285  1.5506
  190SLPC   C1421912   4.878   2.898   6.086 -0.4470  0.0493 -0.6233
  190SLPC  H14A21913   4.787   2.863   6.040  1.3310 -1.1095 -3.4468
  190SLPC  H14B21914   4.867   2.921   6.191  0.3328  0.8519 -0.7085
  190SLPC  H14C21915   4.907   2.987   6.031  0.8386 -0.5826 -0.9971
  190SLPC   C1521916   5.106   2.846   6.076 -0.1459  0.0974 -0.2993
  190SLPC  H15A21917   5.143   2.879   6.172  0.4579 -2.5290  0.4071
  190SLPC  H15B21918   5.190   2.786   6.045  0.5672  1.5808 -1.3194
  190SLPC  H15C21919   5.118   2.927   6.005  1.6321  1.1915  1.1943
  190SLPC   C1221920   4.956   2.683   6.168 -0.2806  0.3094  0.5571
  190SLPC  H12A21921   4.977   2.724   6.265  0.9732  0.7891  0.0855
  190SLPC  H12B21922   5.020   2.596   6.156 -1.3179 -0.9806  3.8499
  190SLPC   C1121923   4.820   2.617   6.190  1.5551 -0.6305 -0.4686
  190SLPC  H11A21924   4.818   2.528   6.258 -2.2909  0.3521  0.8644
  190SLPC  H11B21925   4.797   2.570   6.092  2.1747 -0.7475 -0.5576
  190SLPC     P21926   4.717   2.784   6.374  0.3454  0.2473 -0.0212
  190SLPC   O1321927   4.857   2.830   6.402 -0.1422  0.3376  0.0899
  190SLPC   O1421928   4.622   2.897   6.378  0.5604  0.8822 -0.0068
  190SLPC   O1221929   4.710   2.704   6.232  0.4856 -0.4175 -0.0088
  190SLPC   O1121930   4.674   2.671   6.472  0.2803  0.0409  0.0370
  190SLPC    C121931   4.542   2.638   6.514 -0.0958 -0.1743 -0.1917
  190SLPC    HA21932   4.470   2.676   6.438  1.0583  0.4426 -0.9988
  190SLPC    HB21933   4.532   2.527   6.518 -0.1515 -0.1434  0.5580
  190SLPC    C221934   4.509   2.712   6.648  0.6473  0.2237 -0.0151
  190SLPC    HS21935   4.511   2.819   6.622 -2.0356  0.5431  0.9774
  190SLPC   O2121936   4.613   2.662   6.737 -0.3634 -0.1349  0.0501
  190SLPC   C2121937   4.667   2.764   6.797  0.1407  0.3360  0.4471
  190SLPC   O2221938   4.658   2.880   6.769  0.5197  0.0600 -0.1234
  190SLPC   C2221939   4.741   2.716   6.921 -0.2009  0.1632  0.4110
  190SLPC   H2R21940   4.668   2.668   6.989 -1.8988 -0.6358 -1.9085
  190SLPC   H2S21941   4.815   2.640   6.887  0.4051  1.3684 -1.0190
  190SLPC    C321942   4.364   2.677   6.693  0.0720  0.3409 -0.1016
  190SLPC    HX21943   4.341   2.570   6.672  1.0328  0.0307  0.4199
  190SLPC    HY21944   4.297   2.736   6.626  1.7715  1.8608 -0.4975
  190SLPC   O3121945   4.344   2.709   6.833 -0.3646  0.5149  0.9170
  190SLPC   C3121946   4.221   2.675   6.885  0.2690 -0.6191  0.4612
  190SLPC   O3221947   4.123   2.650   6.817  0.2196  0.0970  0.3204
  190SLPC   C3221948   4.216   2.689   7.033 -0.1466  0.1129 -0.2518
  190SLPC   H2X21949   4.191   2.795   7.058  1.4831 -0.5799  4.8940
  190SLPC   H2Y21950   4.317   2.668   7.073 -1.7959 -0.3219  3.9463
  190SLPC   C2321951   4.815   2.830   6.993  0.0909  0.6157  0.1999
  190SLPC   H3R21952   4.743   2.902   7.037  3.5639  2.7773  2.5322
  190SLPC   H3S21953   4.886   2.890   6.932  1.7257 -1.2917  0.1677
  190SLPC   C2421954   4.899   2.765   7.103 -0.5331 -0.0117 -0.7218
  190SLPC   H4R21955   4.992   2.719   7.065  0.9703  1.2943  1.2416
  190SLPC   H4S21956   4.840   2.686   7.154 -0.1020  0.8996  1.2324
  190SLPC   C2521957   4.934   2.854   7.228 -0.7903  0.0011  0.6878
  190SLPC   H5R21958   4.851   2.925   7.246  0.9871  1.7618  2.1844
  190SLPC   H5S21959   5.019   2.918   7.194 -0.3333 -1.3604 -0.8420
  190SLPC   C2621960   4.977   2.784   7.361 -0.4306  0.3376 -0.5250
  190SLPC   H6R21961   5.070   2.724   7.353 -2.0978 -2.2922 -0.7990
  190SLPC   H6S21962   4.910   2.701   7.392 -1.9900  2.0539  0.7766
  190SLPC   C2721963   4.980   2.894   7.468 -0.1387  0.2515 -0.6011
  190SLPC   H7R21964   4.880   2.939   7.480 -0.0032  1.3003 -3.0704
  190SLPC   H7S21965   5.037   2.981   7.430  1.4680  0.9871  3.2709
  190SLPC   C2821966   5.030   2.858   7.610 -0.1573  0.0647  0.3073
  190SLPC   H8R21967   5.005   2.945   7.674  1.5931  0.8054  0.0124
  190SLPC   H8S21968   5.140   2.841   7.603 -0.2639 -1.2563  1.6390
  190SLPC   C2921969   4.967   2.732   7.666 -0.4316 -0.1720 -0.1179
  190SLPC   H9R21970   5.026   2.640   7.656 -0.4181 -0.2183  0.4025
  190SLPC  C21021971   4.846   2.723   7.715  0.0985  0.0520  0.5997
  190SLPC  H10R21972   4.813   2.621   7.741 -0.6681  0.6283  1.8878
  190SLPC  C21121973   4.732   2.827   7.731 -0.6572 -0.3097 -0.7223
  190SLPC  H11R21974   4.707   2.872   7.632  0.9486  0.7515 -0.6729
  190SLPC  H11S21975   4.776   2.910   7.791 -1.3986 -1.2879  1.2009
  190SLPC  C21221976   4.597   2.781   7.790  0.3883  0.1915  0.3485
  190SLPC  H12R21977   4.516   2.771   7.716 -0.4962 -0.2697  1.3654
  190SLPC  C21321978   4.574   2.736   7.919  0.7268 -0.2094  0.4249
  190SLPC  H13R21979   4.471   2.701   7.940  0.8939 -1.4686 -0.7873
  190SLPC  C21421980   4.659   2.731   8.048 -0.1736 -0.1447 -0.0370
  190SLPC  H14R21981   4.593   2.761   8.132 -1.2536  2.0233 -1.6087
  190SLPC  H14S21982   4.740   2.808   8.044  0.3840 -0.6884  0.8222
  190SLPC  C21521983   4.724   2.597   8.073 -0.2337 -0.3760 -0.5150
  190SLPC  H15R21984   4.754   2.561   7.972 -0.3542  0.5797 -0.8975
  190SLPC  H15S21985   4.644   2.523   8.091 -0.9508  0.5058 -0.0651
  190SLPC  C21621986   4.828   2.601   8.185  0.7336  0.0783  0.2851
  190SLPC  H16R21987   4.788   2.646   8.279 -0.8497  0.0323 -0.3493
  190SLPC  H16S21988   4.912   2.664   8.150 -0.6506  0.7885 -1.8236
  190SLPC  C21721989   4.875   2.459   8.217 -0.4760  0.2904  0.1495
  190SLPC  H17R21990   4.890   2.399   8.125  3.1063  0.3228  0.6604
  190SLPC  H17S21991   4.802   2.410   8.284 -0.8699 -0.3653 -0.7469
  190SLPC  C21821992   5.014   2.450   8.293  0.1554  0.5513  0.5164
  190SLPC  H18R21993   5.009   2.494   8.395 -1.3998  0.5726  0.4357
  190SLPC  H18S21994   5.086   2.516   8.238 -0.9379  1.8492  0.6205
  190SLPC  H18T21995   5.046   2.344   8.287  2.2106  1.3100 -3.3810
  190SLPC   C3321996   4.126   2.600   7.116 -0.2956 -0.4381 -0.1737
  190SLPC   H3X21997   4.148   2.493   7.100 -4.0288 -1.6646  2.1430
  190SLPC   H3Y21998   4.025   2.614   7.072  1.2469  1.3354 -3.2636
  190SLPC   C3421999   4.137   2.627   7.273 -0.1902  0.2017  0.5513
  190SLPC   H4X22000   4.103   2.732   7.284  2.2206  1.0529  0.2342
  190SLPC   H4Y22001   4.246   2.628   7.295  0.5240 -0.5335 -2.7233
  190SLPC   C3522002   4.075   2.517   7.356  0.1354  0.5395 -0.7797
  190SLPC   H5X22003   4.126   2.424   7.324  0.2606  0.4714 -0.3811
  190SLPC   H5Y22004   3.967   2.516   7.327  0.2821  3.3441 -1.6555
  190SLPC   C3622005   4.090   2.550   7.510  0.2721 -0.1571  0.8923
  190SLPC   H6X22006   4.045   2.646   7.543 -1.2287  0.3884 -2.4829
  190SLPC   H6Y22007   4.199   2.562   7.527 -0.1072  3.6532  0.9707
  190SLPC   C3722008   4.031   2.452   7.608 -0.0151  0.4427 -0.1959
  190SLPC   H7X22009   4.059   2.349   7.577 -0.8977 -0.0795  0.7300
  190SLPC   H7Y22010   3.920   2.446   7.613 -0.0194  0.5459 -0.1893
  190SLPC   C3822011   4.087   2.477   7.750  0.2496  0.0199 -0.9013
  190SLPC   H8X22012   4.064   2.580   7.785  0.2486 -0.3494  0.2147
  190SLPC   H8Y22013   4.198   2.470   7.750  0.1927 -1.0239  0.6537
  190SLPC   C3922014   4.051   2.376   7.862 -0.3407  0.3930 -0.7561
  190SLPC   H9X22015   4.008   2.285   7.814 -0.0064 -1.1993  1.8311
  190SLPC   H9Y22016   3.966   2.413   7.923 -0.0671  0.9625 -0.7202
  190SLPC  C31022017   4.170   2.351   7.954  0.9916  0.5384  0.4321
  190SLPC  H10X22018   4.263   2.333   7.895  0.9732 -0.6307  0.7360
  190SLPC  H10Y22019   4.156   2.255   8.007 -4.2740  2.7295  3.3293
  190SLPC  C31122020   4.196   2.462   8.052 -0.9791  0.1739  0.5020
  190SLPC  H11X22021   4.109   2.485   8.116  1.1541  1.7902  2.9536
  190SLPC  H11Y22022   4.201   2.560   7.998 -0.8492  0.1529  0.4750
  190SLPC  C31222023   4.316   2.451   8.139 -0.6044 -0.2706  0.4798
  190SLPC  H12X22024   4.408   2.480   8.085 -0.6252 -0.0859  0.5443
  190SLPC  H12Y22025   4.331   2.349   8.182 -1.4501 -0.3013  0.7061
  190SLPC  C31322026   4.312   2.549   8.253  0.3586  0.5996 -0.1723
  190SLPC  H13X22027   4.221   2.539   8.316  0.0125  0.4151 -0.7045
  190SLPC  H13Y22028   4.326   2.652   8.212  0.1623  1.0382  0.8401
  190SLPC  C31422029   4.432   2.528   8.352  0.5088  0.4205 -0.4857
  190SLPC  H14X22030   4.521   2.552   8.290 -1.8123  0.4971 -3.9946
  190SLPC  H14Y22031   4.434   2.421   8.380 -1.6295  0.2224 -0.9926
  190SLPC  C31522032   4.425   2.618   8.474  0.5682 -0.0582  0.0983
  190SLPC  H15X22033   4.331   2.588   8.526  2.4195 -0.8520  3.1417
  190SLPC  H15Y22034   4.420   2.725   8.447 -0.0930  0.2803  1.5034
  190SLPC  C31622035   4.555   2.615   8.556 -0.2959  0.3007  0.2532
  190SLPC  H16X22036   4.633   2.653   8.488 -1.6479 -0.3121 -1.6867
  190SLPC  H16Y22037   4.566   2.510   8.590 -1.9835 -0.1798 -0.6013
  190SLPC  C31722038   4.551   2.716   8.671 -0.2672  0.1298 -0.6414
  190SLPC  H17X22039   4.454   2.708   8.725 -1.4187  1.2362 -2.5072
  190SLPC  H17Y22040   4.555   2.820   8.634  0.5968  0.4419  0.2902
  190SLPC  C31822041   4.667   2.692   8.772  0.0049  0.0098 -0.0216
  190SLPC  H18X22042   4.622   2.630   8.852 -1.5389  2.2431  0.9027
  190SLPC  H18Y22043   4.704   2.787   8.817  2.7946 -0.3635 -1.4291
  190SLPC  H18Z22044   4.746   2.631   8.723 -1.5451 -1.8340 -0.2810
  191SLPC     N22045   3.007   4.886   5.934 -0.6770  0.5354  0.0085
  191SLPC   C1322046   2.917   4.798   6.017 -0.3822  0.3265  0.4304
  191SLPC  H13A22047   2.963   4.701   6.032  2.3775  1.3445 -1.0556
  191SLPC  H13B22048   2.896   4.836   6.116 -0.7081  1.3765 -0.0291
  191SLPC  H13C22049   2.827   4.787   5.958 -0.5948 -0.8642  0.9568
  191SLPC   C1422050   2.928   5.016   5.926  1.0331  0.0158 -0.1225
  191SLPC  H14A22051   2.840   5.005   5.864  0.6942 -0.4239  0.4344
  191SLPC  H14B22052   2.912   5.063   6.021  2.1849 -2.0389  1.1261
  191SLPC  H14C22053   2.997   5.080   5.873  1.6802  1.1547  2.0531
  191SLPC   C1522054   3.037   4.832   5.799 -0.4107 -0.1618  0.4058
  191SLPC  H15A22055   3.099   4.904   5.748 -1.7511  0.1465 -0.8352
  191SLPC  H15B22056   3.097   4.742   5.800 -0.8071 -0.4326 -0.0861
  191SLPC  H15C22057   2.948   4.827   5.737  0.2145  0.8343 -0.5867
  191SLPC   C1222058   3.139   4.903   6.006 -0.4006 -0.1051  0.2698
  191SLPC  H12A22059   3.182   4.814   6.050 -0.6259 -0.0049  0.7002
  191SLPC  H12B22060   3.130   4.969   6.092  0.4565 -0.6716  0.7966
  191SLPC   C1122061   3.255   4.971   5.930  0.0940 -0.1715  0.4264
  191SLPC  H11A22062   3.285   4.914   5.839  0.7237  1.3273 -0.3338
  191SLPC  H11B22063   3.351   4.966   5.986  0.1114  0.9689  0.5122
  191SLPC     P22064   3.251   5.225   5.987 -0.0993  0.1880  0.0259
  191SLPC   O1322065   3.390   5.250   5.953 -0.0162  0.0249 -0.1575
  191SLPC   O1422066   3.149   5.328   5.985 -0.3999  0.2489  0.0226
  191SLPC   O1222067   3.221   5.107   5.888  0.6734  0.5049  0.2953
  191SLPC   O1122068   3.246   5.164   6.139  0.3161  0.2674  0.0916
  191SLPC    C122069   3.277   5.232   6.257 -0.6663  0.7448 -0.8257
  191SLPC    HA22070   3.385   5.211   6.276 -0.9604 -0.0380  0.0221
  191SLPC    HB22071   3.261   5.340   6.237 -2.5984  0.9890  1.7402
  191SLPC    C222072   3.186   5.187   6.373  0.5419 -0.1389  1.3046
  191SLPC    HS22073   3.089   5.239   6.385 -0.2551 -1.2184 -0.3112
  191SLPC   O2122074   3.267   5.183   6.490 -0.1441 -0.4951 -0.8343
  191SLPC   C2122075   3.307   5.308   6.534  0.2697 -0.1203 -0.9991
  191SLPC   O2222076   3.269   5.410   6.484  0.3491  0.1490  0.0108
  191SLPC   C2222077   3.381   5.302   6.673  0.9047 -0.7684 -0.0983
  191SLPC   H2R22078   3.314   5.237   6.734 -1.2483  1.4969  0.0164
  191SLPC   H2S22079   3.472   5.239   6.662  2.5803  1.7094 -0.6891
  191SLPC    C322080   3.126   5.044   6.344 -0.3970 -0.1812 -0.4541
  191SLPC    HX22081   3.224   4.993   6.328 -0.3319 -0.2531  0.1659
  191SLPC    HY22082   3.057   5.039   6.258  0.6851  1.1704 -1.4209
  191SLPC   O3122083   3.050   4.999   6.458  0.3615  0.3859  0.2621
  191SLPC   C3122084   3.123   4.917   6.532  0.3631  0.0581  0.2209
  191SLPC   O3222085   3.228   4.861   6.504  0.4949  0.2124 -0.2649
  191SLPC   C3222086   3.049   4.873   6.664 -0.2805 -0.3993  0.5463
  191SLPC   H2X22087   2.974   4.797   6.633 -1.0792  0.9493 -0.9991
  191SLPC   H2Y22088   2.987   4.963   6.685  1.8704  1.4215 -0.6622
  191SLPC   C2322089   3.412   5.436   6.737 -0.0688 -0.5617 -0.4356
  191SLPC   H3R22090   3.319   5.494   6.752  0.7026  0.6283 -0.2190
  191SLPC   H3S22091   3.480   5.485   6.664  0.1295  1.7465  1.2399
  191SLPC   C2422092   3.468   5.414   6.876 -0.2130 -0.0081 -0.4152
  191SLPC   H4R22093   3.550   5.339   6.867  0.5361  0.8046 -0.4622
  191SLPC   H4S22094   3.391   5.368   6.941  0.7681 -1.7440 -0.4393
  191SLPC   C2522095   3.520   5.533   6.954  0.5410 -0.4454 -0.4577
  191SLPC   H5R22096   3.441   5.584   7.013  1.1686  0.5289 -0.4511
  191SLPC   H5S22097   3.567   5.616   6.898 -0.5438 -1.5822 -3.1548
  191SLPC   C2622098   3.611   5.497   7.079 -0.1280 -0.6590 -0.0561
  191SLPC   H6R22099   3.708   5.451   7.050 -0.1870 -0.5095 -0.4878
  191SLPC   H6S22100   3.550   5.433   7.147  1.3452 -2.4252 -0.3770
  191SLPC   C2722101   3.650   5.622   7.163  0.1695  0.3125  1.0434
  191SLPC   H7R22102   3.567   5.692   7.185 -1.7012 -1.7449  0.6420
  191SLPC   H7S22103   3.716   5.679   7.094  0.1650 -1.0387 -0.0955
  191SLPC   C2822104   3.741   5.594   7.281  0.1848  0.4242  0.6179
  191SLPC   H8R22105   3.806   5.681   7.304 -1.0046  1.3697  0.4705
  191SLPC   H8S22106   3.805   5.510   7.247 -0.5117  0.8328 -1.8661
  191SLPC   C2922107   3.659   5.545   7.395 -0.0340 -0.5857  0.3562
  191SLPC   H9R22108   3.612   5.446   7.382 -0.1190 -0.7867  2.0924
  191SLPC  C21022109   3.649   5.606   7.519 -0.3380  0.0659  0.0329
  191SLPC  H10R22110   3.596   5.550   7.597  1.7072 -1.0750  0.6709
  191SLPC  C21122111   3.717   5.739   7.559  0.0840  0.1240  0.4399
  191SLPC  H11R22112   3.644   5.782   7.631 -0.1557 -1.1265  0.9586
  191SLPC  H11S22113   3.720   5.804   7.469  0.5505  0.6359  0.8271
  191SLPC  C21222114   3.858   5.710   7.628  0.2738  0.3787  0.4390
  191SLPC  H12R22115   3.937   5.751   7.564  1.3762 -1.2238  0.7484
  191SLPC  C21322116   3.891   5.669   7.753 -0.1180  0.4630  0.4240
  191SLPC  H13R22117   3.993   5.646   7.784 -1.5449 -0.7778  4.5263
  191SLPC  C21422118   3.793   5.633   7.860  0.2419  0.2809 -0.6255
  191SLPC  H14R22119   3.816   5.535   7.907  0.5630 -0.1480 -1.6628
  191SLPC  H14S22120   3.695   5.632   7.808  0.5783  1.0172 -1.2849
  191SLPC  C21522121   3.786   5.743   7.967  0.5605  0.3798 -0.5868
  191SLPC  H15R22122   3.688   5.737   8.019  0.1998 -1.0189 -1.3943
  191SLPC  H15S22123   3.784   5.844   7.922  1.0251  0.7162  0.1389
  191SLPC  C21622124   3.890   5.728   8.081 -0.2423 -0.4230  1.2428
  191SLPC  H16R22125   3.989   5.720   8.030  0.3175 -0.3228  2.3096
  191SLPC  H16S22126   3.865   5.632   8.130 -0.8174 -1.3073 -0.7310
  191SLPC  C21722127   3.888   5.849   8.179 -0.1272  0.0972  0.5402
  191SLPC  H17R22128   3.831   5.823   8.271  1.5405 -1.0454  1.2721
  191SLPC  H17S22129   3.845   5.931   8.117  1.9874  0.5814 -0.3093
  191SLPC  C21822130   4.029   5.875   8.229  0.0479 -0.1157 -0.1034
  191SLPC  H18R22131   4.098   5.910   8.149  1.2700 -0.8617  0.6116
  191SLPC  H18S22132   4.087   5.792   8.274 -0.2528 -0.7319 -0.8240
  191SLPC  H18T22133   4.028   5.949   8.312  3.2143 -0.0557 -0.0579
  191SLPC   C3322134   3.139   4.839   6.786  0.0920 -0.6887 -0.5277
  191SLPC   H3X22135   3.188   4.740   6.775 -0.1585 -0.9625  0.7349
  191SLPC   H3Y22136   3.073   4.824   6.874 -1.2494  0.7770 -1.2483
  191SLPC   C3422137   3.235   4.953   6.826  0.4010 -0.6289 -1.2450
  191SLPC   H4X22138   3.185   5.053   6.825 -0.5298 -1.0927 -1.8526
  191SLPC   H4Y22139   3.316   4.959   6.750 -1.1469 -0.7320 -2.9525
  191SLPC   C3522140   3.290   4.929   6.973 -0.0414  0.5460  0.5098
  191SLPC   H5X22141   3.353   4.838   6.981 -0.5449  0.0535 -0.8319
  191SLPC   H5Y22142   3.210   4.895   7.042  1.5144 -3.1247  0.6143
  191SLPC   C3622143   3.360   5.046   7.044 -0.3545 -0.1369  0.5946
  191SLPC   H6X22144   3.295   5.135   7.031  1.0061  0.7109 -0.6180
  191SLPC   H6Y22145   3.456   5.068   6.992 -0.7352  0.5995  0.1998
  191SLPC   C3722146   3.393   5.018   7.187 -0.2295 -0.0180  0.1155
  191SLPC   H7X22147   3.479   4.951   7.210 -1.4048 -2.1349 -1.4437
  191SLPC   H7Y22148   3.307   4.965   7.233  0.5704  1.7906  3.8509
  191SLPC   C3822149   3.397   5.144   7.280  0.1638 -0.7913 -0.1139
  191SLPC   H8X22150   3.322   5.216   7.239 -2.1859 -2.7288  0.6471
  191SLPC   H8Y22151   3.496   5.190   7.261  0.9437 -1.2214  2.7639
  191SLPC   C3922152   3.375   5.127   7.430 -0.3975  0.1603  0.0277
  191SLPC   H9X22153   3.269   5.102   7.450 -0.5438 -0.0171 -0.9326
  191SLPC   H9Y22154   3.385   5.220   7.490 -0.1496 -0.3634  0.7989
  191SLPC  C31022155   3.449   5.006   7.489  0.3993  0.2024 -0.5660
  191SLPC  H10X22156   3.559   5.021   7.481  0.5561 -1.3157 -1.4708
  191SLPC  H10Y22157   3.433   4.913   7.430  2.1658 -0.8468  0.5786
  191SLPC  C31122158   3.414   4.984   7.634 -0.1611  0.4896  0.2843
  191SLPC  H11X22159   3.309   4.953   7.650  0.2858 -0.4826  1.5037
  191SLPC  H11Y22160   3.435   5.080   7.685 -0.3359  0.5010  0.3324
  191SLPC  C31222161   3.506   4.875   7.690  0.3472  0.0944 -0.6274
  191SLPC  H12X22162   3.606   4.922   7.681  0.1868 -0.0743 -3.9657
  191SLPC  H12Y22163   3.521   4.786   7.626 -0.7730 -2.0043  1.9690
  191SLPC  C31322164   3.494   4.838   7.840 -0.0785 -0.8915 -0.0907
  191SLPC  H13X22165   3.401   4.783   7.866 -1.3845  1.2066 -0.2526
  191SLPC  H13Y22166   3.491   4.920   7.915  1.9452 -0.2842 -0.6550
  191SLPC  C31422167   3.604   4.744   7.880 -0.0926 -0.3616 -0.2786
  191SLPC  H14X22168   3.695   4.806   7.880 -0.6547  0.4955  2.2717
  191SLPC  H14Y22169   3.604   4.652   7.816  4.5889  0.2991 -1.4121
  191SLPC  C31522170   3.591   4.688   8.019  0.0517  0.6648  0.2212
  191SLPC  H15X22171   3.679   4.624   8.042  0.3046 -0.1620 -2.8076
  191SLPC  H15Y22172   3.512   4.610   8.031  0.5237  0.5327  2.9073
  191SLPC  C31622173   3.573   4.794   8.132  0.1837 -0.1733  0.5792
  191SLPC  H16X22174   3.468   4.829   8.119 -0.0364  0.0385  2.7275
  191SLPC  H16Y22175   3.644   4.878   8.120 -1.6220  1.0759 -1.8550
  191SLPC  C31722176   3.586   4.719   8.265  0.4346 -0.1416 -0.0552
  191SLPC  H17X22177   3.684   4.666   8.260 -0.4423 -1.8433  0.3523
  191SLPC  H17Y22178   3.502   4.647   8.280  0.4336 -0.0723  0.2607
  191SLPC  C31822179   3.596   4.810   8.383  0.2414 -0.4542 -0.0313
  191SLPC  H18X22180   3.690   4.867   8.390  0.1898 -0.3123 -0.4376
  191SLPC  H18Y22181   3.568   4.763   8.480 -1.6949 -1.5662 -1.0732
  191SLPC  H18Z22182   3.519   4.890   8.383  0.0296 -0.6089 -2.3716
  192SLPC     N22183   4.203   6.141   6.285 -0.2500  0.1076  0.0427
  192SLPC   C1322184   4.202   6.182   6.143  1.0596  0.0453 -0.5422
  192SLPC  H13A22185   4.134   6.266   6.134  1.1739 -0.1914 -4.0333
  192SLPC  H13B22186   4.299   6.206   6.103 -0.2292  1.3143 -3.0216
  192SLPC  H13C22187   4.161   6.103   6.083 -0.7648  1.1554 -0.8103
  192SLPC   C1422188   4.289   6.023   6.302 -0.3151 -0.4650  0.4496
  192SLPC  H14A22189   4.390   6.040   6.266 -0.2426 -0.6405  0.5694
  192SLPC  H14B22190   4.295   5.992   6.405 -1.3654 -2.1076  0.0351
  192SLPC  H14C22191   4.257   5.936   6.245  0.1754 -0.1628 -0.2982
  192SLPC   C1522192   4.065   6.107   6.324  0.4192  0.3368  0.1340
  192SLPC  H15A22193   4.031   6.016   6.277 -0.9395 -0.0413  1.7857
  192SLPC  H15B22194   4.058   6.084   6.429 -0.0495  0.1772  0.0680
  192SLPC  H15C22195   3.998   6.184   6.288  0.6044 -1.3293 -4.0926
  192SLPC   C1222196   4.242   6.258   6.371  0.2387 -0.8382  0.5605
  192SLPC  H12A22197   4.238   6.229   6.475  0.3772 -1.5473  0.3695
  192SLPC  H12B22198   4.171   6.339   6.370  0.8503 -0.2983 -0.0877
  192SLPC   C1122199   4.381   6.329   6.335 -0.3042  0.3291  0.0916
  192SLPC  H11A22200   4.400   6.423   6.392 -1.3023  1.1386 -0.8874
  192SLPC  H11B22201   4.382   6.364   6.230  0.4570  2.6887  0.8499
  192SLPC     P22202   4.597   6.256   6.464 -0.3572 -0.5495  0.1685
  192SLPC   O1322203   4.706   6.161   6.426  0.0138 -0.4636 -0.1320
  192SLPC   O1422204   4.627   6.402   6.484  0.5263  0.2638  0.4385
  192SLPC   O1222205   4.492   6.235   6.347 -0.2203 -0.1752 -0.1110
  192SLPC   O1122206   4.524   6.203   6.596 -0.1320 -0.1922 -0.3271
  192SLPC    C122207   4.480   6.071   6.619 -0.3194  0.6054  0.2577
  192SLPC    HA22208   4.375   6.056   6.586  0.0134 -1.3533  0.0525
  192SLPC    HB22209   4.546   6.002   6.562 -1.0265  0.3569 -0.2601
  192SLPC    C222210   4.497   6.033   6.768  0.2872  0.7700  0.6110
  192SLPC    HS22211   4.435   5.942   6.787  0.0047  0.3612 -2.1146
  192SLPC   O2122212   4.458   6.141   6.858  0.0276  0.2066 -1.1027
  192SLPC   C2122213   4.332   6.179   6.855  0.5704  0.1339  0.1608
  192SLPC   O2222214   4.246   6.136   6.782  0.3929 -0.1139 -0.1815
  192SLPC   C2222215   4.305   6.251   6.987  0.0949 -0.1269  0.3307
  192SLPC   H2R22216   4.400   6.298   7.021  1.4248 -0.5084 -2.6610
  192SLPC   H2S22217   4.228   6.324   6.953 -0.5720 -1.0902 -0.2569
  192SLPC    C322218   4.647   5.991   6.800 -0.2308 -0.1280 -0.6634
  192SLPC    HX22219   4.702   6.088   6.798 -1.1148  0.4020 -0.0013
  192SLPC    HY22220   4.677   5.928   6.714 -1.1676  0.1262 -1.1816
  192SLPC   O3122221   4.653   5.932   6.929  1.0416  0.1342 -0.3491
  192SLPC   C3122222   4.779   5.926   6.973 -0.0938 -0.1103 -0.1797
  192SLPC   O3222223   4.878   5.952   6.910 -0.0370  0.2506 -0.3125
  192SLPC   C3222224   4.777   5.873   7.113  0.1291  0.4579 -0.1341
  192SLPC   H2X22225   4.873   5.828   7.147 -0.3635 -0.9421 -0.5476
  192SLPC   H2Y22226   4.701   5.792   7.114 -0.5930  1.1296  1.8120
  192SLPC   C2322227   4.244   6.148   7.087  0.2582 -0.0148 -0.6350
  192SLPC   H3R22228   4.325   6.076   7.112  0.0473 -0.6408 -1.6814
  192SLPC   H3S22229   4.160   6.094   7.038 -0.3286 -1.9962  2.4287
  192SLPC   C2422230   4.195   6.231   7.207  0.3527  0.2109  0.3348
  192SLPC   H4R22231   4.110   6.298   7.184 -0.0227 -0.4115 -0.1036
  192SLPC   H4S22232   4.280   6.296   7.236  0.1753  0.6367 -0.1033
  192SLPC   C2522233   4.186   6.140   7.333 -0.7276  0.4765 -0.5488
  192SLPC   H5R22234   4.288   6.105   7.360 -1.3806 -1.0111  0.0710
  192SLPC   H5S22235   4.116   6.058   7.306 -0.3683  0.2882 -0.9081
  192SLPC   C2622236   4.129   6.213   7.454  0.0532 -0.4101  0.2667
  192SLPC   H6R22237   4.035   6.268   7.430 -0.2603 -0.5813  1.0713
  192SLPC   H6S22238   4.194   6.294   7.494 -2.7804  0.7250  2.7881
  192SLPC   C2722239   4.103   6.112   7.565  0.3760  0.1947  0.2033
  192SLPC   H7R22240   4.196   6.059   7.595 -0.5172 -1.1241  0.6400
  192SLPC   H7S22241   4.026   6.047   7.519  1.4056 -0.6449 -0.3663
  192SLPC   C2822242   4.053   6.184   7.695 -0.5718 -0.5678  0.2405
  192SLPC   H8R22243   3.963   6.242   7.663 -0.1377 -0.2650 -0.4534
  192SLPC   H8S22244   4.135   6.249   7.732 -0.3192  1.1882 -3.1257
  192SLPC   C2922245   4.005   6.082   7.795 -0.5451 -0.1713  0.4126
  192SLPC   H9R22246   3.964   5.991   7.748 -1.5855  1.4803 -2.0211
  192SLPC  C21022247   4.021   6.086   7.927  0.0931  0.0422  0.2526
  192SLPC  H10R22248   3.967   6.017   7.993  2.3833 -1.3824  0.7058
  192SLPC  C21122249   4.082   6.188   8.007  0.3141 -0.3562 -0.0194
  192SLPC  H11R22250   4.179   6.220   7.962  0.3486  4.0301  2.8648
  192SLPC  H11S22251   4.113   6.166   8.111  0.4660  0.6228  0.1522
  192SLPC  C21222252   4.012   6.324   8.021 -0.1343  0.9065  0.0772
  192SLPC  H12R22253   3.966   6.362   7.928 -0.3392  1.9698  0.6141
  192SLPC  C21322254   3.963   6.383   8.137  0.3403  0.1166 -0.7358
  192SLPC  H13R22255   3.919   6.481   8.114 -2.4713 -0.8742  0.2045
  192SLPC  C21422256   3.983   6.343   8.277  0.4645  0.0710 -0.3873
  192SLPC  H14R22257   3.983   6.233   8.293  1.6478  0.1203  0.0047
  192SLPC  H14S22258   3.897   6.393   8.326  0.4238  0.8176 -1.2250
  192SLPC  C21522259   4.108   6.398   8.357 -0.5380  0.4495  0.3797
  192SLPC  H15R22260   4.116   6.380   8.466 -0.5811  0.6351  0.4152
  192SLPC  H15S22261   4.091   6.508   8.354 -0.1762  0.4699 -1.0493
  192SLPC  C21622262   4.241   6.366   8.289 -0.3977  0.1853 -0.0897
  192SLPC  H16R22263   4.248   6.392   8.181 -0.2405 -0.7460 -0.3036
  192SLPC  H16S22264   4.269   6.259   8.301  1.2176  0.6808  0.6593
  192SLPC  C21722265   4.358   6.450   8.353 -0.1645 -0.2948  0.8158
  192SLPC  H17R22266   4.325   6.447   8.459  1.2153  1.6916  1.3351
  192SLPC  H17S22267   4.454   6.396   8.349  0.4883  0.9990 -2.3096
  192SLPC  C21822268   4.370   6.597   8.317 -0.2547 -0.1956  0.6438
  192SLPC  H18R22269   4.451   6.644   8.377 -0.7230  0.5282  0.7155
  192SLPC  H18S22270   4.272   6.647   8.333  0.7004  1.8093  0.3709
  192SLPC  H18T22271   4.379   6.607   8.207  1.3949 -0.0735  0.7719
  192SLPC   C3322272   4.719   5.977   7.220  0.0534  0.2560 -0.1782
  192SLPC   H3X22273   4.630   6.026   7.175 -0.4124  0.6446  1.1315
  192SLPC   H3Y22274   4.775   6.073   7.225  2.6096 -0.9998 -2.9911
  192SLPC   C3422275   4.680   5.902   7.343  0.9207  0.2797  0.0607
  192SLPC   H4X22276   4.602   5.832   7.307  3.1973 -1.5378 -1.4577
  192SLPC   H4Y22277   4.635   5.968   7.420 -1.7710  0.5432 -1.6904
  192SLPC   C3522278   4.796   5.829   7.416  0.1948 -0.0381 -0.7842
  192SLPC   H5X22279   4.880   5.901   7.422  0.9882 -1.0733  0.6369
  192SLPC   H5Y22280   4.833   5.745   7.354 -0.2350  0.5710 -1.9044
  192SLPC   C3622281   4.756   5.782   7.562  0.1512  0.2329  0.6053
  192SLPC   H6X22282   4.848   5.732   7.599 -0.5230  0.4659  2.6665
  192SLPC   H6Y22283   4.681   5.700   7.563  2.4717 -2.0017 -0.7023
  192SLPC   C3722284   4.727   5.903   7.654  0.8453  0.2549 -0.2379
  192SLPC   H7X22285   4.616   5.911   7.650  0.7528 -0.1283  1.1794
  192SLPC   H7Y22286   4.777   5.994   7.615  1.7870 -0.8362 -1.6052
  192SLPC   C3822287   4.779   5.879   7.798  0.1299  0.3800 -0.1935
  192SLPC   H8X22288   4.781   5.977   7.850 -0.5397  0.2407  0.1014
  192SLPC   H8Y22289   4.887   5.854   7.787 -0.3093 -1.1853 -1.0932
  192SLPC   C3922290   4.704   5.775   7.877  0.1282  0.3961  0.3486
  192SLPC   H9X22291   4.744   5.678   7.843  1.7166  1.4777 -0.9154
  192SLPC   H9Y22292   4.593   5.775   7.865  0.0584 -0.0392  0.9612
  192SLPC  C31022293   4.759   5.770   8.021 -0.1587  0.3891  1.1385
  192SLPC  H10X22294   4.726   5.862   8.072  1.1927  0.9417  1.0437
  192SLPC  H10Y22295   4.870   5.780   8.019  0.1339 -2.5975 -1.0796
  192SLPC  C31122296   4.702   5.643   8.096 -0.4167 -0.5163 -0.0486
  192SLPC  H11X22297   4.735   5.551   8.042 -0.7135 -0.0647 -1.0118
  192SLPC  H11Y22298   4.591   5.643   8.091 -0.4469  0.3481  0.4995
  192SLPC  C31222299   4.739   5.633   8.243 -0.3588 -0.3610  0.6646
  192SLPC  H12X22300   4.723   5.733   8.288  0.4236 -0.2038  0.5998
  192SLPC  H12Y22301   4.842   5.596   8.262 -0.2997 -0.4860  0.1167
  192SLPC  C31322302   4.642   5.539   8.320 -0.3023  0.0321  0.7823
  192SLPC  H13X22303   4.625   5.445   8.264 -0.4255 -0.4440  1.6142
  192SLPC  H13Y22304   4.536   5.571   8.328 -1.3860 -2.3282 -2.9524
  192SLPC  C31422305   4.682   5.504   8.461  0.1487  0.8124  0.0390
  192SLPC  H14X22306   4.714   5.593   8.519 -0.3059  1.2614 -0.3984
  192SLPC  H14Y22307   4.766   5.431   8.460 -1.4468 -1.0755  0.2462
  192SLPC  C31522308   4.573   5.443   8.549 -0.3983  0.4763 -0.0676
  192SLPC  H15X22309   4.607   5.405   8.648 -0.9197  1.5086  0.5101
  192SLPC  H15Y22310   4.538   5.350   8.499  0.4545 -0.6770  1.4525
  192SLPC  C31622311   4.451   5.527   8.583  0.5264  0.2488 -0.1418
  192SLPC  H16X22312   4.370   5.470   8.534  0.0973  0.4514  0.3188
  192SLPC  H16Y22313   4.443   5.617   8.518 -0.8132 -0.2508 -0.6784
  192SLPC  C31722314   4.430   5.569   8.734 -0.8271  0.0209 -0.1169
  192SLPC  H17X22315   4.440   5.492   8.813 -0.2132  0.9873  0.7618
  192SLPC  H17Y22316   4.330   5.614   8.749 -1.3629 -1.8983  2.3855
  192SLPC  C31822317   4.530   5.673   8.788 -0.3205  0.4121 -0.4811
  192SLPC  H18X22318   4.550   5.759   8.722 -1.8608  1.0464 -0.1467
  192SLPC  H18Y22319   4.623   5.619   8.816 -2.6961 -1.8389  3.7267
  192SLPC  H18Z22320   4.486   5.713   8.882  0.7384 -1.8794  1.0333
  193SOD    SOD22321   1.334   2.143   2.889 -0.8820 -0.0555 -0.2069
  194SOD    SOD22322   3.791   0.050   4.588 -0.1126  0.4023  0.0815
  195SOD    SOD22323   5.597   1.495  14.442 -0.1864 -0.2709  0.0539
  196SOD    SOD22324   5.086   1.016   5.851  0.1295  0.2959 -0.4604
  197SOD    SOD22325   2.494   5.562  15.341 -0.7972 -0.0704 -0.2063
  198SOD    SOD22326   4.411   1.307  14.930  0.4848 -0.4420  0.2384
  199SOD    SOD22327   4.339   4.603   5.064 -0.1113  0.4534  0.3231
  200SOD    SOD22328   4.343   5.311  14.457 -0.3445 -0.0946  0.6403
  201SOD    SOD22329   0.767   5.104  11.714  0.2780 -0.3635 -0.6171
  202SOD    SOD22330   2.299   5.095  16.912  0.1358  0.0099  0.7374
  203SOD    SOD22331   0.881   1.067   3.942 -0.5741  0.5394  0.4785
  204SOD    SOD22332   1.441   3.346  12.248 -0.0992 -0.2980 -0.0375
  205SOD    SOD22333   3.659   2.884  16.032  0.7025  0.5130 -0.0648
  206SOD    SOD22334   2.186   2.705   4.799  0.3166  0.3599  0.0210
  207SOD    SOD22335   0.707   6.284   5.667 -0.1674  0.1849  0.3718
  208SOD    SOD22336   3.757   6.289   5.406  0.0008 -0.0361  0.0618
  209SOD    SOD22337   6.262   5.719  11.949  0.2057 -0.1433 -0.3624
  210SOD    SOD22338   2.071   2.968   5.979 -0.1264  0.1305 -0.0686
  211SOD    SOD22339   3.631   5.347  12.222  0.4059  0.3130  0.4026
  212SOD    SOD22340   2.563   5.413  11.773  0.2049  0.4037 -0.2812
  213SOD    SOD22341   0.332   5.325   0.470  0.0735  0.3253  0.0381
  214SOD    SOD22342   0.094   3.606   1.516  0.1423 -0.2368 -0.1737
  215SOD    SOD22343   6.189   2.209  11.079  0.0791 -0.1378 -0.5358
  216SOD    SOD22344   0.761   4.551  12.919  0.5414 -0.3552  0.5810
  217SOD    SOD22345   1.402   2.512   0.643 -0.5698  0.0123 -0.4250
  218SOD    SOD22346   0.730   0.917   5.145 -0.2710  0.2423 -0.5961
  219SOD    SOD22347   4.069   2.193   6.634 -0.2780 -0.2832  0.1589
  220SOD    SOD22348   3.846   3.108  10.398 -0.0413 -0.2460 -0.6946
  221SOD    SOD22349   1.052   2.256  16.973 -0.1299 -0.3080 -0.0031
  222SOD    SOD22350   2.432   6.722  14.000  0.3792  0.4370 -0.1480
  223SOD    SOD22351   0.888   0.425  13.141 -0.4568  0.6379 -0.2918
  224SOD    SOD22352   0.636   1.486   0.677 -0.2543  0.2815  0.5288
  225SOD    SOD22353   4.339   6.745   0.977 -0.2004 -0.0794  0.2926
  226SOD    SOD22354   3.880   0.761  14.870 -0.0360  0.1790  0.3320
  227SOD    SOD22355   1.137   1.114  11.818 -0.0014 -0.1724  0.3415
  228SOD    SOD22356   2.234   3.011   4.229 -0.1871 -0.1226 -0.5263
  229SOD    SOD22357   3.856   3.821  12.813  0.0723  0.0683  0.4160
  230SOD    SOD22358   0.754   2.417  10.662  0.2244  0.3528  0.0798
  231SOD    SOD22359   3.999   3.030   4.766 -0.1012  0.4502  0.4435
  232SOD    SOD22360   3.434   4.069   4.638 -0.0084  0.3001 -0.2308
  233SOD    SOD22361   1.394   5.307   0.045 -0.0923 -0.3122  0.4139
  234SOD    SOD22362   0.501   2.235  11.362 -0.0147  0.0181  0.0256
  235SOD    SOD22363   1.310   6.375  11.749 -0.0802  0.5101  0.2119
  236SOD    SOD22364   0.291   3.989  15.336 -0.3771 -0.3497  0.1941
  237SOD    SOD22365   2.846   4.965  14.802  0.3549 -0.2282 -0.3947
  238SOD    SOD22366   2.685   3.464  10.570 -0.2443 -0.0562  0.2990
  239SOD    SOD22367   4.072   6.441  12.092 -0.1931 -0.0620  0.3973
  240SOD    SOD22368   1.748   3.699   0.522 -0.4262  0.0936  0.0559
  241SOD    SOD22369   6.530   2.217   5.822  0.1202 -0.4622 -0.1017
  242SOD    SOD22370   4.132   1.612   0.121 -0.1593 -0.0537  0.3062
  243SOD    SOD22371   2.622   0.029   4.114 -0.1058 -0.2504  0.6210
  244SOD    SOD22372   4.237   5.365   2.829 -0.1139  0.6355 -0.5038
  245SOD    SOD22373   1.279   0.827   2.711 -0.4417  0.4301  0.2873
  246SOD    SOD22374   0.298   3.859  17.248  0.0156 -0.3478  0.3505
  247SOD    SOD22375   5.211   2.553  17.080 -0.2819 -0.0545 -0.1189
  248SOD    SOD22376   3.646   3.590   0.690 -0.0551 -0.7828 -0.3343
  249SOD    SOD22377   4.249   5.810   3.227 -0.2769  0.0022  0.1086
  250SOD    SOD22378   5.577   3.553  15.944  0.6640  0.6487  0.0257
  251SOD    SOD22379   1.103   2.498   5.616  0.1610  0.3148  0.0277
  252SOD    SOD22380   5.629   3.181  10.603 -0.2888  0.4410 -0.4930
  253SOD    SOD22381   0.238   0.780  16.391 -0.0059 -0.1137  0.5456
  254SOD    SOD22382   6.427   0.509   6.533  0.2522  0.0137  0.0481
  255SOD    SOD22383   2.607   3.799   5.594 -1.0259  0.0828  0.4456
  256SOD    SOD22384   1.164   5.797  10.912  0.8487  0.1502  0.1590
  257SOD    SOD22385   4.616   3.201   4.001 -0.4957 -0.8671 -0.2068
  258SOD    SOD22386   6.220   3.687  14.251 -0.3087 -0.3463 -0.3612
  259SOD    SOD22387   6.269   4.465  11.193  0.4458  0.0320  0.1725
  260SOD    SOD22388   3.378   4.776   1.644 -0.3998 -0.0832  0.3553
  261SOD    SOD22389   3.452   1.615  17.141  0.2847  0.2023  0.2084
  262SOD    SOD22390   6.076   1.928   2.200  0.2394  0.0917 -0.2096
  263SOD    SOD22391   4.207   5.899   2.110 -0.5218 -0.1209 -0.3559
  264SOD    SOD22392   1.243   2.566   5.012 -0.1569  0.6607 -0.9466
  265SOD    SOD22393   5.445   1.272   4.097 -0.2147 -0.0890  0.1504
  266CLA    CLA22394   0.578   0.211   3.444  0.2311 -0.0579 -0.0963
  267CLA    CLA22395   0.305   4.268   1.842 -0.1341 -0.1899 -0.1249
  268CLA    CLA22396   4.529   2.540  15.579 -0.2148  0.2219  0.2114
  269CLA    CLA22397   3.798   6.368  14.494  0.2589 -0.1694 -0.0150
  270CLA    CLA22398   3.317   2.963   4.425 -0.1829  0.5270 -0.0430
  271CLA    CLA22399   4.650   2.461  11.252 -0.0642 -0.2091 -0.0095
  272CLA    CLA22400   0.903   2.222   5.132  0.1053 -0.3664 -0.0290
  273CLA    CLA22401   6.732   0.289   0.175 -0.1439 -0.4964 -0.3469
  274CLA    CLA22402   1.137   2.797  13.733 -0.2402 -0.7506  0.1955
  275CLA    CLA22403   3.346   0.172  14.650  0.1895  0.3464 -0.0200
  276CLA    CLA22404   1.282   2.912   3.613 -0.2256 -0.1087  0.0114
  277CLA    CLA22405   4.602   2.678  16.603 -0.0060  0.1228 -0.4846
  278CLA    CLA22406   5.054   3.417  15.294  0.0660  0.0642  0.2101
  279CLA    CLA22407   5.239   2.428   0.329 -0.2657 -0.1135 -0.6397
  280CLA    CLA22408   1.430   0.055   3.278  0.1290 -0.0066 -0.1904
  281CLA    CLA22409   4.363   4.341  16.235 -0.2140  0.1408  0.2714
  282CLA    CLA22410   0.051   2.850  11.764 -0.1424  0.0249 -0.3247
  283CLA    CLA22411   5.803   4.925   5.827 -0.0129  0.1274  0.4872
  284CLA    CLA22412   4.025   6.304   0.940  0.3514  0.0453  0.4063
  285CLA    CLA22413   2.184   6.608  14.115  0.0107  0.0849  0.0203
  286CLA    CLA22414   1.123   6.246  11.615  0.3718  0.2430  0.2469
  287CLA    CLA22415   4.116   5.908   4.422 -0.4434  0.0901  0.4140
  288CLA    CLA22416   0.070   4.954  16.628 -0.2261 -0.0211  0.2747
  289CLA    CLA22417   3.532   5.629   3.461 -0.1610  0.3652  0.1166
  290CLA    CLA22418   1.153   3.837  16.239 -0.0748  0.3166  0.1253
  291CLA    CLA22419   5.057   2.960   4.591  0.1693  0.2289 -0.1810
  292CLA    CLA22420   1.645   0.351  16.266 -0.3839 -0.0643  0.1109
  293CLA    CLA22421   1.473   1.014   1.419 -0.1534  0.2488 -0.1202
  294CLA    CLA22422   1.567   1.169  16.690  0.0752  0.0927  0.0203
  295CLA    CLA22423   1.265   4.840  13.739  0.1564 -0.2735  0.1047
  296CLA    CLA22424   4.260   5.307   1.761  0.3990 -0.1555  0.0361
  297CLA    CLA22425   3.987   2.382  16.555  0.1097  0.3084  0.2203
  298CLA    CLA22426   2.398   4.725   2.233  0.2824  0.3775 -0.1061
  299CLA    CLA22427   4.867   6.208  12.609  0.2607  0.2341  0.1121
  300CLA    CLA22428   1.622   3.344   0.103 -0.0867  0.2141  0.0295
  301CLA    CLA22429   2.954   1.647   4.832  0.3569 -0.1268 -0.2274
  302CLA    CLA22430   4.927   4.933   0.131  0.0152  0.2168  0.4273
  303CLA    CLA22431   0.189   6.263  13.070 -0.3436 -0.5299 -0.2011
  304CLA    CLA22432   2.047   5.423  14.188 -0.2286  0.0246  0.2718
  305CLA    CLA22433   1.311   1.559  15.074 -0.1726 -0.1046  0.2137
  306CLA    CLA22434   1.762   3.523   5.440 -0.2907  0.0311  0.3775
  307CLA    CLA22435   6.142   2.463   2.921 -0.0925 -0.1177 -0.1085
  308CLA    CLA22436   6.191   3.197  16.723 -0.0715  0.3172  0.2606
  309CLA    CLA22437   2.151   2.728  12.458 -0.1762  0.4714 -0.0946
  310CLA    CLA22438   2.090   4.477  15.429  0.4763 -0.1342 -0.3037
  311CLA    CLA22439   1.363   2.581  16.762  0.3896  0.0158 -0.1810
  312CLA    CLA22440   1.439   2.872   2.427 -0.2208 -0.2867 -0.1745
  313CLA    CLA22441   3.500   6.524  13.271 -0.6402 -0.0546 -0.2210
  314CLA    CLA22442   2.009   0.347   0.177 -0.1730  0.0384 -0.2313
  315CLA    CLA22443   4.196   4.001   5.151  0.0737 -0.0859 -0.3307
  316CLA    CLA22444   0.241   5.744  12.203  0.3339 -0.2068  0.2890
  317CLA    CLA22445   6.585   4.324  14.780 -0.1210  0.6336 -0.1799
  318CLA    CLA22446   3.136   6.011  16.609  0.0241 -0.1731 -0.2085
  319TIP3   OH222447   5.246   2.582   1.779  0.2731 -0.1482  0.5555
  319TIP3    H122448   5.218   2.612   1.865  1.5399  1.5198  0.4225
  319TIP3    H222449   5.311   2.514   1.797 -0.0449 -0.3622  0.8974
  320TIP3   OH222450   5.857   2.315   1.954 -0.0303  0.3066 -0.6424
  320TIP3    H122451   5.887   2.406   1.944 -2.1105  1.0205 -0.6150
  320TIP3    H222452   5.817   2.294   1.869 -1.5671  0.2004  0.0915
  321TIP3   OH222453   5.240   5.934  14.799 -0.1566 -0.4556 -0.3849
  321TIP3    H122454   5.249   5.993  14.724 -2.1521 -1.2046 -1.2387
  321TIP3    H222455   5.182   5.864  14.768 -1.3222 -0.5761  1.9531
  322TIP3   OH222456   1.279   4.487  15.918  0.7382  0.1672 -0.1036
  322TIP3    H122457   1.365   4.502  15.879  0.1321 -0.9410 -1.8944
  322TIP3    H222458   1.298   4.461  16.008  2.2189  1.1433 -0.1159
  323TIP3   OH222459   5.959   4.227   4.112  0.4415 -0.5907  0.4180
  323TIP3    H122460   5.936   4.134   4.112  1.6924 -0.9293 -1.0480
  323TIP3    H222461   5.876   4.273   4.128  0.1886 -2.0043  3.4419
  324TIP3   OH222462   0.030   4.084  13.192  0.4955  0.0043 -0.0100
  324TIP3    H122463   0.054   3.993  13.210 -0.1717 -0.2903 -0.5562
  324TIP3    H222464  -0.026   4.109  13.265 -0.7679 -0.6156 -0.7322
  325TIP3   OH222465   3.081   4.560   4.470 -0.5633 -0.0576 -0.0865
  325TIP3    H122466   3.177   4.566   4.473 -0.5993  1.1461 -0.9211
  325TIP3    H222467   3.054   4.559   4.562  0.3051 -1.7271  0.1816
  326TIP3   OH222468   1.664   3.974   5.777  0.0329  0.0466 -0.0213
  326TIP3    H122469   1.751   3.942   5.803 -0.4742  0.0531  1.7687
  326TIP3    H222470   1.663   4.065   5.807 -0.7904 -0.1242  0.4781
  327TIP3   OH222471   0.861   2.555   5.215 -0.2772  0.0199 -0.2743
  327TIP3    H122472   0.882   2.631   5.161  3.2226 -2.4748 -2.6170
  327TIP3    H222473   0.804   2.501   5.160 -1.4690  0.1745  0.7847
  328TIP3   OH222474   1.695   1.592   1.757 -0.3509 -0.1784  0.9186
  328TIP3    H122475   1.721   1.506   1.724  0.2801 -0.0398  1.0469
  328TIP3    H222476   1.676   1.644   1.678  1.2961  0.1969  0.7499
  329TIP3   OH222477   3.641   6.167   2.533  0.5054  0.2001 -0.4389
  329TIP3    H122478   3.647   6.193   2.625  0.2152 -0.8318 -0.1228
  329TIP3    H222479   3.611   6.246   2.488 -1.7051  0.0510  0.6960
  330TIP3   OH222480   0.646   5.731  11.228 -0.7934 -0.5568 -0.0148
  330TIP3    H122481   0.715   5.720  11.162  0.0055  0.5671  0.6186
  330TIP3    H222482   0.670   5.671  11.299  1.5442  2.3841  1.8033
  331TIP3   OH222483   3.339   1.021   1.414 -0.4197  0.5141 -0.4117
  331TIP3    H122484   3.279   1.015   1.489  0.3548  0.6528  0.2310
  331TIP3    H222485   3.426   1.019   1.453  0.0010 -0.0471 -1.3710
  332TIP3   OH222486   6.449   0.306   2.584  0.4059 -0.4166 -0.5007
  332TIP3    H122487   6.503   0.381   2.560 -0.1449  0.2335  0.2448
  332TIP3    H222488   6.457   0.246   2.510  1.5342 -0.0011 -0.7332
  333TIP3   OH222489   0.977   4.261   3.819 -0.1202  0.4954  0.0197
  333TIP3    H122490   0.908   4.220   3.766 -1.2741  1.0161  1.0887
  333TIP3    H222491   0.929   4.317   3.880  1.2808  1.0375  0.6223
  334TIP3   OH222492   2.643   4.591   0.601 -0.3412 -0.1866  1.0236
  334TIP3    H122493   2.610   4.567   0.514 -2.5574 -1.3895  2.1536
  334TIP3    H222494   2.580   4.553   0.662 -0.1473  2.6715  3.0953
  335TIP3   OH222495   3.893   1.714  13.595  0.3447 -0.2558 -0.1248
  335TIP3    H122496   3.917   1.737  13.506 -0.8294 -0.2809 -0.4529
  335TIP3    H222497   3.798   1.713  13.595  0.3073  1.2936  1.5195
  336TIP3   OH222498   2.210   1.139   6.416  0.3430  0.4358 -0.6917
  336TIP3    H122499   2.259   1.086   6.353  1.4000  0.6141 -0.0331
  336TIP3    H222500   2.277   1.177   6.473 -0.3271  3.1247 -1.6091
  337TIP3   OH222501   4.722   1.804  16.238 -0.1044  0.7506 -0.8493
  337TIP3    H122502   4.702   1.873  16.301  0.8631  2.2295 -2.1046
  337TIP3    H222503   4.680   1.834  16.157 -0.7287 -0.7627 -1.1001
  338TIP3   OH222504   1.480   4.704   2.522  0.1203  0.0131  0.5052
  338TIP3    H122505   1.422   4.729   2.450  2.8865 -0.1162 -1.8556
  338TIP3    H222506   1.488   4.784   2.575 -0.5883  0.6115 -0.2768
  339TIP3   OH222507   6.144   1.429   2.987 -0.4253  0.3779 -0.3399
  339TIP3    H122508   6.162   1.403   2.896 -0.6124 -1.1397  0.0329
  339TIP3    H222509   6.197   1.507   3.001 -0.3597  0.6002 -1.7444
  340TIP3   OH222510   1.923   6.252   1.732  0.6234  0.2375 -0.1847
  340TIP3    H122511   1.849   6.312   1.719  0.1782 -0.1240  0.6577
  340TIP3    H222512   1.889   6.166   1.708  0.8459  0.1109 -0.0483
  341TIP3   OH222513   2.011   4.185  16.400  0.3152  0.7656 -0.2669
  341TIP3    H122514   2.078   4.176  16.468  0.1017 -2.5737 -0.4328
  341TIP3    H222515   1.929   4.185  16.448  0.2127 -0.5499 -0.4264
  342TIP3   OH222516   0.563   3.354   4.675 -0.5740  0.6457  0.3042
  342TIP3    H122517   0.650   3.388   4.652 -0.2040 -1.6286 -1.8534
  342TIP3    H222518   0.577   3.305   4.755  0.0575  0.6630  0.2102
  343TIP3   OH222519   4.135   2.525   5.179 -0.4178  1.3152  1.2989
  343TIP3    H122520   4.210   2.583   5.192 -0.2123  1.7398 -1.4351
  343TIP3    H222521   4.065   2.583   5.151 -0.3433  0.3570 -1.0074
  344TIP3   OH222522   6.415   3.565   0.101  0.1863 -0.0510  0.4944
  344TIP3    H122523   6.406   3.588   0.008  2.3257  1.2864  0.5638
  344TIP3    H222524   6.343   3.610   0.144  0.4624  1.1512 -0.2660
  345TIP3   OH222525   1.551   1.736   6.008 -0.2503 -0.1318  0.1669
  345TIP3    H122526   1.544   1.816   6.060 -0.2490  0.5071 -0.7978
  345TIP3    H222527   1.493   1.750   5.934  1.7817  0.1006 -1.4137
  346TIP3   OH222528   1.658   0.839  14.359 -0.2679  0.1863  0.0811
  346TIP3    H122529   1.726   0.773  14.345 -0.2382  0.6176 -1.9431
  346TIP3    H222530   1.576   0.791  14.345 -0.2463  0.5415 -1.3833
  347TIP3   OH222531   3.809   4.387  15.519 -0.1719 -0.0214  0.1256
  347TIP3    H122532   3.779   4.455  15.580 -1.4481  0.1213 -0.6583
  347TIP3    H222533   3.888   4.425  15.479  0.5799 -0.0459  1.5511
  348TIP3   OH222534   5.735   6.601   2.405 -1.0833 -0.1743  0.5885
  348TIP3    H122535   5.707   6.547   2.479 -0.9645 -1.9392 -0.6161
  348TIP3    H222536   5.823   6.631   2.429 -1.5889  0.4111  1.7520
  349TIP3   OH222537   0.294   5.651   0.826 -0.4449 -0.0670  0.4571
  349TIP3    H122538   0.214   5.627   0.778  0.6505  0.8195 -1.8774
  349TIP3    H222539   0.339   5.567   0.840 -1.0988 -0.4089  0.5465
  350TIP3   OH222540   5.350   1.410  16.299  0.4614 -0.2912  0.0779
  350TIP3    H122541   5.422   1.398  16.362  0.3850 -2.0034 -0.1315
  350TIP3    H222542   5.277   1.362  16.338 -0.1637  0.3084 -0.3688
  351TIP3   OH222543   1.936   0.574  12.467  0.1584 -0.8886 -0.2014
  351TIP3    H122544   1.845   0.545  12.458 -0.4610  1.2327 -1.1214
  351TIP3    H222545   1.943   0.648  12.406  1.9082  0.3049  1.4011
  352TIP3   OH222546   4.658   1.685   3.732 -0.3405 -0.4426 -0.7423
  352TIP3    H122547   4.663   1.781   3.738  0.6921 -0.6403  2.0315
  352TIP3    H222548   4.713   1.663   3.657  0.0213  1.0725 -0.9373
  353TIP3   OH222549   0.193   2.275  12.571  0.5356  0.1956  0.4350
  353TIP3    H122550   0.226   2.213  12.636 -1.3825 -1.4388 -0.1207
  353TIP3    H222551   0.115   2.313  12.611  0.4632  0.6468 -0.1302
  354TIP3   OH222552   0.282   2.513   0.829 -0.5227 -0.4827 -0.2912
  354TIP3    H122553   0.211   2.577   0.836  1.1980  1.4490  0.1469
  354TIP3    H222554   0.307   2.515   0.736  0.9296  1.0810  0.1131
  355TIP3   OH222555   1.407   4.091   5.382 -0.2754 -0.0555  0.2599
  355TIP3    H122556   1.398   4.154   5.453 -3.0818  0.1319 -0.2007
  355TIP3    H222557   1.464   4.023   5.417 -0.0612  0.9766  1.9809
  356TIP3   OH222558   5.775   4.757  14.905 -0.0162 -0.1852 -0.4998
  356TIP3    H122559   5.705   4.705  14.865  0.4848 -0.7126 -0.6891
  356TIP3    H222560   5.812   4.807  14.833  1.0008 -1.2640 -0.7466
  357TIP3   OH222561   4.867   0.504   5.450 -0.5144  0.1194  0.0506
  357TIP3    H122562   4.812   0.432   5.481  1.3610 -0.7801  1.3819
  357TIP3    H222563   4.851   0.576   5.511  0.1207 -0.3039  0.7268
  358TIP3   OH222564   2.215   6.532  10.879 -0.0974 -0.3455  0.0285
  358TIP3    H122565   2.197   6.617  10.838 -0.3684 -0.5882 -0.3624
  358TIP3    H222566   2.136   6.480  10.862 -0.4628 -0.2588  1.3827
  359TIP3   OH222567   2.833   0.266  13.900 -0.0629 -0.1842 -0.7721
  359TIP3    H122568   2.788   0.338  13.855  0.5205  0.7472  0.1081
  359TIP3    H222569   2.900   0.237  13.838  0.3452  0.7002 -0.7607
  360TIP3   OH222570   3.536   2.442   5.709  0.5593 -0.1349 -0.4823
  360TIP3    H122571   3.462   2.493   5.740 -1.4189 -1.8240 -2.3181
  360TIP3    H222572   3.516   2.421   5.618  2.5371 -1.9485 -0.5578
  361TIP3   OH222573   5.322   1.129  16.895  0.2838 -0.1563  0.2805
  361TIP3    H122574   5.319   1.099  16.986 -0.6164 -1.1919 -0.0855
  361TIP3    H222575   5.232   1.155  16.875  0.6967  1.1397  0.0235
  362TIP3   OH222576   2.627   4.724   4.887 -0.0714  0.4393  0.2177
  362TIP3    H122577   2.628   4.640   4.934 -0.0525  0.2593 -0.1075
  362TIP3    H222578   2.568   4.779   4.939 -0.7726 -0.0471 -0.0486
  363TIP3   OH222579   6.280   1.281   0.094 -0.2451  0.3190  0.0492
  363TIP3    H122580   6.227   1.203   0.078  0.5427  0.0237 -1.1490
  363TIP3    H222581   6.216   1.348   0.119 -1.0396 -0.4125  0.0189
  364TIP3   OH222582   3.153   2.547   4.650 -0.6173  0.2468 -0.5034
  364TIP3    H122583   3.189   2.581   4.568  0.0622  1.3062  0.2266
  364TIP3    H222584   3.212   2.474   4.673  1.2810  2.1449  0.8277
  365TIP3   OH222585   3.657   6.667  16.877 -0.1335 -0.2404 -0.1272
  365TIP3    H122586   3.653   6.718  16.796  0.7894  2.5617  1.4953
  365TIP3    H222587   3.584   6.700  16.929  0.5758 -0.4382  1.0217
  366TIP3   OH222588   4.815   2.336   0.850  0.5056  0.0533 -0.4499
  366TIP3    H122589   4.807   2.408   0.914  2.1802  0.7543 -0.9952
  366TIP3    H222590   4.811   2.380   0.765 -0.5045 -0.7495 -0.8290
  367TIP3   OH222591   1.349   0.936  13.112  0.4531 -0.0461  0.4872
  367TIP3    H122592   1.294   0.869  13.153 -0.9934  0.5277 -0.4658
  367TIP3    H222593   1.349   0.913  13.019 -0.7542  1.7283  0.0202
  368TIP3   OH222594   5.386   2.400   1.920 -0.3701  0.0471 -0.2593
  368TIP3    H122595   5.430   2.317   1.900 -0.3175 -0.0337  0.1985
  368TIP3    H222596   5.325   2.378   1.990 -0.5606  0.3354 -0.3370
  369TIP3   OH222597   0.825   5.900   3.819  0.5168 -0.0510 -0.5234
  369TIP3    H122598   0.840   5.985   3.861  1.1340  0.8481 -2.4958
  369TIP3    H222599   0.734   5.903   3.791  0.3718 -0.2675 -0.0670
  370TIP3   OH222600   4.920   1.621  11.770  0.2376  0.1739  0.6085
  370TIP3    H122601   5.007   1.647  11.798  0.5191  3.5030 -2.9183
  370TIP3    H222602   4.884   1.698  11.726 -2.9563 -2.3248 -1.4613
  371TIP3   OH222603   6.361   6.809  12.852 -0.0237 -0.1325  0.1794
  371TIP3    H122604   6.380   6.882  12.792  0.1735 -1.2273 -1.1282
  371TIP3    H222605   6.296   6.757  12.805  0.6441 -1.3738  0.6205
  372TIP3   OH222606   3.909   6.042   0.760  0.1269 -0.0047  0.1405
  372TIP3    H122607   3.981   6.088   0.802  0.6992 -1.2107  0.4971
  372TIP3    H222608   3.842   6.035   0.828 -0.3356  1.1206 -0.1929
  373TIP3   OH222609   6.424   4.140   1.670  0.4795  0.0727  0.1355
  373TIP3    H122610   6.423   4.129   1.575 -0.8752  0.2214  0.1248
  373TIP3    H222611   6.436   4.234   1.683  1.1013 -0.0020  0.1200
  374TIP3   OH222612   4.466   5.171  16.481 -0.0124 -0.4844 -0.0275
  374TIP3    H122613   4.487   5.084  16.448 -2.1747 -0.8704 -0.4808
  374TIP3    H222614   4.438   5.156  16.571  2.4004  0.1255  0.8599
  375TIP3   OH222615   0.914   4.373  16.470  0.4734 -0.4949  0.3202
  375TIP3    H122616   0.923   4.341  16.560 -0.0956  0.4869  0.7394
  375TIP3    H222617   0.983   4.438  16.461  0.4435 -0.4941  0.0964
  376TIP3   OH222618   4.517   0.049  14.211 -0.1474 -0.1606 -0.2365
  376TIP3    H122619   4.425   0.068  14.228  0.1695  2.6053 -1.4276
  376TIP3    H222620   4.515  -0.008  14.134 -0.8323  0.9104 -1.0249
  377TIP3   OH222621   1.502   6.258   0.382 -0.1442  0.5726  0.0232
  377TIP3    H122622   1.561   6.303   0.321  0.5982 -0.2432  0.1354
  377TIP3    H222623   1.538   6.169   0.389 -0.3509  0.5935  1.4837
  378TIP3   OH222624   1.080   5.419   4.965  0.2501  0.2529  0.0957
  378TIP3    H122625   1.050   5.509   4.972  2.5026  0.9472  1.3768
  378TIP3    H222626   1.056   5.378   5.048 -1.1483 -0.4797 -0.6442
  379TIP3   OH222627   4.398   4.417   3.709  0.2266 -0.0009 -0.6655
  379TIP3    H122628   4.383   4.410   3.615  0.0398 -0.9062 -0.5753
  379TIP3    H222629   4.318   4.384   3.749  1.0345 -1.4181 -0.1888
  380TIP3   OH222630   5.524   4.639   4.869  0.6881  0.0736  0.6735
  380TIP3    H122631   5.549   4.712   4.813  0.3717  0.7491  1.4036
  380TIP3    H222632   5.431   4.653   4.888  0.3887 -1.0239  0.0668
  381TIP3   OH222633   5.768   4.158  14.471  0.2812  0.4018  0.3986
  381TIP3    H122634   5.678   4.137  14.445  0.4911  1.3881 -1.2091
  381TIP3    H222635   5.818   4.080  14.447  0.1267  0.5047 -0.2809
  382TIP3   OH222636   2.778   3.664  11.213 -0.0851  0.0446  0.5193
  382TIP3    H122637   2.722   3.728  11.169  2.1301  1.0495 -0.9063
  382TIP3    H222638   2.765   3.583  11.165  1.1064  0.7461 -1.0248
  383TIP3   OH222639   3.793   0.056   5.344  0.3364 -0.1447  0.4679
  383TIP3    H122640   3.801   0.151   5.345  0.4792 -0.1456 -0.0745
  383TIP3    H222641   3.731   0.038   5.273 -1.1893 -0.3575  1.8490
  384TIP3   OH222642   6.653   1.626  14.080 -0.1377 -0.0920 -0.0968
  384TIP3    H122643   6.747   1.615  14.063  0.0413  1.3321 -0.0369
  384TIP3    H222644   6.625   1.540  14.113  1.5077  0.0161  1.6411
  385TIP3   OH222645   0.865   4.294  13.736 -0.6797 -0.2024  0.6920
  385TIP3    H122646   0.875   4.241  13.657 -1.7475 -1.5542  1.4305
  385TIP3    H222647   0.890   4.235  13.807 -1.2787  0.4910  1.4848
  386TIP3   OH222648   0.157   3.574  16.522  0.2302  0.0544 -0.5559
  386TIP3    H122649   0.241   3.581  16.476  0.2764 -1.2470 -0.7095
  386TIP3    H222650   0.093   3.609  16.460  0.8713  2.8579  0.3090
  387TIP3   OH222651   5.976   2.087  15.359 -0.0017  0.2756  0.1529
  387TIP3    H122652   5.959   2.180  15.351  2.6653  0.6766 -1.8216
  387TIP3    H222653   5.908   2.045  15.307 -1.4204  1.0730  1.3364
  388TIP3   OH222654   5.475   3.421  12.995 -0.5504 -0.5809 -0.4668
  388TIP3    H122655   5.517   3.448  13.077 -0.6558 -1.5301 -0.0947
  388TIP3    H222656   5.527   3.463  12.927 -0.2347 -0.0859  0.0703
  389TIP3   OH222657   1.765   5.311  10.927  0.1410  0.2820 -0.0649
  389TIP3    H122658   1.706   5.253  10.975  1.3196 -1.5240 -0.7281
  389TIP3    H222659   1.802   5.255  10.859  1.5546  1.7495 -0.5193
  390TIP3   OH222660   6.800   4.529  16.237  0.7030  0.8926  0.1209
  390TIP3    H122661   6.741   4.586  16.188  1.7682  1.4282 -0.5554
  390TIP3    H222662   6.746   4.492  16.306 -1.5389 -1.9205 -2.9963
  391TIP3   OH222663   3.241   2.892  12.279 -0.3341 -0.1450  0.5240
  391TIP3    H122664   3.242   2.856  12.190  0.6039  1.2443 -0.0530
  391TIP3    H222665   3.173   2.958  12.277 -0.2278 -0.0290  0.8029
  392TIP3   OH222666   4.205   2.745   4.972  0.1974 -0.0996 -0.2684
  392TIP3    H122667   4.230   2.660   4.935  1.4310  0.2051 -0.1749
  392TIP3    H222668   4.118   2.731   5.009  0.3733 -1.3099 -0.2878
  393TIP3   OH222669   2.048   3.885  13.898 -0.2846 -0.0901 -0.1063
  393TIP3    H122670   2.104   3.840  13.834  0.2691  0.9344 -0.3456
  393TIP3    H222671   2.000   3.950  13.847 -0.3864  0.2291  0.3940
  394TIP3   OH222672   1.332   2.313   0.561  0.1296 -0.3847  0.0635
  394TIP3    H122673   1.368   2.261   0.490 -0.7144 -0.5189 -0.2705
  394TIP3    H222674   1.293   2.248   0.620  2.2279 -0.4135  1.4793
  395TIP3   OH222675   5.989   3.789   1.763 -0.2047  0.6026  0.1337
  395TIP3    H122676   6.069   3.842   1.751  0.8737 -0.3062  2.8444
  395TIP3    H222677   5.933   3.844   1.818  0.0596 -0.1706  1.2057
  396TIP3   OH222678   5.179   6.200  12.634 -0.0219  0.0303  0.2488
  396TIP3    H122679   5.225   6.132  12.584  0.9286  0.4350  0.5734
  396TIP3    H222680   5.086   6.182  12.618  0.2409 -0.8678 -0.3036
  397TIP3   OH222681   5.375   0.210  15.609 -0.0665  0.0217 -0.0992
  397TIP3    H122682   5.440   0.266  15.650  0.4905  1.5008 -2.8493
  397TIP3    H222683   5.422   0.168  15.537 -1.1527 -1.9989  0.3332
  398TIP3   OH222684   1.841   1.429  11.711  0.0874 -0.4079 -0.5712
  398TIP3    H122685   1.832   1.411  11.618 -0.5402  0.3335 -0.6593
  398TIP3    H222686   1.763   1.482  11.733  0.3078 -0.4514  0.3293
  399TIP3   OH222687   6.139   4.276  10.582 -0.1071  0.4105  0.3026
  399TIP3    H122688   6.183   4.328  10.650  1.1314  0.6122 -0.6547
  399TIP3    H222689   6.174   4.188  10.593  1.7335  0.9029 -1.4745
  400TIP3   OH222690   4.125   5.152   6.405 -0.1263  0.2225  0.0064
  400TIP3    H122691   4.189   5.086   6.432 -1.1805 -0.3978  1.0361
  400TIP3    H222692   4.169   5.236   6.420  1.4899 -0.2365 -2.0127
  401TIP3   OH222693   3.437   2.785  16.682 -0.0494 -0.1416  0.3630
  401TIP3    H122694   3.416   2.877  16.694  2.3392  0.5094 -0.1128
  401TIP3    H222695   3.512   2.770  16.740  1.3967 -1.0485 -1.7045
  402TIP3   OH222696   0.581   1.973   2.053 -0.5175  0.3050  0.3265
  402TIP3    H122697   0.660   1.923   2.073  0.1071  0.1562 -2.3375
  402TIP3    H222698   0.510   1.910   2.063 -0.2206  0.1784  1.7466
  403TIP3   OH222699   5.533   6.046  12.144 -0.4578 -0.4373  0.5763
  403TIP3    H122700   5.529   6.015  12.054 -0.8521  2.1592 -0.3281
  403TIP3    H222701   5.467   6.115  12.149  0.7432  0.6206  2.3832
  404TIP3   OH222702   2.197   2.531   3.962 -0.6905  0.5217 -0.3428
  404TIP3    H122703   2.237   2.483   3.890 -0.9761 -0.1216 -0.0756
  404TIP3    H222704   2.266   2.538   4.028 -0.1665  1.8620 -1.0260
  405TIP3   OH222705   0.548   1.345   0.343  0.5866  0.3882 -0.0351
  405TIP3    H122706   0.591   1.318   0.424  1.7318  0.8428 -0.4804
  405TIP3    H222707   0.560   1.440   0.340 -0.4014  0.5115 -0.1967
  406TIP3   OH222708   0.166   2.065   5.868 -0.0684 -0.4499 -0.7430
  406TIP3    H122709   0.101   2.080   5.936  1.3966 -1.0299  0.8218
  406TIP3    H222710   0.206   2.152   5.853 -1.0719 -0.1271 -1.5906
  407TIP3   OH222711   3.912   3.174  14.128 -0.3490  0.3996 -0.0659
  407TIP3    H122712   3.960   3.257  14.122 -1.0553  0.7230 -1.8333
  407TIP3    H222713   3.825   3.199  14.161 -0.1970  0.2023  0.4840
  408TIP3   OH222714   4.941   1.358   1.941 -0.6902 -0.2110  0.2368
  408TIP3    H122715   4.909   1.366   2.031 -1.1379 -0.2850  0.0855
  408TIP3    H222716   4.874   1.305   1.896 -2.3986  2.9897 -1.1128
  409TIP3   OH222717   3.473   6.744   3.062  0.3070 -0.4201 -0.5036
  409TIP3    H122718   3.385   6.745   3.024  0.3659  0.9286 -0.6273
  409TIP3    H222719   3.514   6.665   3.025  0.6389  1.2680 -3.9349
  410TIP3   OH222720   4.536   4.137   2.139  0.6024  0.5430 -0.0648
  410TIP3    H122721   4.616   4.113   2.187  0.9585  1.4594 -0.1882
  410TIP3    H222722   4.470   4.146   2.207  1.0056  1.4155  0.2244
  411TIP3   OH222723   2.036   2.745   2.922 -0.4032  0.5807  0.3306
  411TIP3    H122724   1.954   2.717   2.881  0.2073 -0.1148 -0.4457
  411TIP3    H222725   2.049   2.685   2.995  0.3375 -0.5223 -0.6643
  412TIP3   OH222726   0.491   1.787   4.113  0.5814  0.3928  0.7024
  412TIP3    H122727   0.401   1.798   4.141  1.4534  1.1160  3.3836
  412TIP3    H222728   0.516   1.700   4.143  0.9762  0.4677  0.6023
  413TIP3   OH222729   1.648   2.229   3.221  0.2577  0.5721  0.5331
  413TIP3    H122730   1.692   2.312   3.200  0.4918  0.8391  2.0426
  413TIP3    H222731   1.650   2.224   3.316 -2.4999  0.3045  0.6276
  414TIP3   OH222732   3.301   0.753  13.195 -0.5243 -0.0812  0.3467
  414TIP3    H122733   3.240   0.715  13.132  0.7286 -0.4997 -0.6416
  414TIP3    H222734   3.362   0.804  13.141  0.3302 -0.1289  1.2513
  415TIP3   OH222735   1.328   2.173  15.589  0.2900 -0.2731  0.1791
  415TIP3    H122736   1.359   2.091  15.628  0.1695 -0.5564 -0.3054
  415TIP3    H222737   1.334   2.237  15.659  1.7923 -0.3661  0.1339
  416TIP3   OH222738   5.786   3.080  16.107  0.6645  0.0476  0.0592
  416TIP3    H122739   5.866   3.068  16.056  0.6926 -0.1005  0.1353
  416TIP3    H222740   5.817   3.099  16.195  0.6130 -0.5724  0.2114
  417TIP3   OH222741   1.430   4.688   1.042 -0.3129  0.4794 -0.5989
  417TIP3    H122742   1.394   4.631   0.974 -0.8405 -2.1004  1.7446
  417TIP3    H222743   1.369   4.680   1.115  3.0629 -1.1875  2.1743
  418TIP3   OH222744   6.362   6.701  16.203  0.2990  0.7317 -0.5473
  418TIP3    H122745   6.372   6.638  16.274  1.1867 -0.3914 -1.6395
  418TIP3    H222746   6.451   6.719  16.174 -0.0323  1.4422 -1.1555
  419TIP3   OH222747   6.261   4.470   5.368 -0.4154  0.1070  0.5353
  419TIP3    H122748   6.264   4.388   5.319 -2.7825 -0.3933  1.1360
  419TIP3    H222749   6.252   4.537   5.301  1.1894 -0.1487  0.0573
  420TIP3   OH222750   3.501   3.926  11.217  0.5028 -0.2569 -0.1098
  420TIP3    H122751   3.586   3.882  11.223  1.7363  2.0573  0.3056
  420TIP3    H222752   3.514   3.993  11.150 -1.6944 -1.2834 -1.6124
  421TIP3   OH222753   6.757   2.012   6.012  0.1430  0.5663 -0.6607
  421TIP3    H122754   6.674   2.042   6.049  1.7964  2.8315  1.3597
  421TIP3    H222755   6.768   1.923   6.044 -0.9310  0.6880  0.0528
  422TIP3   OH222756   3.822   1.425  14.587  0.1634  0.1836  0.4363
  422TIP3    H122757   3.890   1.391  14.645  1.1910 -1.5207 -1.6813
  422TIP3    H222758   3.861   1.501  14.545  0.1353  0.2435  0.5201
  423TIP3   OH222759   2.903   5.407   0.917  0.5632 -0.3008 -0.1785
  423TIP3    H122760   2.957   5.410   0.996  1.4118  0.7208 -0.7851
  423TIP3    H222761   2.959   5.366   0.851 -0.2769 -1.5097 -0.1562
  424TIP3   OH222762   3.709   2.524  12.347 -0.2299  0.6666  0.1676
  424TIP3    H122763   3.662   2.604  12.322 -1.4272  1.0723  3.4079
  424TIP3    H222764   3.788   2.556  12.391 -0.6463  0.0918  1.3533
  425TIP3   OH222765   0.412   2.847  13.272 -0.4983  0.3185 -0.3153
  425TIP3    H122766   0.379   2.817  13.357 -0.4957  0.4714 -0.2598
  425TIP3    H222767   0.394   2.774  13.213 -0.7725  0.3283 -0.2462
  426TIP3   OH222768   6.790   3.017   5.918  0.2224  0.1989  0.2579
  426TIP3    H122769   6.869   3.068   5.903  0.1233  0.2232 -0.2121
  426TIP3    H222770   6.750   3.056   5.996  0.0232  0.9984 -0.2309
  427TIP3   OH222771   6.566   5.756   4.763 -0.8097  0.3425 -0.3963
  427TIP3    H122772   6.605   5.719   4.842 -2.0131  0.4298  0.2447
  427TIP3    H222773   6.527   5.681   4.718 -0.1386  0.2953 -0.9104
  428TIP3   OH222774   4.268   3.919  14.626  0.0697  0.1168  0.8840
  428TIP3    H122775   4.282   3.868  14.705  1.7567  0.4190  0.7934
  428TIP3    H222776   4.307   3.867  14.556 -1.7363 -0.3235  0.1769
  429TIP3   OH222777   2.903   2.690  14.506  0.7994 -0.4417 -0.6834
  429TIP3    H122778   2.917   2.774  14.462  1.3544 -0.4586 -0.5393
  429TIP3    H222779   2.899   2.627  14.434 -1.7049 -0.0350 -0.9398
  430TIP3   OH222780   4.046   3.114  12.595 -0.0162  0.3897  0.0055
  430TIP3    H122781   4.133   3.076  12.613  0.6067  1.0950 -1.4923
  430TIP3    H222782   4.028   3.169  12.671  1.3582  1.1298 -0.1925
  431TIP3   OH222783   1.266   6.566   1.950 -0.0826  0.1245  0.2152
  431TIP3    H122784   1.185   6.517   1.962 -0.2198  0.1816 -0.4223
  431TIP3    H222785   1.237   6.652   1.919  0.3154 -0.7296 -2.7089
  432TIP3   OH222786   6.608   4.471   2.373  0.2374 -0.4548 -0.0719
  432TIP3    H122787   6.594   4.440   2.462  1.5101  0.6371  0.5318
  432TIP3    H222788   6.605   4.567   2.380 -0.1111 -0.3673 -1.2722
  433TIP3   OH222789   0.482   1.473  12.279  0.5000 -0.2835  0.1283
  433TIP3    H122790   0.442   1.417  12.213  1.1115 -0.2038 -0.3125
  433TIP3    H222791   0.507   1.552  12.231 -0.4500  0.4218  0.7570
  434TIP3   OH222792   5.206   4.881   4.664  1.0974  0.4377  0.2262
  434TIP3    H122793   5.231   4.952   4.604  0.5932 -0.8603 -1.5620
  434TIP3    H222794   5.127   4.844   4.626 -0.2450  0.6991  2.6692
  435TIP3   OH222795   1.347   5.059  14.918  0.4184 -0.0702  0.0522
  435TIP3    H122796   1.321   4.967  14.922 -2.0501  0.6534  1.6890
  435TIP3    H222797   1.375   5.081  15.007  1.1438  0.7300 -0.3646
  436TIP3   OH222798   1.040   6.710  16.663  0.4887  0.0744  0.5521
  436TIP3    H122799   1.067   6.717  16.755  2.5697 -0.4194  0.0008
  436TIP3    H222800   1.024   6.617  16.650 -1.5113  0.3412  0.8394
  437TIP3   OH222801   1.529   5.942  11.512 -0.1453 -0.1140  0.8810
  437TIP3    H122802   1.551   5.877  11.579 -2.1807 -1.4495  0.2971
  437TIP3    H222803   1.435   5.953  11.520 -0.2989  0.2837 -1.2547
  438TIP3   OH222804   1.163   5.820  14.506  0.0952 -0.0042 -0.3949
  438TIP3    H122805   1.082   5.781  14.537 -0.0553 -1.5736 -2.6433
  438TIP3    H222806   1.232   5.774  14.554 -0.2675  0.7411  0.8801
  439TIP3   OH222807   2.946   3.816  12.933  0.2379 -0.0241  0.7653
  439TIP3    H122808   2.940   3.890  12.993  0.4363 -0.1709  0.9697
  439TIP3    H222809   2.893   3.841  12.858 -0.5061 -0.0845  1.2648
  440TIP3   OH222810   0.600   0.897  11.574 -0.0584  0.1996 -0.1584
  440TIP3    H122811   0.614   0.881  11.481 -1.8532 -2.5957 -0.0163
  440TIP3    H222812   0.553   0.981  11.577 -2.4583 -1.0053 -2.0149
  441TIP3   OH222813   0.723   6.059   5.735 -0.2463 -0.0922  0.2128
  441TIP3    H122814   0.653   6.011   5.689 -2.1193  2.4327  0.3290
  441TIP3    H222815   0.755   5.997   5.800 -2.9467 -1.0685  0.7035
  442TIP3   OH222816   6.154   2.530  12.119 -0.0171  0.0395 -0.2406
  442TIP3    H122817   6.204   2.577  12.186 -2.9836 -0.2233  2.3057
  442TIP3    H222818   6.103   2.598  12.075 -1.0713 -0.2407  0.5243
  443TIP3   OH222819   3.496   0.110   5.498  0.3354 -0.0145 -0.3720
  443TIP3    H122820   3.541   0.105   5.414  0.9118 -0.7588 -0.0347
  443TIP3    H222821   3.486   0.018   5.525 -1.1488  0.1586 -0.3150
  444TIP3   OH222822   2.016   1.020  15.110  0.3107  0.6469  0.7653
  444TIP3    H122823   2.065   0.983  15.037  0.6659  1.0206  0.8143
  444TIP3    H222824   1.935   0.967  15.114  0.2296  0.7126  0.0311
  445TIP3   OH222825   4.453   1.534  13.359  0.5801  0.4686  0.1740
  445TIP3    H122826   4.383   1.560  13.300  1.6684  0.4371 -1.1561
  445TIP3    H222827   4.510   1.610  13.366  1.0639  0.1044  0.2906
  446TIP3   OH222828   1.788   4.412   3.560 -0.1882  0.3469 -0.2316
  446TIP3    H122829   1.783   4.424   3.466  1.6226 -0.8528 -0.5157
  446TIP3    H222830   1.878   4.437   3.583 -0.2439 -0.5162  0.9805
  447TIP3   OH222831   2.573   5.698   2.831  0.3378  0.5111 -0.2175
  447TIP3    H122832   2.539   5.725   2.745  0.9815  1.4657 -0.1744
  447TIP3    H222833   2.656   5.655   2.811 -0.2778 -0.6939 -0.2094
  448TIP3   OH222834   0.818   2.701  13.409  0.5820  0.2940 -0.1580
  448TIP3    H122835   0.783   2.768  13.468  0.2689 -0.1749  0.1918
  448TIP3    H222836   0.765   2.710  13.329  1.2668  1.1908 -0.5218
  449TIP3   OH222837   0.735   4.671   3.465 -0.1726 -0.6930 -0.0949
  449TIP3    H122838   0.770   4.743   3.412 -1.3961 -0.7766 -1.0403
  449TIP3    H222839   0.640   4.679   3.456 -0.3828 -1.0241  1.6849
  450TIP3   OH222840   5.398   5.720   2.939 -0.7802 -0.3842 -0.6262
  450TIP3    H122841   5.323   5.754   2.988 -0.7318  0.5576 -1.1977
  450TIP3    H222842   5.376   5.629   2.921 -0.8716 -0.7034  0.9964
  451TIP3   OH222843   2.121   6.145  10.986  0.5270  0.5368 -0.1300
  451TIP3    H122844   2.109   6.071  10.927  1.2051 -2.2714  3.0839
  451TIP3    H222845   2.215   6.148  11.002  0.2960  0.8931  1.2331
  452TIP3   OH222846   2.860   1.367  13.650  0.4538  0.7873  0.6761
  452TIP3    H122847   2.882   1.440  13.592 -1.0093  1.3383  0.7970
  452TIP3    H222848   2.808   1.406  13.720  1.1713 -0.0817  1.7187
  453TIP3   OH222849   3.770   4.229   1.632 -0.1999 -0.3135  0.1744
  453TIP3    H122850   3.769   4.252   1.539  1.3676  0.7264  0.3892
  453TIP3    H222851   3.785   4.134   1.632  1.3591 -0.0926 -0.6379
  454TIP3   OH222852   6.416   5.714   1.139  0.5291  0.4598  0.1368
  454TIP3    H122853   6.491   5.746   1.190 -0.2710 -0.2695  1.7604
  454TIP3    H222854   6.402   5.625   1.170 -0.7995  0.4707 -0.4296
  455TIP3   OH222855   0.195   1.037  12.172  0.2440  0.1064  0.4828
  455TIP3    H122856   0.215   0.953  12.131 -1.6418 -0.1608  0.0788
  455TIP3    H222857   0.177   1.015  12.264  2.2768  0.4235  0.9883
  456TIP3   OH222858   6.158   6.392   5.436 -0.2974  0.2622 -0.2532
  456TIP3    H122859   6.100   6.466   5.422 -0.1519 -0.0794 -2.8257
  456TIP3    H222860   6.244   6.431   5.452 -0.6849  0.6920  0.8114
  457TIP3   OH222861   6.149   3.495   5.328 -0.2387 -0.0458  0.1915
  457TIP3    H122862   6.143   3.445   5.246  0.9580 -0.5220  0.3822
  457TIP3    H222863   6.243   3.509   5.340 -0.5011  1.2922  0.7330
  458TIP3   OH222864   1.070   5.198  13.492  0.3214 -0.2145 -0.3360
  458TIP3    H122865   1.161   5.223  13.509  0.1867  0.2946 -0.3545
  458TIP3    H222866   1.020   5.279  13.505 -0.3035 -0.7999  1.0192
  459TIP3   OH222867   0.065   4.258   1.652 -0.1053 -1.6350 -0.4882
  459TIP3    H122868   0.004   4.190   1.680 -1.5736 -1.1986 -2.5300
  459TIP3    H222869   0.133   4.258   1.719 -2.2127 -2.2959  1.7224
  460TIP3   OH222870   1.750   4.595  11.999 -0.2345  0.5799 -0.4542
  460TIP3    H122871   1.801   4.524  12.039 -0.8285  1.1847  1.4579
  460TIP3    H222872   1.675   4.551  11.959 -0.6294  0.1070  0.7626
  461TIP3   OH222873   2.166   1.995   2.074  0.0128 -0.5019  0.4845
  461TIP3    H122874   2.253   2.033   2.061 -0.3746  0.0286 -0.6700
  461TIP3    H222875   2.138   2.027   2.160  0.9136 -0.5967  0.8132
  462TIP3   OH222876   6.271   4.665  12.474 -0.7741  0.0007  0.5248
  462TIP3    H122877   6.355   4.700  12.504 -1.2600  1.5420  0.1561
  462TIP3    H222878   6.283   4.649  12.381 -0.1785 -1.9966  0.9273
  463TIP3   OH222879   2.169   4.216   3.169 -0.1615  0.0493 -0.6908
  463TIP3    H122880   2.263   4.205   3.154 -0.4318 -0.6763 -2.0018
  463TIP3    H222881   2.137   4.127   3.183 -0.6868  0.2671 -0.5070
  464TIP3   OH222882   3.059   1.487   3.910 -0.3003  0.1674 -0.2085
  464TIP3    H122883   3.013   1.555   3.960 -0.6959  0.1688 -0.5675
  464TIP3    H222884   3.002   1.471   3.835 -0.1140 -0.4290 -0.2232
  465TIP3   OH222885   5.134   2.691   2.003  0.1963 -0.2955  0.0671
  465TIP3    H122886   5.112   2.781   1.976  1.9830  0.0844 -0.1800
  465TIP3    H222887   5.167   2.700   2.092  0.6956 -0.6610 -0.0806
  466TIP3   OH222888   1.567   6.352   0.861  0.1186 -0.4789 -0.3821
  466TIP3    H122889   1.537   6.434   0.900 -0.8450 -1.2140  0.4231
  466TIP3    H222890   1.490   6.296   0.859  0.7167 -1.2887 -1.1560
  467TIP3   OH222891   3.654   4.832   5.825  0.2328 -0.2620  0.5098
  467TIP3    H122892   3.668   4.909   5.879  0.5578 -0.1186  0.2224
  467TIP3    H222893   3.692   4.760   5.876  2.8310  0.2398 -0.6214
  468TIP3   OH222894   3.273   5.742  16.495 -0.4683 -0.2039 -0.3105
  468TIP3    H122895   3.205   5.705  16.438 -0.7114 -0.1012 -0.0888
  468TIP3    H222896   3.235   5.824  16.527 -0.8491 -0.8724  0.9958
  469TIP3   OH222897   4.214   0.276   2.651 -0.0035  0.1251  0.4041
  469TIP3    H122898   4.126   0.239   2.654 -0.2867  0.8448  0.8877
  469TIP3    H222899   4.269   0.208   2.689 -0.4058 -0.1505  0.4977
  470TIP3   OH222900   5.464   0.018  16.487 -0.3240  0.2031 -0.7935
  470TIP3    H122901   5.530   0.087  16.483 -1.5709  1.4006 -1.2245
  470TIP3    H222902   5.408   0.042  16.561 -2.3664  1.1639 -2.5971
  471TIP3   OH222903   3.562   2.208  15.571 -0.5554 -0.3355  0.2971
  471TIP3    H122904   3.585   2.281  15.513  0.3923 -0.3972  0.5795
  471TIP3    H222905   3.628   2.141  15.553 -1.7527 -1.3606 -0.3626
  472TIP3   OH222906   4.661   2.372  16.612 -0.4038 -0.1297 -0.5227
  472TIP3    H122907   4.644   2.466  16.619  0.6764 -0.0466  1.2567
  472TIP3    H222908   4.703   2.362  16.527  2.3677  1.4991  0.5852
  473TIP3   OH222909   5.824   4.455   6.329 -0.4829 -0.4322 -0.0377
  473TIP3    H122910   5.806   4.486   6.418  0.3315 -0.5761  0.1874
  473TIP3    H222911   5.739   4.427   6.295 -0.6354 -1.4409  1.1217
  474TIP3   OH222912   4.155   5.392   4.625 -0.0027 -0.3922 -0.3561
  474TIP3    H122913   4.120   5.360   4.542 -1.0994 -0.0662 -0.0168
  474TIP3    H222914   4.114   5.477   4.638  0.5022 -0.2403  0.3067
  475TIP3   OH222915   5.372   5.928   0.472 -0.3277  0.1133  0.0879
  475TIP3    H122916   5.301   5.882   0.517 -1.1454  0.5015 -0.8044
  475TIP3    H222917   5.328   5.984   0.408  0.8304 -0.5496 -1.3192
  476TIP3   OH222918   6.582   2.279   4.091  0.2996 -0.1139 -0.3443
  476TIP3    H122919   6.635   2.226   4.031  0.3061  0.2378 -0.6506
  476TIP3    H222920   6.600   2.369   4.065 -0.3211  0.0115 -0.3378
  477TIP3   OH222921   3.428   4.128   3.254  0.1561  0.6266  0.0886
  477TIP3    H122922   3.488   4.148   3.326  0.5403  0.9062 -0.3062
  477TIP3    H222923   3.341   4.131   3.293  0.4175 -0.0098  0.7171
  478TIP3   OH222924   2.097   4.956   1.910 -0.5721 -0.5312 -0.4706
  478TIP3    H122925   2.129   4.875   1.950 -1.2514 -0.5896 -0.0474
  478TIP3    H222926   2.128   4.952   1.819  0.9907 -0.3843  0.0450
  479TIP3   OH222927   6.748   5.715   2.884 -0.6956 -0.1821  0.7581
  479TIP3    H122928   6.691   5.762   2.946 -1.2487 -1.8983  1.5918
  479TIP3    H222929   6.793   5.650   2.938  1.3177  0.4648 -0.0785
  480TIP3   OH222930   3.384   4.823   3.496  0.4970 -0.3044 -0.0644
  480TIP3    H122931   3.428   4.756   3.548  0.5294 -1.6787 -1.8159
  480TIP3    H222932   3.300   4.783   3.471  0.7227  0.1189 -1.5201
  481TIP3   OH222933   3.806   1.712   5.364  0.3918 -0.0155 -0.1365
  481TIP3    H122934   3.861   1.746   5.435  0.0190 -2.6147  1.4698
  481TIP3    H222935   3.824   1.618   5.363 -0.6373 -0.2191 -2.6115
  482TIP3   OH222936   0.163   3.989   0.458  0.4913 -0.6664  0.3579
  482TIP3    H122937   0.171   3.907   0.507 -0.0524 -0.7632  0.2917
  482TIP3    H222938   0.246   4.034   0.473  1.4658 -1.9666 -0.9398
  483TIP3   OH222939   5.350   4.609   2.255 -0.4729  0.1305 -0.3568
  483TIP3    H122940   5.413   4.668   2.215 -0.7694  0.6974  0.0026
  483TIP3    H222941   5.292   4.666   2.306 -0.3366 -0.5335  0.5651
  484TIP3   OH222942   5.401   0.030  13.645  0.6424  0.1413 -0.6469
  484TIP3    H122943   5.371  -0.021  13.570  0.1052  1.2075 -1.1704
  484TIP3    H222944   5.494   0.010  13.652  0.6108 -0.2702 -1.3425
  485TIP3   OH222945   2.843   6.760  14.922  0.0361 -0.4524  0.1501
  485TIP3    H122946   2.792   6.781  14.844 -1.7793  0.3093  1.4907
  485TIP3    H222947   2.877   6.845  14.952 -1.8091 -0.2767  1.8647
  486TIP3   OH222948   0.434   3.408  14.964 -0.1271  0.2223  0.1132
  486TIP3    H122949   0.383   3.475  14.918  0.5854  0.5494 -0.2077
  486TIP3    H222950   0.521   3.411  14.923 -0.0139 -0.7235  0.2708
  487TIP3   OH222951   6.592   1.401  15.494 -0.6432  0.2666  0.0915
  487TIP3    H122952   6.650   1.409  15.418 -2.3696 -0.5411 -1.3491
  487TIP3    H222953   6.640   1.343  15.554  0.9700  1.3444 -0.1019
  488TIP3   OH222954   5.092   5.889   3.435 -0.1075 -0.1539  0.0475
  488TIP3    H122955   5.141   5.842   3.503 -1.5067 -1.7806 -0.0231
  488TIP3    H222956   5.157   5.906   3.367  0.7519 -0.7543  0.7003
  489TIP3   OH222957   0.447   0.288  11.473  0.3578 -0.3839  0.2888
  489TIP3    H122958   0.444   0.252  11.384  0.6895  0.0788  0.0835
  489TIP3    H222959   0.511   0.359  11.467 -0.1327  0.0978  0.7344
  490TIP3   OH222960   1.964   4.901   4.020  0.4764  0.2268  0.1266
  490TIP3    H122961   1.945   4.859   4.104 -1.0934  2.0802  0.7474
  490TIP3    H222962   2.057   4.922   4.025  0.5988 -0.4849  1.0314
  491TIP3   OH222963   4.640   6.712  15.344 -0.4144 -0.0066  0.1735
  491TIP3    H122964   4.689   6.642  15.387 -0.3609 -0.1919 -0.1824
  491TIP3    H222965   4.554   6.710  15.385 -0.6070 -0.6791 -0.2483
  492TIP3   OH222966   1.000   5.910  13.315 -0.4752 -0.1338  0.3577
  492TIP3    H122967   0.993   5.985  13.374 -0.5023  1.1196 -1.2232
  492TIP3    H222968   0.945   5.843  13.355  0.9112  0.0582  2.7003
  493TIP3   OH222969   2.747   2.239  16.962 -0.3500  0.0044  0.1413
  493TIP3    H122970   2.692   2.170  16.998 -1.3880  1.7219  1.9325
  493TIP3    H222971   2.713   2.255  16.874 -1.1279 -0.6343  0.3283
  494TIP3   OH222972   1.767   3.346   1.285 -0.2408 -0.5560 -0.8948
  494TIP3    H122973   1.673   3.338   1.302  0.3799 -0.4018  2.9990
  494TIP3    H222974   1.789   3.436   1.309  0.7634 -0.2407 -2.8252
  495TIP3   OH222975   3.104   3.841   3.074  0.1613 -0.4046 -0.1702
  495TIP3    H122976   3.036   3.901   3.105  0.4482 -0.2095  0.0822
  495TIP3    H222977   3.186   3.883   3.098  0.3571 -1.2158  0.5820
  496TIP3   OH222978   3.452   6.739  14.866  0.1727  0.3793  0.4377
  496TIP3    H122979   3.387   6.778  14.808 -0.5443 -1.4770 -0.0443
  496TIP3    H222980   3.525   6.717  14.808 -0.7197 -1.8767  0.1064
  497TIP3   OH222981   3.917   1.706   3.925 -0.1022 -0.2319 -0.0510
  497TIP3    H122982   3.903   1.725   4.018  2.0372 -1.9256  0.6708
  497TIP3    H222983   3.877   1.620   3.912 -0.8584  0.2262 -0.8538
  498TIP3   OH222984   1.388   5.335  16.190  0.0779  0.6329 -0.3049
  498TIP3    H122985   1.292   5.330  16.191  0.1042  0.1583  0.4044
  498TIP3    H222986   1.416   5.268  16.252  0.9120 -0.0708 -1.4077
  499TIP3   OH222987   0.827   3.274   2.742  0.6986 -0.4109 -0.3358
  499TIP3    H122988   0.895   3.256   2.677  0.0439  1.5648 -1.6089
  499TIP3    H222989   0.754   3.310   2.691 -0.4819 -0.4581  1.2835
  500TIP3   OH222990   2.660   3.780   0.623 -0.0581  0.3940 -0.9197
  500TIP3    H122991   2.605   3.808   0.696  1.7691  2.7715 -0.3952
  500TIP3    H222992   2.732   3.732   0.664 -0.2268 -0.2741 -1.3845
  501TIP3   OH222993   3.514   1.781  16.792 -0.2168 -0.6263  0.4470
  501TIP3    H122994   3.583   1.837  16.755 -1.0419 -1.4749 -2.5156
  501TIP3    H222995   3.446   1.841  16.819  1.1466  0.1378  2.3292
  502TIP3   OH222996   2.091   3.990   0.071  0.3125  0.4740 -0.5084
  502TIP3    H122997   2.124   3.909   0.109 -1.6796  0.3306  0.9885
  502TIP3    H222998   2.169   4.041   0.051  1.6285 -2.0027 -1.9465
  503TIP3   OH222999   3.362   2.313  15.236  0.3523  0.0283  1.1631
  503TIP3    H123000   3.402   2.350  15.157 -0.5262 -1.7916 -0.1719
  503TIP3    H223001   3.268   2.316  15.219  0.1502 -0.3161  2.1853
  504TIP3   OH223002   2.995   2.486   1.157  0.0750  0.4097 -0.2592
  504TIP3    H123003   2.975   2.485   1.064  0.7981 -0.9106 -0.4151
  504TIP3    H223004   2.923   2.439   1.198  0.4663 -0.2519 -0.3167
  505TIP3   OH223005   4.487   1.826   4.341  0.2195  0.5869  0.3179
  505TIP3    H123006   4.439   1.907   4.321 -0.7058 -0.6493 -2.8785
  505TIP3    H223007   4.552   1.819   4.271 -0.2639 -1.7937  0.0500
  506TIP3   OH223008   4.199   4.317   2.500 -0.1067 -0.4765 -0.7543
  506TIP3    H123009   4.214   4.340   2.592  0.5745 -1.7576 -0.5287
  506TIP3    H223010   4.232   4.392   2.451 -2.2674  1.0624  0.0950
  507TIP3   OH223011   2.483   1.269   5.296  0.2902  0.3258 -0.9040
  507TIP3    H123012   2.391   1.278   5.272 -0.3887 -0.6449  1.1552
  507TIP3    H223013   2.504   1.177   5.278  0.6501  0.3659 -0.7007
  508TIP3   OH223014   6.404   3.580  14.409  0.4210  0.4490  0.2109
  508TIP3    H123015   6.464   3.543  14.474 -0.7724 -0.7091  0.6658
  508TIP3    H223016   6.334   3.516  14.402 -1.1370  2.1284  0.2116
  509TIP3   OH223017   0.952   3.928  13.311 -0.1067  0.1457 -0.1127
  509TIP3    H123018   0.864   3.920  13.347 -0.4981  2.0586 -0.6213
  509TIP3    H223019   0.972   3.841  13.277 -1.7603 -0.3271  0.0996
  510TIP3   OH223020   3.761   1.763  16.546  0.0257  0.1389 -0.0907
  510TIP3    H123021   3.706   1.816  16.489 -0.9586 -0.2623  0.4658
  510TIP3    H223022   3.735   1.672  16.528  1.2090 -0.1196 -0.5436
  511TIP3   OH223023   4.460   2.270   4.976 -0.0998  0.2662 -0.1549
  511TIP3    H123024   4.420   2.321   4.906 -0.3710 -0.2266 -0.3602
  511TIP3    H223025   4.553   2.291   4.971 -0.5835  3.2533  1.8394
  512TIP3   OH223026   6.404   1.300  15.957  0.0532 -0.1968  0.3662
  512TIP3    H123027   6.418   1.224  15.900  2.8345 -0.0711  0.8417
  512TIP3    H223028   6.394   1.263  16.044  2.1880 -0.0059  0.7159
  513TIP3   OH223029   2.052   2.754   6.044  0.4560 -0.6834 -0.0959
  513TIP3    H123030   2.068   2.670   6.000 -0.3900 -0.2438 -1.2549
  513TIP3    H223031   2.079   2.739   6.134  1.6370 -1.7845 -0.6201
  514TIP3   OH223032   0.119   2.136   2.306  0.3412  0.2809 -0.0969
  514TIP3    H123033   0.203   2.133   2.260  0.2713 -2.4517 -0.0831
  514TIP3    H223034   0.054   2.152   2.237  0.6214 -0.0129 -0.4284
  515TIP3   OH223035   2.329   3.462   2.423  0.1502 -0.2911 -0.4193
  515TIP3    H123036   2.297   3.478   2.335 -0.8747  3.1880  0.4987
  515TIP3    H223037   2.417   3.499   2.424  0.1420 -0.2742 -0.0044
  516TIP3   OH223038   2.217   2.277   1.665  0.3623 -0.2838  0.0811
  516TIP3    H123039   2.252   2.321   1.742 -0.0618  0.3652 -0.0928
  516TIP3    H223040   2.130   2.315   1.653  1.0790  0.8754 -1.7111
  517TIP3   OH223041   3.376   3.152  13.463 -0.3523  0.0239  0.2684
  517TIP3    H123042   3.325   3.084  13.419  0.5430 -0.4743 -0.0330
  517TIP3    H223043   3.463   3.112  13.473  0.1753  1.1272  0.1004
  518TIP3   OH223044   3.314   1.655   4.403  0.7012  0.4032  0.0068
  518TIP3    H123045   3.270   1.709   4.339  2.0398 -0.1059 -1.3770
  518TIP3    H223046   3.372   1.715   4.450 -1.4266  1.0714  1.8372
  519TIP3   OH223047   6.331   1.374  12.897 -0.0298  0.6625  0.4912
  519TIP3    H123048   6.426   1.386  12.889 -0.2173  1.2596 -1.1025
  519TIP3    H223049   6.295   1.430  12.828 -1.5177  0.0445  0.7663
  520TIP3   OH223050   5.970   5.347   2.937 -0.3074  0.1386  0.2055
  520TIP3    H123051   6.036   5.417   2.931 -0.1470 -0.1670 -2.1273
  520TIP3    H223052   6.008   5.284   2.999  1.2156  0.3790 -0.4504
  521TIP3   OH223053   6.656   1.672  12.909 -0.2588 -0.0665 -0.0990
  521TIP3    H123054   6.563   1.696  12.917 -0.1187  0.8799 -1.2216
  521TIP3    H223055   6.702   1.756  12.905  0.6149 -0.5324  0.0149
  522TIP3   OH223056   1.682   0.575   4.885 -0.0737 -0.3247 -0.2844
  522TIP3    H123057   1.723   0.634   4.948 -0.0007 -0.7316  0.0537
  522TIP3    H223058   1.628   0.517   4.938 -0.5932 -0.1958 -0.6703
  523TIP3   OH223059   3.838   5.611   3.350 -0.0095  0.2080  0.0766
  523TIP3    H123060   3.752   5.602   3.391  1.0890  0.3448  2.4714
  523TIP3    H223061   3.842   5.537   3.289 -1.9166  0.3311 -0.2438
  524TIP3   OH223062   6.365   6.316  11.261  0.3935 -0.1016 -0.2755
  524TIP3    H123063   6.371   6.264  11.181  1.4601  1.0500 -0.9553
  524TIP3    H223064   6.424   6.390  11.247 -0.7601  1.0746  0.8658
  525TIP3   OH223065   3.309   5.186  14.888 -0.0589  0.1909  0.1108
  525TIP3    H123066   3.339   5.272  14.916 -0.3951  0.1666  0.5535
  525TIP3    H223067   3.276   5.199  14.799  0.0760  0.4742  0.1037
  526TIP3   OH223068   0.320   5.498   5.042 -0.0193  0.2840 -0.1167
  526TIP3    H123069   0.271   5.431   5.090  1.7521 -0.8819  0.1115
  526TIP3    H223070   0.363   5.550   5.110 -0.8006  1.1969 -0.3182
  527TIP3   OH223071   5.959   4.846   1.220  0.3396  0.2155  0.4649
  527TIP3    H123072   5.897   4.827   1.290 -0.9251  2.2436 -0.0686
  527TIP3    H223073   5.909   4.832   1.140  1.0104  0.4934 -0.0064
  528TIP3   OH223074   3.633   3.470  16.139  0.6853  0.1487  0.2706
  528TIP3    H123075   3.591   3.415  16.205 -0.0929 -0.3256 -0.5993
  528TIP3    H223076   3.675   3.407  16.080  1.0496  0.5502  0.1074
  529TIP3   OH223077   4.218   2.100   3.977 -0.2330  0.1306  0.4382
  529TIP3    H123078   4.137   2.106   4.029 -0.7303 -2.4488  0.0288
  529TIP3    H223079   4.197   2.037   3.908  0.5283  3.1986 -2.7690
  530TIP3   OH223080   1.164   5.656   3.417  0.5741  0.1194 -0.0981
  530TIP3    H123081   1.174   5.618   3.504  3.4923 -2.0041 -1.2742
  530TIP3    H223082   1.170   5.751   3.430 -1.0056 -0.0721  2.2036
  531TIP3   OH223083   1.590   0.216   1.289 -0.0290  0.3998  0.6535
  531TIP3    H123084   1.679   0.211   1.324 -0.3755  0.4560  1.5405
  531TIP3    H223085   1.545   0.139   1.326 -0.4318  0.5239  0.4282
  532TIP3   OH223086   6.613   5.440   1.133  0.0788  0.1552  0.2473
  532TIP3    H123087   6.524   5.444   1.166  0.0856  0.0300  0.2817
  532TIP3    H223088   6.612   5.371   1.067  0.1108  0.2688  0.1274
  533TIP3   OH223089   1.805   6.186  15.624  0.0813  0.3729  0.2287
  533TIP3    H123090   1.750   6.256  15.589  0.8913  1.3268  0.8397
  533TIP3    H223091   1.875   6.231  15.671  1.2043 -0.8299 -0.2425
  534TIP3   OH223092   5.737   4.362   4.238  0.2658 -0.5624 -0.0965
  534TIP3    H123093   5.743   4.429   4.305 -0.9782 -0.1468 -0.3910
  534TIP3    H223094   5.732   4.410   4.155 -2.2085 -0.9222 -0.2130
  535TIP3   OH223095   1.676   4.541   2.446  0.3117  0.3144  0.1929
  535TIP3    H123096   1.610   4.600   2.484 -0.2250 -0.7742  0.9777
  535TIP3    H223097   1.714   4.592   2.375 -2.0111  0.6567 -0.8687
  536TIP3   OH223098   0.623   0.008  12.110  0.2181 -0.2004 -0.4917
  536TIP3    H123099   0.675  -0.024  12.037  0.2471 -0.9659 -0.1445
  536TIP3    H223100   0.596   0.096  12.084 -1.1075 -1.0522 -2.1222
  537TIP3   OH223101   3.675   3.905  15.257  0.5041  0.6904 -0.3938
  537TIP3    H123102   3.667   3.999  15.272  1.2563  0.9253 -1.4400
  537TIP3    H223103   3.585   3.875  15.246  0.2826  1.3304 -0.3292
  538TIP3   OH223104   6.354   2.612   2.019 -0.9008  0.1728  0.0752
  538TIP3    H123105   6.435   2.581   2.058 -0.3651  2.2587  0.6812
  538TIP3    H223106   6.314   2.534   1.981  0.4222 -1.2118  1.4752
  539TIP3   OH223107   3.662   0.386   3.176 -0.5820 -0.5406  0.1631
  539TIP3    H123108   3.604   0.312   3.158 -0.7608 -0.5173  0.6340
  539TIP3    H223109   3.673   0.386   3.271  0.0554 -0.4399  0.0940
  540TIP3   OH223110   0.472   5.296   5.730 -0.1712 -0.2886 -0.2884
  540TIP3    H123111   0.532   5.339   5.669 -0.0473  1.2170  0.8658
  540TIP3    H223112   0.432   5.368   5.779  0.0430 -1.4868  1.6997
  541TIP3   OH223113   5.722   5.998   3.985  0.0910  0.2209  0.0918
  541TIP3    H123114   5.744   6.046   3.905 -1.1537  0.4318 -0.1331
  541TIP3    H223115   5.678   6.062   4.041 -1.1580 -0.5232 -0.0167
  542TIP3   OH223116   4.079   0.183  11.558 -0.4463  0.2245  0.0646
  542TIP3    H123117   4.167   0.188  11.520 -0.8359  1.3270 -0.7124
  542TIP3    H223118   4.074   0.259  11.616 -1.5097  1.1872 -1.2626
  543TIP3   OH223119   4.149   1.995  15.046 -0.0370  0.4846 -0.1553
  543TIP3    H123120   4.189   2.072  15.088  0.5016  0.1378 -0.0245
  543TIP3    H223121   4.086   2.032  14.984 -0.5040  1.0143  0.6187
  544TIP3   OH223122   0.461   2.520  12.276  0.4521 -0.3250  0.0354
  544TIP3    H123123   0.543   2.478  12.301  1.1023  0.8771 -0.0399
  544TIP3    H223124   0.441   2.484  12.190  1.8192  0.6643 -0.7158
  545TIP3   OH223125   4.146   6.428   3.591 -0.1310  0.0108 -0.3113
  545TIP3    H123126   4.145   6.445   3.686 -0.5490 -1.0036 -0.1268
  545TIP3    H223127   4.102   6.343   3.582 -0.6722  0.4122 -1.4806
  546TIP3   OH223128   2.549   5.866   1.903 -0.2720 -0.0886 -0.5032
  546TIP3    H123129   2.498   5.924   1.846 -2.9208  0.1064  1.9302
  546TIP3    H223130   2.619   5.921   1.936  0.4030  0.2114 -2.3425
  547TIP3   OH223131   0.318   4.262   0.290 -0.5223  0.8347 -0.3639
  547TIP3    H123132   0.338   4.179   0.248 -0.3703  1.4265 -1.5020
  547TIP3    H223133   0.334   4.247   0.383  1.9182  0.2996 -0.8307
  548TIP3   OH223134   2.651   0.251   4.241  0.6869  0.3268  0.4022
  548TIP3    H123135   2.686   0.340   4.235 -2.0088  1.5039  1.2184
  548TIP3    H223136   2.556   0.264   4.252 -0.1877 -2.7180 -2.8730
  549TIP3   OH223137   0.597   5.087   4.821 -0.4077  0.0088 -0.2537
  549TIP3    H123138   0.556   5.133   4.894  0.9175 -1.8263  1.7349
  549TIP3    H223139   0.553   5.002   4.818 -0.3955  0.0357 -1.5394
  550TIP3   OH223140   5.425   5.831   0.786  0.1336  0.4048 -0.1050
  550TIP3    H123141   5.378   5.910   0.812  3.7768  2.6367  0.1528
  550TIP3    H223142   5.483   5.812   0.860 -0.6045 -2.4664 -0.2205
  551TIP3   OH223143   1.712   3.395   0.970  0.0879 -0.3222  0.4970
  551TIP3    H123144   1.800   3.361   0.987 -0.3828 -1.0377  1.5238
  551TIP3    H223145   1.662   3.318   0.943 -0.2302  0.0861 -0.0831
  552TIP3   OH223146   3.601   4.078  14.278 -0.9510  0.0129 -0.0783
  552TIP3    H123147   3.686   4.040  14.303 -0.5850  0.7582 -0.1671
  552TIP3    H223148   3.581   4.139  14.349 -1.1138  0.2988 -0.3728
  553TIP3   OH223149   0.583   2.091   1.101  0.3059  0.0171 -0.2293
  553TIP3    H123150   0.602   2.175   1.140  2.8354 -1.0534  0.9167
  553TIP3    H223151   0.492   2.099   1.070 -0.1480  2.4557  1.6018
  554TIP3   OH223152   1.143   3.165   2.761  0.5771  0.4711 -0.0923
  554TIP3    H123153   1.209   3.113   2.713  1.0867  0.5446  0.5188
  554TIP3    H223154   1.113   3.230   2.698  0.1584 -0.3803 -0.7709
  555TIP3   OH223155   3.448   0.007  14.339 -0.3331  0.5629  0.7840
  555TIP3    H123156   3.494  -0.077  14.336 -0.8619  0.2691  0.8685
  555TIP3    H223157   3.386   0.003  14.266 -0.1442  1.0040  0.6014
  556TIP3   OH223158   3.726   0.458  14.500  0.2122  0.0612 -0.2359
  556TIP3    H123159   3.687   0.373  14.481 -0.2826  0.6689 -2.0793
  556TIP3    H223160   3.679   0.519  14.442  1.7889  1.3007 -0.2365
  557TIP3   OH223161   4.882   6.477   4.654 -0.0893  0.0424  0.5613
  557TIP3    H123162   4.973   6.502   4.637  0.6420 -1.3142  2.2663
  557TIP3    H223163   4.831   6.522   4.587  1.8494  0.7839 -0.4392
  558TIP3   OH223164   0.205   3.676  12.870  0.1307 -0.9607  0.6798
  558TIP3    H123165   0.207   3.769  12.893 -1.8968 -0.3705 -1.3190
  558TIP3    H223166   0.291   3.642  12.895  0.5791  1.2475  2.2228
  559TIP3   OH223167   2.057   3.098   3.007  0.0010  0.2202 -0.0698
  559TIP3    H123168   2.023   3.084   2.919 -0.3411  2.0138 -0.2409
  559TIP3    H223169   2.151   3.111   2.995 -0.1017  0.8510 -0.2256
  560TIP3   OH223170   5.213   6.145   3.461 -0.3851  0.1075  0.6439
  560TIP3    H123171   5.214   6.240   3.477  1.6105  0.5385 -1.6955
  560TIP3    H223172   5.120   6.124   3.447 -0.5950  2.2918 -1.6922
  561TIP3   OH223173   0.867   6.072   1.339 -0.0454  0.0461  0.1494
  561TIP3    H123174   0.773   6.083   1.356  0.0906  0.4992  0.6124
  561TIP3    H223175   0.905   6.055   1.425  0.1275 -1.4029 -0.2033
  562TIP3   OH223176   3.085   0.724  13.010  0.5969  0.1091 -0.6875
  562TIP3    H123177   3.028   0.787  13.055 -0.5396 -2.2314  1.2609
  562TIP3    H223178   3.118   0.772  12.934  0.1027  3.1977  0.9402
  563TIP3   OH223179   5.532   4.532   5.480  0.2628  0.5847  0.2150
  563TIP3    H123180   5.574   4.558   5.562 -0.7348 -0.9011  1.2145
  563TIP3    H223181   5.601   4.486   5.432  0.9388  1.7372  0.0607
  564TIP3   OH223182   1.258   3.713  11.501  0.2816  0.4461 -0.1132
  564TIP3    H123183   1.263   3.670  11.416 -0.1840  0.7537 -0.2970
  564TIP3    H223184   1.348   3.711  11.534  0.4197  0.1068 -0.4986
  565TIP3   OH223185   1.172   5.941   6.158 -0.3320  0.1067  0.5013
  565TIP3    H123186   1.239   5.911   6.219  0.2942  1.2551  0.3847
  565TIP3    H223187   1.090   5.909   6.195  0.2649 -1.2365  0.6902
  566TIP3   OH223188   5.290   6.047   5.939 -0.0327  0.2719  0.2056
  566TIP3    H123189   5.209   5.996   5.944  0.3678 -0.2897  1.0409
  566TIP3    H223190   5.358   5.982   5.922 -0.1692  1.0999 -4.1172
  567TIP3   OH223191   1.407   0.625   0.697 -0.1810  0.4735  0.3298
  567TIP3    H123192   1.492   0.589   0.672 -0.2204  1.1794 -0.8550
  567TIP3    H223193   1.424   0.671   0.779  0.5772  0.5661  0.1250
  568TIP3   OH223194   0.699   2.723   1.528 -0.7250  0.9632  0.4628
  568TIP3    H123195   0.707   2.795   1.465 -1.8576  0.4571 -0.2679
  568TIP3    H223196   0.704   2.644   1.475  1.0959  0.4707  1.3259
  569TIP3   OH223197   6.452   2.300  17.170  0.4100 -0.2412  0.7508
  569TIP3    H123198   6.454   2.392  17.198  0.1569  0.1701 -0.5378
  569TIP3    H223199   6.523   2.259  17.220  0.0618  0.4860  1.8761
  570TIP3   OH223200   2.318   0.397   3.971  0.7470  0.2248 -0.0448
  570TIP3    H123201   2.305   0.302   3.970  0.9728  0.1919  0.1007
  570TIP3    H223202   2.373   0.412   4.048 -0.2132  0.5949  0.5801
  571TIP3   OH223203   2.750   4.266   3.901  0.4499 -0.4192 -0.3414
  571TIP3    H123204   2.688   4.213   3.851 -2.3999  0.7763  1.8219
  571TIP3    H223205   2.704   4.289   3.981  3.8002  0.3337  1.4775
  572TIP3   OH223206   2.276   3.230  16.458 -0.1210  0.0138  0.6353
  572TIP3    H123207   2.235   3.255  16.540 -0.1713 -0.9096  0.9020
  572TIP3    H223208   2.293   3.136  16.467 -0.0711 -0.0850 -0.3791
  573TIP3   OH223209   3.434   2.669   4.179 -0.3398 -0.1629 -0.1473
  573TIP3    H123210   3.362   2.608   4.167 -0.5499  0.1331 -0.3812
  573TIP3    H223211   3.429   2.727   4.104 -0.1214  0.1256  0.0622
  574TIP3   OH223212   3.594   3.678  12.450 -0.5429 -0.4388 -0.2462
  574TIP3    H123213   3.589   3.645  12.360 -0.6004  1.9452 -1.1508
  574TIP3    H223214   3.581   3.773  12.442 -0.0304 -0.1191  2.2257
  575TIP3   OH223215   0.649   0.972  15.970  0.4991 -0.5264 -0.2753
  575TIP3    H123216   0.620   1.054  16.011  1.4311 -0.6914  0.7304
  575TIP3    H223217   0.673   0.997  15.881 -0.7833 -0.0101 -0.4905
  576TIP3   OH223218   5.863   0.778   2.536  0.2641 -0.1823  0.4876
  576TIP3    H123219   5.777   0.774   2.494  0.3061 -1.2149  0.5063
  576TIP3    H223220   5.872   0.695   2.582  1.3716 -0.1766  0.2955
  577TIP3   OH223221   0.570   1.411   1.163  0.4910 -0.1607  0.5060
  577TIP3    H123222   0.494   1.469   1.178  0.5920  0.2131 -0.4028
  577TIP3    H223223   0.531   1.328   1.137  0.4104  0.3624 -1.0842
  578TIP3   OH223224   1.850   5.480  13.050 -0.0717 -0.4732  0.7554
  578TIP3    H123225   1.845   5.427  13.129 -1.2920  0.0679  1.0624
  578TIP3    H223226   1.776   5.541  13.058  1.0543  0.9797  0.2171
  579TIP3   OH223227   4.611   2.873   5.821  0.5136  0.0066 -0.0852
  579TIP3    H123228   4.516   2.872   5.825  0.4093  1.0960 -1.8248
  579TIP3    H223229   4.632   2.896   5.730  2.4242  1.0872  0.5867
  580TIP3   OH223230   6.362   2.704  11.464 -0.0401  0.1926  0.1864
  580TIP3    H123231   6.439   2.718  11.409  0.3166 -1.4971  0.2300
  580TIP3    H223232   6.343   2.790  11.502  1.1324  0.8592 -0.7195
  581TIP3   OH223233   5.439   3.005   5.622 -0.3088  0.2484 -0.0312
  581TIP3    H123234   5.510   3.048   5.575  0.2460 -0.2460  0.3526
  581TIP3    H223235   5.437   3.049   5.707 -0.2928  0.0918  0.0509
  582TIP3   OH223236   2.556   0.821  12.078  0.4717 -0.1468  0.2641
  582TIP3    H123237   2.488   0.831  12.011  0.7031 -0.0821  0.0386
  582TIP3    H223238   2.594   0.909  12.086  1.8685 -0.5991 -1.0457
  583TIP3   OH223239   0.762   5.501   6.329  0.5975 -0.1823 -0.1737
  583TIP3    H123240   0.748   5.588   6.366 -0.7518  0.4028 -2.0103
  583TIP3    H223241   0.717   5.442   6.389  1.4429  0.3780  1.0347
  584TIP3   OH223242   3.635   3.151  11.797 -0.7953  0.5706 -0.3399
  584TIP3    H123243   3.661   3.158  11.705 -0.7709  1.9006 -0.2405
  584TIP3    H223244   3.621   3.241  11.825  0.8046  0.3059  1.4441
  585TIP3   OH223245   1.310   2.267   6.242  0.5261 -0.3841 -0.0483
  585TIP3    H123246   1.232   2.311   6.275  0.1945 -0.5645 -0.6021
  585TIP3    H223247   1.290   2.245   6.151  1.6079  0.4812 -0.5043
  586TIP3   OH223248   2.447   0.715  12.867  0.1821 -0.9107 -0.0095
  586TIP3    H123249   2.485   0.631  12.840  0.9745 -0.6017  0.1511
  586TIP3    H223250   2.449   0.769  12.788  1.9866 -0.1962  0.5126
  587TIP3   OH223251   5.650   1.179  11.158 -0.2069  0.0325 -0.2985
  587TIP3    H123252   5.601   1.215  11.231  0.4189 -1.5591  0.9426
  587TIP3    H223253   5.587   1.174  11.087 -0.9245  1.2182  0.2508
  588TIP3   OH223254   5.749   3.497   3.294  0.2419  0.4444 -0.3012
  588TIP3    H123255   5.829   3.539   3.260  0.6064  0.0196  0.0200
  588TIP3    H223256   5.745   3.525   3.385  0.1146  0.3280 -0.2717
  589TIP3   OH223257   2.700   5.008  12.603  0.0787  0.0267 -0.4411
  589TIP3    H123258   2.652   5.090  12.593  2.0193  1.3079  0.4572
  589TIP3    H223259   2.666   4.970  12.684 -1.7282 -0.7209 -1.5144
  590TIP3   OH223260   5.139   4.864  15.578  0.4003 -0.7548  0.6218
  590TIP3    H123261   5.168   4.788  15.628  0.3357 -0.4755  1.0969
  590TIP3    H223262   5.056   4.888  15.619 -1.6212 -2.8383 -2.0630
  591TIP3   OH223263   5.402   5.122   3.665 -0.2686 -0.2548  0.4695
  591TIP3    H123264   5.487   5.161   3.681  0.3673 -2.3992  2.6694
  591TIP3    H223265   5.384   5.139   3.572  0.7850  3.4822  0.8812
  592TIP3   OH223266   6.227   6.768   0.428 -0.6604  0.2188  0.0798
  592TIP3    H123267   6.170   6.820   0.371  0.4527  1.8648  0.4392
  592TIP3    H223268   6.271   6.707   0.369 -2.5536 -0.9134 -0.2420
  593TIP3   OH223269   3.235   3.442   2.206 -0.5142 -0.0391 -0.2148
  593TIP3    H123270   3.305   3.479   2.261  1.1612 -2.9390 -0.2933
  593TIP3    H223271   3.155   3.460   2.254  0.7358 -0.5946  2.1573
  594TIP3   OH223272   1.882   5.836  15.986 -0.0470 -0.4088  0.5214
  594TIP3    H123273   1.852   5.893  15.916 -0.7247 -1.6324 -0.1968
  594TIP3    H223274   1.845   5.873  16.066 -1.3751 -0.4669 -0.0672
  595TIP3   OH223275   5.053   4.129   0.242  0.3882  0.2788 -0.2428
  595TIP3    H123276   5.147   4.113   0.251  0.9436  2.7904 -0.9896
  595TIP3    H223277   5.031   4.100   0.154  0.4700 -0.3283 -0.0611
  596TIP3   OH223278   0.009   6.061   2.120  0.3016 -0.3337 -0.1684
  596TIP3    H123279   0.091   6.011   2.122 -0.2784 -1.2963 -0.6172
  596TIP3    H223280  -0.023   6.052   2.030  0.2010  0.8559 -0.2598
  597TIP3   OH223281   5.657   1.334   0.599  0.3939  0.1104  0.1393
  597TIP3    H123282   5.746   1.359   0.576 -0.2275  1.9596 -0.3815
  597TIP3    H223283   5.606   1.415   0.588 -1.0096 -0.4664  2.1789
  598TIP3   OH223284   1.830   0.327  12.302  0.4036  0.0738  0.6504
  598TIP3    H123285   1.759   0.309  12.241  0.3658 -0.1848  0.7702
  598TIP3    H223286   1.853   0.418  12.285  0.6323 -0.0969 -0.0011
  599TIP3   OH223287   1.576   1.164   4.032 -0.4652  0.1526  0.3666
  599TIP3    H123288   1.629   1.088   4.008 -0.6803 -0.4523  1.7574
  599TIP3    H223289   1.532   1.138   4.113 -0.2843  1.8850  1.0394
  600TIP3   OH223290   2.415   1.775  12.679  0.2016  0.6122  0.3554
  600TIP3    H123291   2.358   1.741  12.748 -1.2709 -2.7622 -2.3499
  600TIP3    H223292   2.380   1.862  12.659 -2.2593 -0.2819  0.6765
  601TIP3   OH223293   0.092   0.213   3.527 -0.4320 -0.4971  0.4480
  601TIP3    H123294   0.077   0.124   3.558  1.4717 -1.5014 -1.3649
  601TIP3    H223295   0.168   0.243   3.577  1.4074 -1.3981 -1.6868
  602TIP3   OH223296   5.277   0.830  14.514  0.4294  0.1774 -0.8941
  602TIP3    H123297   5.341   0.850  14.447  1.2086 -0.6245 -0.4067
  602TIP3    H223298   5.229   0.754  14.479  0.9948 -0.3915 -0.4582
  603TIP3   OH223299   1.775   2.024  17.164  0.1036 -0.1954 -0.5378
  603TIP3    H123300   1.714   2.095  17.180  1.4694  1.1566 -1.2099
  603TIP3    H223301   1.755   1.994  17.075 -1.2786 -1.4966  0.1835
  604TIP3   OH223302   2.487   1.761  16.646 -0.1453  0.6796  0.1155
  604TIP3    H123303   2.460   1.824  16.579  0.7344  1.5038  0.5378
  604TIP3    H223304   2.482   1.810  16.728  0.8335  0.2786  0.4084
  605TIP3   OH223305   1.017   2.246  12.948 -0.0576 -0.6591 -0.3848
  605TIP3    H123306   1.000   2.215  12.859 -3.2752  0.4911 -0.2491
  605TIP3    H223307   0.991   2.174  13.004  3.0661 -1.8226 -0.3569
  606TIP3   OH223308   0.722   1.166  12.380 -0.0917 -0.0616  0.6765
  606TIP3    H123309   0.741   1.260  12.375 -0.3846  0.0060  0.8623
  606TIP3    H223310   0.632   1.161  12.409 -0.0495 -0.4046  0.7474
  607TIP3   OH223311   3.092   5.394  17.199  0.2626  0.0286 -0.4408
  607TIP3    H123312   3.085   5.457  17.128  0.1804  1.4158  0.7883
  607TIP3    H223313   3.151   5.434  17.262 -0.8963 -0.4786  1.0101
  608TIP3   OH223314   5.247   5.995   0.945  0.4653  0.6511 -0.2054
  608TIP3    H123315   5.224   5.924   1.005  1.8412 -0.2309 -0.6916
  608TIP3    H223316   5.237   6.075   0.996  3.1302 -0.1764  1.6840
  609TIP3   OH223317   0.766   5.330  15.168  0.0258 -0.3385  0.6248
  609TIP3    H123318   0.731   5.408  15.125 -0.3414 -1.2423 -0.7582
  609TIP3    H223319   0.690   5.274  15.182  0.4414 -0.9141  0.5976
  610TIP3   OH223320   1.860   6.233  17.089  0.4063 -0.1606  0.1888
  610TIP3    H123321   1.940   6.252  17.040 -1.8699  0.2061 -3.5909
  610TIP3    H223322   1.825   6.319  17.111  0.1750 -0.2732  0.2592
  611TIP3   OH223323   6.287   4.393  15.445 -0.0242  0.6425  0.1450
  611TIP3    H123324   6.217   4.414  15.383 -0.3198  0.1640  0.3167
  611TIP3    H223325   6.309   4.476  15.486 -0.0325  0.9127 -0.3882
  612TIP3   OH223326   5.828   1.623   1.769  0.0219 -0.3599  0.8587
  612TIP3    H123327   5.798   1.543   1.811 -0.5605 -0.1717  0.8048
  612TIP3    H223328   5.788   1.621   1.682  2.3899 -1.4638 -0.2387
  613TIP3   OH223329   3.287   0.483   4.053  0.0301 -0.7174 -0.3134
  613TIP3    H123330   3.361   0.539   4.077 -1.1217 -0.3586  2.5519
  613TIP3    H223331   3.226   0.541   4.009  0.6730 -0.6423 -1.1166
  614TIP3   OH223332   5.063   1.916  13.656  0.3489 -0.2295 -0.1360
  614TIP3    H123333   5.017   1.934  13.738  0.3800 -0.3652 -0.0891
  614TIP3    H223334   5.092   2.002  13.624 -0.1706 -0.1140 -0.3037
  615TIP3   OH223335   2.362   4.467  13.632 -0.2929 -0.5247  0.0015
  615TIP3    H123336   2.301   4.527  13.675  0.3969  0.6118 -0.5731
  615TIP3    H223337   2.396   4.412  13.703  1.1355  1.5956  1.0321
  616TIP3   OH223338   5.514   2.819   0.763 -0.5888  0.8345 -0.1783
  616TIP3    H123339   5.500   2.913   0.747 -0.4294  0.6814 -1.2069
  616TIP3    H223340   5.481   2.776   0.684 -1.0063 -0.0078  0.4484
  617TIP3   OH223341   1.775   4.032   0.873 -0.6249  0.2993  0.0317
  617TIP3    H123342   1.726   4.105   0.834 -1.2008  0.5306  1.1332
  617TIP3    H223343   1.790   4.060   0.964  0.5078 -0.2946  0.0305
  618TIP3   OH223344   1.028   3.694  13.172 -0.0080  0.3745 -0.1294
  618TIP3    H123345   0.978   3.616  13.150  0.8347 -0.0877 -0.4117
  618TIP3    H223346   1.059   3.727  13.087  1.1757 -0.0155  0.1516
  619TIP3   OH223347   6.290   6.137  14.598  0.0012 -0.5811  0.4833
  619TIP3    H123348   6.263   6.213  14.647  2.5362  0.1139  0.8788
  619TIP3    H223349   6.302   6.169  14.508 -0.1295 -0.7800  0.3946
  620TIP3   OH223350   3.568   5.048   2.199  0.2268  0.5011  0.2654
  620TIP3    H123351   3.497   5.009   2.250 -1.5951  1.7905 -1.1941
  620TIP3    H223352   3.524   5.084   2.122  2.4829  1.3783 -0.6414
  621TIP3   OH223353   0.157   2.174   4.189 -0.2172 -0.4605  0.0260
  621TIP3    H123354   0.090   2.142   4.250  0.0937 -0.7907  0.1932
  621TIP3    H223355   0.107   2.213   4.117 -0.5835  0.3201  0.6973
  622TIP3   OH223356   1.050   0.322  15.884  0.1234 -0.1638 -0.1322
  622TIP3    H123357   1.006   0.329  15.968  2.1233 -0.1935  0.9433
  622TIP3    H223358   1.029   0.233  15.854  0.9250 -0.8340  1.2331
  623TIP3   OH223359   4.877   6.544  11.222  0.0905 -0.2791  0.4942
  623TIP3    H123360   4.945   6.484  11.252  0.7873  0.6507  0.8166
  623TIP3    H223361   4.870   6.609  11.292 -0.7874 -0.0920  0.2420
  624TIP3   OH223362   6.329   3.949   0.006 -0.0427  0.2304  0.3354
  624TIP3    H123363   6.236   3.924   0.004  0.3132 -1.0889 -1.0391
  624TIP3    H223364   6.371   3.880   0.058  0.2590  0.5005  0.4460
  625TIP3   OH223365   4.528   4.844   0.498  0.5852 -0.0626  0.7412
  625TIP3    H123366   4.460   4.777   0.496 -0.6535  1.2030 -0.7610
  625TIP3    H223367   4.557   4.851   0.407  0.0592  2.0748  0.7142
  626TIP3   OH223368   3.481   3.111   6.717  0.4338  0.6060 -0.0736
  626TIP3    H123369   3.486   3.045   6.647 -0.9252  0.6627 -0.2349
  626TIP3    H223370   3.429   3.182   6.679  0.2824  0.9413  0.7585
  627TIP3   OH223371   0.214   0.740   5.185  0.2303  0.1638  0.0183
  627TIP3    H123372   0.218   0.648   5.211  2.1814  0.0573 -0.5598
  627TIP3    H223373   0.222   0.788   5.268 -1.3670 -0.1741  0.3794
  628TIP3   OH223374   3.056   6.783   4.286  0.4746  0.3939 -0.5239
  628TIP3    H123375   3.088   6.731   4.359 -0.4583 -0.2618 -0.5748
  628TIP3    H223376   3.124   6.849   4.272  0.9298  0.1672  0.5530
  629TIP3   OH223377   0.173   2.528   1.175 -0.2973 -0.0147 -0.3978
  629TIP3    H123378   0.150   2.455   1.116  0.7641 -1.1635  0.5977
  629TIP3    H223379   0.218   2.591   1.119 -0.7585 -0.3530 -1.1599
  630TIP3   OH223380   4.882   0.808  16.010 -0.4585  0.1349 -0.2986
  630TIP3    H123381   4.933   0.777  16.086 -2.3036 -0.6113  0.6709
  630TIP3    H223382   4.946   0.855  15.956  0.8152  1.0658  1.9255
  631TIP3   OH223383   1.403   4.598   5.813  0.6851 -0.5868  0.2869
  631TIP3    H123384   1.488   4.641   5.798 -0.1968  0.4062 -2.0332
  631TIP3    H223385   1.425   4.520   5.863  2.8650  0.1701  0.5877
  632TIP3   OH223386   4.409   2.404  15.827 -0.1000 -0.1003 -0.0603
  632TIP3    H123387   4.463   2.455  15.887 -0.1464  0.4069 -0.4435
  632TIP3    H223388   4.436   2.433  15.740  1.4837 -2.3740 -0.3632
  633TIP3   OH223389   3.539   6.639  13.771  0.4237  0.1140 -0.2844
  633TIP3    H123390   3.506   6.577  13.706 -0.1559  0.0653  0.0576
  633TIP3    H223391   3.491   6.720  13.754  0.2558  0.0968  0.0947
  634TIP3   OH223392   3.237   6.565   4.783  0.5296  0.2374 -0.2385
  634TIP3    H123393   3.249   6.635   4.847  0.7492 -0.2784  0.2940
  634TIP3    H223394   3.144   6.541   4.791  0.8047 -0.5610  0.6655
  635TIP3   OH223395   6.249   1.608  12.355 -0.2203 -0.3559 -0.4208
  635TIP3    H123396   6.254   1.518  12.325  4.2406 -0.5020  0.3626
  635TIP3    H223397   6.304   1.657  12.294  0.8088  1.0493  1.5744
  636TIP3   OH223398   3.335   1.512  11.598  0.4044  0.4319 -0.2135
  636TIP3    H123399   3.337   1.596  11.644 -1.1275 -1.1122  2.8217
  636TIP3    H223400   3.252   1.512  11.551  1.5682  1.6334 -2.3690
  637TIP3   OH223401   2.415   5.266  15.752 -0.1656  0.3290  0.3673
  637TIP3    H123402   2.375   5.346  15.789 -1.0500  0.5704 -1.0758
  637TIP3    H223403   2.341   5.208  15.736  0.3388 -0.2414  0.1087
  638TIP3   OH223404   6.005   0.583  10.905  0.5690  0.1135 -0.1600
  638TIP3    H123405   6.099   0.583  10.921  0.3167 -1.8590  1.5963
  638TIP3    H223406   5.988   0.501  10.858  0.0454  1.6784 -2.7933
  639TIP3   OH223407   1.517   1.842   3.320 -1.0691 -0.3150  0.1021
  639TIP3    H123408   1.423   1.854   3.332 -0.7691  0.3522  1.9839
  639TIP3    H223409   1.537   1.761   3.366 -0.6952 -0.3357 -0.0984
  640TIP3   OH223410   5.003   1.241   2.703 -0.7690 -0.0178 -0.0366
  640TIP3    H123411   5.086   1.290   2.704 -0.8226  0.1538  3.7750
  640TIP3    H223412   4.939   1.305   2.672  0.6555 -0.5603 -4.4361
  641TIP3   OH223413   1.876   5.008  11.178  0.1405  0.0088  0.0162
  641TIP3    H123414   1.889   5.101  11.160  0.7078 -0.4403 -2.0383
  641TIP3    H223415   1.783   5.001  11.201  0.2769  1.1878  0.9714
  642TIP3   OH223416   0.566   6.127   1.377  0.3053 -0.0318 -0.2124
  642TIP3    H123417   0.475   6.156   1.388  0.8341  1.1962  1.0773
  642TIP3    H223418   0.562   6.033   1.389 -0.5620  0.2066  1.5408
  643TIP3   OH223419   2.279   6.714  12.335  0.1112 -0.1435  0.2963
  643TIP3    H123420   2.291   6.673  12.249  1.7990  0.7922  0.0724
  643TIP3    H223421   2.354   6.772  12.345 -1.7668  2.2320  1.0182
  644TIP3   OH223422   0.565   5.207  14.349 -0.6228  0.5220  0.2286
  644TIP3    H123423   0.506   5.132  14.350 -0.7573  0.6385  1.1973
  644TIP3    H223424   0.538   5.258  14.273  1.0328 -1.6540 -1.8978
  645TIP3   OH223425   2.864   1.288  14.740 -0.2097  0.0776  0.5097
  645TIP3    H123426   2.811   1.242  14.806  1.8627 -2.0819  0.7530
  645TIP3    H223427   2.926   1.222  14.710  0.6636  1.8300 -1.6380
  646TIP3   OH223428   3.996   6.685   1.871 -0.0639  0.0297 -0.3163
  646TIP3    H123429   3.970   6.625   1.801 -0.4553 -1.0201  0.7077
  646TIP3    H223430   3.913   6.711   1.912  0.2576 -0.9208  0.9987
  647TIP3   OH223431   3.215   5.502   3.858  0.0843 -0.1948  0.3338
  647TIP3    H123432   3.242   5.442   3.928 -1.1127 -1.7332 -0.4784
  647TIP3    H223433   3.204   5.445   3.781  0.4178  1.3138 -0.8587
  648TIP3   OH223434   0.918   3.432  12.477 -0.0288  0.3359  0.1311
  648TIP3    H123435   0.980   3.366  12.507  0.0197  0.4162  0.2060
  648TIP3    H223436   0.940   3.511  12.527 -1.1164 -0.0200  1.1879
  649TIP3   OH223437   0.878   3.048  14.468  0.6685 -0.1274 -0.5588
  649TIP3    H123438   0.920   3.062  14.553 -0.2246  2.0622 -0.4640
  649TIP3    H223439   0.942   2.996  14.419  1.8007 -0.2119  0.9438
  650TIP3   OH223440   5.359   3.056  15.301 -0.5703 -0.2048  0.6920
  650TIP3    H123441   5.351   2.973  15.252  0.4710  1.6415 -2.7669
  650TIP3    H223442   5.449   3.084  15.286 -0.9165  1.5843  1.8125
  651TIP3   OH223443   3.471   5.224  11.622 -0.5169 -0.1332  0.3134
  651TIP3    H123444   3.500   5.161  11.555 -1.4464  0.0675 -0.2924
  651TIP3    H223445   3.547   5.281  11.635 -0.7299  0.6483 -1.5662
  652TIP3   OH223446   4.740   4.242  11.171 -0.5248 -0.2664 -0.3593
  652TIP3    H123447   4.776   4.174  11.229  0.5867  0.8267  0.2406
  652TIP3    H223448   4.712   4.312  11.230 -0.2320  0.4676 -1.0792
  653TIP3   OH223449   1.737   4.494   5.991 -0.1692 -0.4006 -0.2514
  653TIP3    H123450   1.819   4.541   6.001 -0.6140  0.2536  0.4437
  653TIP3    H223451   1.688   4.514   6.072 -0.0159 -2.7570  0.4660
  654TIP3   OH223452   5.006   0.429   0.618  0.0292  0.1489  0.7098
  654TIP3    H123453   4.921   0.446   0.578  0.6064  1.2083 -0.0950
  654TIP3    H223454   5.042   0.517   0.634  0.5176 -0.2752  2.0308
  655TIP3   OH223455   3.448   2.992   5.709  0.0965  0.1661  0.1613
  655TIP3    H123456   3.531   3.004   5.756 -0.4644 -0.0182  1.2298
  655TIP3    H223457   3.450   2.902   5.677  0.2172  0.0924  0.3797
  656TIP3   OH223458   3.504   1.500  11.879 -0.0190  0.2875  0.3730
  656TIP3    H123459   3.526   1.591  11.861 -1.2931  0.8022  1.3083
  656TIP3    H223460   3.466   1.468  11.796 -0.1970  0.8106  0.2479
  657TIP3   OH223461   1.861   5.855  11.630 -0.1044  0.4648 -0.0605
  657TIP3    H123462   1.895   5.766  11.632  1.1263  0.8294 -2.3337
  657TIP3    H223463   1.775   5.849  11.670 -0.7073 -2.0631 -1.6118
  658TIP3   OH223464   2.109   0.631  15.837 -0.0048 -0.4098  0.0472
  658TIP3    H123465   2.028   0.641  15.887 -0.4569  1.0121 -0.9076
  658TIP3    H223466   2.082   0.645  15.746  1.5305  1.4787 -0.1651
  659TIP3   OH223467   1.694   4.092  12.680  0.4976 -0.0498  0.7247
  659TIP3    H123468   1.727   4.016  12.633 -1.1203  1.6893 -3.4205
  659TIP3    H223469   1.764   4.156  12.674 -0.6586  1.0515 -1.6294
  660TIP3   OH223470   6.033   4.243   0.785 -0.6565  0.2176  0.2887
  660TIP3    H123471   6.084   4.304   0.838  0.1436 -0.7512  0.6522
  660TIP3    H223472   5.956   4.223   0.838  0.5427 -1.3895  1.4716
  661TIP3   OH223473   5.214   0.938  11.064  0.5791  0.3401  0.3138
  661TIP3    H123474   5.146   0.930  10.997  1.4044 -3.0133 -0.2297
  661TIP3    H223475   5.167   0.950  11.146 -0.6514 -0.9076 -0.1974
  662TIP3   OH223476   4.877   0.884  11.056 -0.1379  0.2983 -0.2881
  662TIP3    H123477   4.781   0.891  11.052 -0.0199  1.8530 -0.8541
  662TIP3    H223478   4.893   0.797  11.091 -1.7837  0.3533  0.6712
  663TIP3   OH223479   4.463   3.764  14.400  0.8112  0.3355 -0.0322
  663TIP3    H123480   4.536   3.826  14.407  0.5785  0.5626  0.4090
  663TIP3    H223481   4.392   3.815  14.362  0.9557  0.0467 -0.6999
  664TIP3   OH223482   2.441   6.186  11.303  0.5099  0.2554  0.6481
  664TIP3    H123483   2.498   6.260  11.322 -0.0482  0.1449  2.8330
  664TIP3    H223484   2.398   6.166  11.386  0.1836 -2.1259 -0.0536
  665TIP3   OH223485   1.341   6.287   5.436  0.4057  0.6885  0.0900
  665TIP3    H123486   1.338   6.232   5.514 -0.3878 -0.2909 -0.6234
  665TIP3    H223487   1.330   6.376   5.469 -0.9856  0.1897  0.9955
  666TIP3   OH223488   2.232   1.580   5.049  0.3231 -0.6269  0.0766
  666TIP3    H123489   2.280   1.621   5.121  0.3136  0.6283 -0.6195
  666TIP3    H223490   2.145   1.563   5.083 -0.1713  1.4003 -0.0992
  667TIP3   OH223491   1.049   4.708   0.608  0.1922  0.2982 -0.5306
  667TIP3    H123492   0.968   4.677   0.568  1.4080 -2.7384 -0.7859
  667TIP3    H223493   1.084   4.772   0.546 -1.5396  0.9986 -0.8144
  668TIP3   OH223494   2.307   4.223  13.089 -0.0597 -0.4753  0.4267
  668TIP3    H123495   2.281   4.225  13.181  1.6728  0.5746  0.9149
  668TIP3    H223496   2.356   4.141  13.080 -1.1198 -1.0870  0.1806
  669TIP3   OH223497   4.562   0.881  11.253 -0.1706  1.0676 -0.1755
  669TIP3    H123498   4.561   0.889  11.158  1.7115  0.1395 -0.3020
  669TIP3    H223499   4.474   0.852  11.277  0.0021 -0.8631 -1.8231
  670TIP3   OH223500   0.006   0.533   4.098 -0.1990 -0.0560 -0.5717
  670TIP3    H123501  -0.075   0.487   4.076 -0.2245  0.2024 -1.0326
  670TIP3    H223502   0.001   0.615   4.047  1.2706 -0.9383 -2.1818
  671TIP3   OH223503   1.428   5.799  11.050  0.1324  0.3770 -0.4391
  671TIP3    H123504   1.502   5.785  10.991 -1.0700 -0.0927 -1.8627
  671TIP3    H223505   1.433   5.726  11.112 -0.4341 -0.9548 -1.9216
  672TIP3   OH223506   0.475   2.943   0.967  0.1227 -0.6657  0.0082
  672TIP3    H123507   0.445   2.998   0.895 -0.0121  0.9284  1.2570
  672TIP3    H223508   0.406   2.877   0.977 -1.2229  0.7814  0.4727
  673TIP3   OH223509   5.658   6.391  13.759 -0.3653  0.6899  0.0359
  673TIP3    H123510   5.602   6.315  13.740  1.1052 -0.2507 -0.6064
  673TIP3    H223511   5.747   6.360  13.742  0.2632  2.5315 -0.1305
  674TIP3   OH223512   5.613   5.424  15.016  0.2193 -0.2847 -0.0739
  674TIP3    H123513   5.590   5.397  14.927  0.8140 -1.3304  0.0821
  674TIP3    H223514   5.591   5.349  15.070  1.4636 -0.2966  0.4316
  675TIP3   OH223515   3.696   5.584   1.413 -0.1358  0.1353 -0.2304
  675TIP3    H123516   3.604   5.580   1.390 -0.0089  1.0644 -0.9466
  675TIP3    H223517   3.734   5.647   1.351  1.1233 -0.8150 -0.4473
  676TIP3   OH223518   1.496   5.566  10.643 -0.3732  0.2384 -0.0652
  676TIP3    H123519   1.529   5.625  10.575 -0.9559 -0.3802 -0.8914
  676TIP3    H223520   1.562   5.570  10.712 -0.3297  1.7347 -0.1765
  677TIP3   OH223521   0.509   6.260   1.988  0.3255 -0.6959 -0.3316
  677TIP3    H123522   0.513   6.351   2.017  1.0466 -1.6845  2.7796
  677TIP3    H223523   0.415   6.239   1.989  0.4587 -1.3169  3.3407
  678TIP3   OH223524   2.658   3.613   2.897 -0.0433 -0.2011  0.4613
  678TIP3    H123525   2.689   3.525   2.876  0.7750  0.3293 -0.5716
  678TIP3    H223526   2.720   3.672   2.855 -0.2606  0.8851  1.6157
  679TIP3   OH223527   1.457   1.133   3.587  0.7439  0.0986  0.7340
  679TIP3    H123528   1.495   1.057   3.632  1.9683  1.0936  1.3951
  679TIP3    H223529   1.463   1.110   3.494 -0.8071 -1.5034  1.0036
  680TIP3   OH223530   4.143   5.810  15.587 -0.2484  0.1262  0.2132
  680TIP3    H123531   4.148   5.716  15.573 -0.7635  0.3267 -1.4754
  680TIP3    H223532   4.060   5.824  15.632  0.1957 -0.2864  1.1819
  681TIP3   OH223533   0.373   2.767   3.792 -0.2904  0.4859  0.1536
  681TIP3    H123534   0.414   2.771   3.878 -1.0681 -0.0664  0.5696
  681TIP3    H223535   0.442   2.789   3.730  0.4987  0.0334  0.8666
  682TIP3   OH223536   6.630   3.226  14.531  0.0326 -0.0628 -0.1621
  682TIP3    H123537   6.656   3.270  14.613  0.5962  0.9556 -0.8790
  682TIP3    H223538   6.713   3.199  14.492 -0.2420 -0.5741 -0.3923
  683TIP3   OH223539   3.338   1.491   6.044 -0.3814  0.7012 -0.2869
  683TIP3    H123540   3.405   1.533   6.098  0.5352 -0.6640 -0.3597
  683TIP3    H223541   3.316   1.410   6.090 -0.3113  0.0125 -1.4488
  684TIP3   OH223542   2.210   2.267   6.065  0.2445 -0.1235  0.0615
  684TIP3    H123543   2.138   2.209   6.089  0.2155  0.3121  1.0746
  684TIP3    H223544   2.270   2.212   6.015 -0.5103 -0.6411 -0.2729
  685TIP3   OH223545   6.059   5.293   5.187  0.0597 -0.2687  0.4423
  685TIP3    H123546   6.153   5.286   5.204  0.0103  1.0748  1.3838
  685TIP3    H223547   6.040   5.222   5.125  1.8616  0.0309 -0.4904
  686TIP3   OH223548   4.509   6.814   6.108  0.5797  0.5616  0.1509
  686TIP3    H123549   4.416   6.808   6.083  1.0013 -1.0580 -1.0861
  686TIP3    H223550   4.508   6.811   6.204 -0.5834 -0.8426  0.1199
  687TIP3   OH223551   4.744   3.826  11.754 -0.5053 -0.2117 -0.0487
  687TIP3    H123552   4.705   3.765  11.692  0.7767 -1.2048  0.1058
  687TIP3    H223553   4.796   3.885  11.699 -1.8329  0.8569 -0.2109
  688TIP3   OH223554   0.206   4.294  16.690 -0.0709  0.3304 -0.0410
  688TIP3    H123555   0.257   4.371  16.664 -0.7255  1.3967  1.7299
  688TIP3    H223556   0.258   4.254  16.761 -0.3413 -0.1535 -0.1114
  689TIP3   OH223557   1.836   3.979  11.879  0.6032 -0.1627  0.0176
  689TIP3    H123558   1.916   3.992  11.827  2.0966 -0.8023  2.0899
  689TIP3    H223559   1.765   3.999  11.819  2.2352 -2.1563 -2.7109
  690TIP3   OH223560   1.242   5.740   1.069  0.3567 -0.7390 -0.6678
  690TIP3    H123561   1.306   5.689   1.019  2.1901  0.4839  0.3924
  690TIP3    H223562   1.183   5.775   1.002  1.1624 -1.3646 -1.7263
  691TIP3   OH223563   1.803   0.166  16.909  0.0485 -0.2741  0.0588
  691TIP3    H123564   1.762   0.180  16.824  2.3727 -0.8835 -1.2191
  691TIP3    H223565   1.891   0.202  16.899 -0.1206  0.9287  2.6805
  692TIP3   OH223566   0.131   2.930   2.852  0.2613  0.1782  0.0918
  692TIP3    H123567   0.058   2.989   2.870  0.1189 -0.0539  0.2692
  692TIP3    H223568   0.090   2.850   2.819  0.2904 -0.8268  2.4566
  693TIP3   OH223569   3.050   3.643   0.217  0.3494 -0.2638 -0.0689
  693TIP3    H123570   3.033   3.737   0.219 -0.6268 -0.4626  1.5550
  693TIP3    H223571   2.973   3.605   0.174  0.8213 -0.3200 -0.8824
  694TIP3   OH223572   5.701   2.252   3.193 -0.2076  0.2280 -0.4201
  694TIP3    H123573   5.640   2.326   3.190  1.2118  1.4762  0.5852
  694TIP3    H223574   5.787   2.291   3.182  0.4147 -1.5725 -2.3033
  695TIP3   OH223575   3.509   5.217  15.987  0.3082 -0.2076 -0.1450
  695TIP3    H123576   3.488   5.129  16.019  0.1681 -0.6305 -1.3442
  695TIP3    H223577   3.542   5.202  15.898  1.1178  0.8797 -0.0300
  696TIP3   OH223578   2.224   1.275   3.630 -0.2504 -0.2458  0.8043
  696TIP3    H123579   2.247   1.194   3.676 -0.6545 -0.7264  0.1603
  696TIP3    H223580   2.292   1.285   3.564 -0.4947 -0.3343  0.5404
  697TIP3   OH223581   2.586   1.000  12.796  0.2292 -0.3475 -0.8759
  697TIP3    H123582   2.532   1.075  12.771 -1.8633 -1.2883  0.7826
  697TIP3    H223583   2.653   1.038  12.853 -0.0818  0.4466 -1.0241
  698TIP3   OH223584   0.921   5.306  17.218 -0.1862  0.3048  0.1072
  698TIP3    H123585   0.889   5.225  17.258  0.2955 -1.0646 -2.1769
  698TIP3    H223586   0.843   5.345  17.177  0.0256 -0.2422 -0.8291
  699TIP3   OH223587   0.833   0.206   1.991 -0.1306  0.2646  0.3657
  699TIP3    H123588   0.846   0.301   1.979 -0.3056  0.1150 -1.2274
  699TIP3    H223589   0.920   0.174   2.016  0.2547  0.6702 -0.4084
  700TIP3   OH223590   2.783   3.336   3.556  0.1797 -0.5812  0.5992
  700TIP3    H123591   2.744   3.423   3.567 -0.4109 -0.8763  0.8467
  700TIP3    H223592   2.874   3.354   3.533  0.4296  0.0902  2.0667
  701TIP3   OH223593   4.086   6.257  16.905  0.5441  0.4263 -0.4993
  701TIP3    H123594   4.121   6.169  16.887 -0.1491 -0.2226  1.2594
  701TIP3    H223595   4.160   6.304  16.944  0.0240 -0.3388  1.4136
  702TIP3   OH223596   6.550   4.871  13.281 -0.2533  0.4631 -0.3144
  702TIP3    H123597   6.623   4.925  13.250 -0.0323  1.2146  1.4704
  702TIP3    H223598   6.483   4.880  13.213  0.8066  0.7862 -1.3452
  703TIP3   OH223599   2.631   6.489   3.693  0.0675  0.1048 -0.1573
  703TIP3    H123600   2.680   6.447   3.763 -1.8680 -0.8581  0.6644
  703TIP3    H223601   2.639   6.429   3.619  1.3407  0.6729 -0.4936
  704TIP3   OH223602   0.310   2.086  17.098 -0.1557 -0.4917 -0.2519
  704TIP3    H123603   0.389   2.041  17.066 -0.3835  0.6367 -2.5106
  704TIP3    H223604   0.279   2.135  17.022 -1.0653  1.8568  1.5982
  705TIP3   OH223605   3.758   4.114  15.883 -0.3582 -0.1711  0.1818
  705TIP3    H123606   3.790   4.201  15.905  0.5859 -0.5829  0.4514
  705TIP3    H223607   3.834   4.068  15.848 -1.1863 -0.4282 -1.3168
  706TIP3   OH223608   0.737   2.221   5.743  0.3508  0.3682  0.4992
  706TIP3    H123609   0.795   2.262   5.807  2.1442  1.1687 -1.5729
  706TIP3    H223610   0.746   2.127   5.760  1.1937  0.5485  1.0989
  707TIP3   OH223611   5.560   3.998   5.656 -0.0258 -0.5640 -0.6131
  707TIP3    H123612   5.623   3.944   5.704 -0.9415 -1.9913 -1.0068
  707TIP3    H223613   5.539   3.947   5.578 -0.4460  0.6362 -1.3079
  708TIP3   OH223614   2.565   4.305   4.124 -0.4026 -0.0980  0.7017
  708TIP3    H123615   2.481   4.261   4.112 -0.6950  0.1826  1.6240
  708TIP3    H223616   2.542   4.388   4.166  0.2952  0.1682  0.5644
  709TIP3   OH223617   4.341   1.173  10.240  0.2420 -0.2885 -0.4281
  709TIP3    H123618   4.288   1.096  10.220  0.4771 -0.5807  0.0803
  709TIP3    H223619   4.279   1.240  10.266  0.1172 -0.5968  0.0603
  710TIP3   OH223620   0.735   5.324  13.414  0.4261  0.2161  0.2649
  710TIP3    H123621   0.681   5.388  13.367  0.6145 -0.0279 -0.2864
  710TIP3    H223622   0.814   5.373  13.439  0.8715  0.0219 -0.7477
  711TIP3   OH223623   1.767   2.947   4.899  0.3812 -0.2387  0.1977
  711TIP3    H123624   1.710   3.013   4.938 -0.7963 -0.4413 -1.1585
  711TIP3    H223625   1.708   2.878   4.871  1.5443 -1.5669  0.9731
  712TIP3   OH223626   5.210   4.693   1.180 -0.1988 -0.1019 -0.0841
  712TIP3    H123627   5.164   4.767   1.142 -2.5347 -0.7365  1.3702
  712TIP3    H223628   5.179   4.617   1.129  1.9430 -0.1575 -1.3711
  713TIP3   OH223629   3.711   1.075   0.908  0.3039 -0.3236  0.3271
  713TIP3    H123630   3.740   1.040   0.992  0.9168 -0.3741  0.1045
  713TIP3    H223631   3.677   0.999   0.861  2.6189 -0.8754 -0.5681
  714TIP3   OH223632   5.865   6.313   1.436  0.4970  0.1294  0.2462
  714TIP3    H123633   5.877   6.330   1.343 -0.8666 -3.8127 -0.7651
  714TIP3    H223634   5.921   6.237   1.454 -0.2836 -0.0036  2.3138
  715TIP3   OH223635   4.590   1.351  14.012 -0.1382  0.3852  0.6535
  715TIP3    H123636   4.582   1.373  14.105  1.3613 -0.0464  0.8980
  715TIP3    H223637   4.588   1.435  13.967 -2.0806  0.5237  0.9759
  716TIP3   OH223638   2.797   3.955  14.815 -0.0667  0.2449  0.3756
  716TIP3    H123639   2.725   3.976  14.755 -0.8987 -0.3072  1.1695
  716TIP3    H223640   2.760   3.969  14.902  0.8466  0.1086  0.7875
  717TIP3   OH223641   6.169   4.894  12.177 -0.1421 -0.2186  0.3639
  717TIP3    H123642   6.087   4.852  12.204 -0.0653  0.5733  1.9006
  717TIP3    H223643   6.236   4.826  12.191 -0.4116 -0.5764 -0.0602
  718TIP3   OH223644   1.061   1.826  14.954  0.4983 -0.0633 -0.2857
  718TIP3    H123645   1.128   1.762  14.979 -0.0072 -0.8184 -0.8605
  718TIP3    H223646   1.040   1.805  14.863  0.1454  0.7622 -0.4015
  719TIP3   OH223647   1.558   3.623  11.998  0.1233 -0.3678 -0.6222
  719TIP3    H123648   1.556   3.687  11.927 -2.2186  2.2597  1.6691
  719TIP3    H223649   1.472   3.581  11.995 -0.2127  0.1866  1.0092
  720TIP3   OH223650   1.087   0.170   6.232 -0.0937 -0.3661 -0.0422
  720TIP3    H123651   1.134   0.172   6.148 -2.4185 -1.0297 -1.4286
  720TIP3    H223652   1.133   0.105   6.284  2.2791  1.1020 -0.2315
  721TIP3   OH223653   1.019   2.949   1.907  0.2238  0.3940 -0.5408
  721TIP3    H123654   0.973   3.018   1.954  2.4607  0.6524  1.4087
  721TIP3    H223655   0.951   2.886   1.884 -1.2372  1.1777  1.4533
  722TIP3   OH223656   4.078   1.178  14.827 -0.3583  0.1672 -0.3106
  722TIP3    H123657   4.074   1.225  14.910  0.0093 -1.2761  0.5367
  722TIP3    H223658   4.139   1.106  14.843 -1.1043 -0.7436 -1.5228
  723TIP3   OH223659   4.546   0.721   3.268  0.3017 -0.5132 -0.0378
  723TIP3    H123660   4.456   0.722   3.300  0.0772 -2.3353 -0.5507
  723TIP3    H223661   4.567   0.813   3.254 -1.1141  0.0152  1.0767
  724TIP3   OH223662   1.427   4.219   1.026  0.1949 -0.2408  0.3792
  724TIP3    H123663   1.462   4.241   0.940 -2.1591  1.6987 -0.1361
  724TIP3    H223664   1.470   4.136   1.049  0.9431 -0.7433 -2.6106
  725TIP3   OH223665   0.329   1.321   2.181  0.4882 -1.0771  0.3334
  725TIP3    H123666   0.411   1.365   2.158  0.1028 -1.1677 -1.3033
  725TIP3    H223667   0.276   1.325   2.101 -0.9916 -1.2907  1.2751
  726TIP3   OH223668   1.751   2.733  13.956 -0.1538 -0.2869 -0.4476
  726TIP3    H123669   1.842   2.718  13.932  0.7669  2.7927  0.9679
  726TIP3    H223670   1.706   2.745  13.872  0.4420 -3.1498 -1.2225
  727TIP3   OH223671   2.743   5.616   0.822  0.2159 -0.2415  0.3663
  727TIP3    H123672   2.800   5.546   0.851 -0.6256 -1.0137  0.1806
  727TIP3    H223673   2.801   5.691   0.809  1.3847 -1.3528 -1.0026
  728TIP3   OH223674   6.669   3.122   5.034 -0.8434 -0.1033 -0.5126
  728TIP3    H123675   6.757   3.126   4.996 -0.1124 -2.2313  0.8760
  728TIP3    H223676   6.612   3.104   4.959  0.1812 -0.8377 -1.1330
  729TIP3   OH223677   3.518   2.730  14.840 -0.2491  0.1776 -0.5313
  729TIP3    H123678   3.537   2.651  14.791  0.0971 -0.0980  0.0408
  729TIP3    H223679   3.580   2.795  14.807  0.3783 -0.1714 -0.0519
  730TIP3   OH223680   3.197   0.921  15.910 -0.2516  0.6360  0.6715
  730TIP3    H123681   3.286   0.889  15.897 -0.8630 -0.9862  0.3496
  730TIP3    H223682   3.207   1.013  15.934  1.3954  1.0313 -1.4574
  731TIP3   OH223683   2.907   6.510   0.743  0.1984 -0.3224  0.0169
  731TIP3    H123684   2.957   6.481   0.820  0.5531 -1.2227 -0.5351
  731TIP3    H223685   2.970   6.506   0.671 -0.2271  0.1602 -0.3813
  732TIP3   OH223686   4.102   0.766   6.249 -0.3877 -0.4184 -0.3451
  732TIP3    H123687   4.048   0.734   6.321  0.8686 -0.7566  0.4490
  732TIP3    H223688   4.165   0.696   6.232  0.2175  0.2270 -0.8396
  733TIP3   OH223689   5.215   6.284   5.616 -0.3838  0.2458 -0.0147
  733TIP3    H123690   5.130   6.321   5.638 -0.4242  0.1254  0.0302
  733TIP3    H223691   5.231   6.313   5.526 -0.7527 -0.2481 -0.2403
  734TIP3   OH223692   0.991   4.822   3.897 -0.6470  0.4461 -0.0554
  734TIP3    H123693   1.069   4.767   3.892  0.4706  2.2040 -3.4663
  734TIP3    H223694   0.920   4.765   3.869 -0.2245 -0.4679  0.6866
  735TIP3   OH223695   0.385   1.942  13.238 -0.8238  0.6164  0.0573
  735TIP3    H123696   0.378   1.853  13.274 -0.2460  0.2756 -0.6744
  735TIP3    H223697   0.430   1.931  13.154  1.3676  1.8648  1.0202
  736TIP3   OH223698   4.970   0.750   2.544  0.4469  0.0457 -0.2440
  736TIP3    H123699   5.028   0.676   2.559 -0.3173 -0.6214 -0.5347
  736TIP3    H223700   4.892   0.712   2.504 -0.3649  0.8694  0.5106
  737TIP3   OH223701   4.316   2.491  14.253 -0.5870 -0.2526 -0.1494
  737TIP3    H123702   4.346   2.404  14.226  2.8351  0.6766  0.5175
  737TIP3    H223703   4.259   2.474  14.328  2.8700 -1.7336  2.2490
  738TIP3   OH223704   5.229   1.060   1.761 -0.1966 -0.0329  0.1511
  738TIP3    H123705   5.239   1.105   1.677  1.5468  1.6381  1.2157
  738TIP3    H223706   5.250   1.127   1.826  2.2228 -2.3304  1.7994
  739TIP3   OH223707   6.560   1.357  11.620 -0.2756 -0.3414 -0.0853
  739TIP3    H123708   6.464   1.356  11.628 -0.1119 -1.5330  1.9292
  739TIP3    H223709   6.586   1.443  11.653 -0.5784 -0.3487  0.1716
  740TIP3   OH223710   2.727   5.806   3.258 -0.2032 -0.0158  0.2477
  740TIP3    H123711   2.717   5.723   3.211 -4.5507 -0.2010  1.3558
  740TIP3    H223712   2.707   5.784   3.349  0.1819  1.9488  0.8293
  741TIP3   OH223713   2.919   1.702   4.297 -0.2743 -0.3249 -1.0055
  741TIP3    H123714   2.964   1.623   4.326  3.2461  2.0704  0.5333
  741TIP3    H223715   2.900   1.750   4.377 -2.9229  0.1348 -1.8762
  742TIP3   OH223716   1.139   5.111   4.170  0.0819 -0.2072  0.1463
  742TIP3    H123717   1.191   5.039   4.134  1.3941 -0.4374  2.4027
  742TIP3    H223718   1.186   5.190   4.145  1.5949 -0.4161  2.1950
  743TIP3   OH223719   4.920   4.182  16.324 -0.0692  0.7001 -0.3783
  743TIP3    H123720   4.927   4.226  16.239  1.1028  1.2758  0.0096
  743TIP3    H223721   4.851   4.117  16.311 -0.6537  1.5168 -1.4546
  744TIP3   OH223722   3.642   0.126   6.065  0.5262  0.0587  0.1033
  744TIP3    H123723   3.602   0.132   6.152  1.1670 -0.7810  0.4657
  744TIP3    H223724   3.617   0.207   6.022 -0.8471 -0.0728  0.6247
  745TIP3   OH223725   4.029   5.020   2.115  0.0473  0.3268  0.0587
  745TIP3    H123726   4.104   5.030   2.056  0.2634  0.6628  0.3855
  745TIP3    H223727   4.043   4.934   2.156  0.0880  0.2512 -0.1112
  746TIP3   OH223728   5.181   5.192  13.500  0.5117  0.1901  0.0882
  746TIP3    H123729   5.226   5.243  13.567  0.1270 -1.3487  1.5631
  746TIP3    H223730   5.250   5.142  13.457  1.2698  3.6828 -3.0797
  747TIP3   OH223731   1.050   5.626  12.359 -0.0299 -0.2394  0.1096
  747TIP3    H123732   1.104   5.591  12.430  1.3255  0.5571 -0.5110
  747TIP3    H223733   1.079   5.579  12.281 -0.4650 -0.0340 -0.1772
  748TIP3   OH223734   4.489   4.835   5.615  0.1363 -0.6711  0.5041
  748TIP3    H123735   4.406   4.872   5.584  0.8494  0.2251 -0.3630
  748TIP3    H223736   4.543   4.829   5.536  1.8116  1.1827  1.4791
  749TIP3   OH223737   1.145   1.538   1.392  0.5080  0.7940  0.4269
  749TIP3    H123738   1.196   1.576   1.463  0.7501 -1.0436  1.2755
  749TIP3    H223739   1.061   1.516   1.432  0.8981 -0.9083  0.3667
  750TIP3   OH223740   1.184   0.316   5.444  0.3028  0.0791 -0.0242
  750TIP3    H123741   1.149   0.230   5.421 -0.1400  0.6986 -1.7147
  750TIP3    H223742   1.244   0.299   5.516 -1.8605 -1.2900  1.4997
  751TIP3   OH223743   3.475   4.280   0.745  0.4990  0.1824 -0.0182
  751TIP3    H123744   3.468   4.238   0.831  2.0761  1.7753  0.9337
  751TIP3    H223745   3.535   4.224   0.696  0.0364 -0.4323  0.1102
  752TIP3   OH223746   3.345   5.321  14.420 -0.2056  0.7765 -0.7061
  752TIP3    H123747   3.334   5.400  14.367 -0.8615 -0.0202 -1.7949
  752TIP3    H223748   3.439   5.303  14.417 -0.2514  0.6535 -1.7630
  753TIP3   OH223749   5.694   0.261   5.707  0.0332  0.2121 -0.0338
  753TIP3    H123750   5.644   0.274   5.788  2.4951  1.0975  1.3897
  753TIP3    H223751   5.679   0.340   5.656 -0.4240  0.2398  0.1374
  754TIP3   OH223752   1.307   1.337  14.572 -0.0520  0.2666  0.2976
  754TIP3    H123753   1.361   1.260  14.554  0.8269  1.2566 -1.3729
  754TIP3    H223754   1.300   1.339  14.668 -1.2614 -2.6721  0.3342
  755TIP3   OH223755   5.217   5.576  15.054 -0.2218  0.6519 -0.3877
  755TIP3    H123756   5.132   5.537  15.034 -0.6221  1.0954  0.4308
  755TIP3    H223757   5.234   5.552  15.145 -0.2817  2.0313  0.0035
  756TIP3   OH223758   2.434   4.699  16.553  0.4809 -0.1746  0.0795
  756TIP3    H123759   2.365   4.642  16.589 -0.4033  0.0248 -1.2458
  756TIP3    H223760   2.444   4.669  16.462  1.6469  0.2715  0.0570
  757TIP3   OH223761   2.393   0.360   3.162  0.2067 -0.0008  0.6629
  757TIP3    H123762   2.466   0.298   3.172  0.8551  0.7284  0.4591
  757TIP3    H223763   2.392   0.380   3.069 -0.6642 -0.4986  0.5626
  758TIP3   OH223764   2.131   6.218  13.249  0.3347  0.2841 -0.3510
  758TIP3    H123765   2.220   6.227  13.282  0.6506  1.0062 -1.3512
  758TIP3    H223766   2.084   6.292  13.287 -0.0779 -0.6008  0.8940
  759TIP3   OH223767   4.027   4.739   3.276  0.0274  0.3081  0.1953
  759TIP3    H123768   3.979   4.783   3.206 -1.4151 -0.6394  0.5693
  759TIP3    H223769   4.034   4.649   3.247  0.5255  0.1860  0.6968
  760TIP3   OH223770   5.560   5.552   3.407  0.2902 -0.2107  0.4766
  760TIP3    H123771   5.493   5.532   3.342  0.1506  1.1662  0.1911
  760TIP3    H223772   5.642   5.529   3.365  0.3246  2.1820 -0.7933
  761TIP3   OH223773   4.227   0.390  16.302 -1.1326 -0.6775 -0.5124
  761TIP3    H123774   4.217   0.311  16.250 -0.2012 -1.4015  0.3808
  761TIP3    H223775   4.305   0.433  16.266 -1.6467 -0.1546 -1.0077
  762TIP3   OH223776   2.499   6.310   2.667 -0.5269  0.1394 -0.5873
  762TIP3    H123777   2.420   6.363   2.671  0.0279  0.8918  1.6441
  762TIP3    H223778   2.562   6.364   2.618 -0.1172  1.3967  1.2471
  763TIP3   OH223779   6.328   6.044   1.626 -0.3904  0.1193 -0.2014
  763TIP3    H123780   6.402   6.076   1.678 -0.9926  2.7496 -0.9099
  763TIP3    H223781   6.364   6.030   1.539 -0.5256  0.6462 -0.3466
  764TIP3   OH223782   4.076   6.541  15.550  0.1413 -0.3748 -0.3525
  764TIP3    H123783   4.004   6.542  15.613  1.0440 -1.2657  0.7164
  764TIP3    H223784   4.154   6.563  15.601  0.3056  3.2226 -1.9724
  765TIP3   OH223785   0.696   2.200  10.332  0.0275  0.3740  0.2886
  765TIP3    H123786   0.694   2.111  10.298  0.0462  0.3138  0.4474
  765TIP3    H223787   0.765   2.200  10.398  0.5275  0.6911 -0.2299
  766TIP3   OH223788   5.470   2.365   3.910 -0.3784  0.8605  0.3003
  766TIP3    H123789   5.562   2.360   3.885 -0.3973  2.3292 -0.0990
  766TIP3    H223790   5.469   2.427   3.984 -0.5237 -2.1883  2.9723
  767TIP3   OH223791   3.526   2.723  11.792  0.1341  1.0768 -0.0590
  767TIP3    H123792   3.614   2.717  11.829 -0.3803  0.5961  1.1343
  767TIP3    H223793   3.495   2.809  11.819 -0.0231  0.9613  0.1326
  768TIP3   OH223794   0.013   6.081  17.205  0.2337  0.1670 -0.4070
  768TIP3    H123795   0.027   6.155  17.146  1.6584 -0.8287 -1.3581
  768TIP3    H223796   0.011   6.004  17.147  0.5025 -0.7069  0.7274
  769TIP3   OH223797   3.318   5.969  14.958  0.0973  0.1172 -0.0709
  769TIP3    H123798   3.297   6.044  14.902  0.6051  2.6921  2.9893
  769TIP3    H223799   3.403   5.991  14.996 -0.3339 -1.4106  1.8725
  770TIP3   OH223800   1.873   5.366   2.262 -0.3618  0.3115  0.3029
  770TIP3    H123801   1.788   5.349   2.302  0.0835  0.0024  1.1400
  770TIP3    H223802   1.917   5.281   2.260 -0.2338  0.3964 -0.5011
  771TIP3   OH223803   6.724   4.632  11.567  0.0003 -0.1822 -0.2530
  771TIP3    H123804   6.784   4.601  11.635 -0.7416  0.3930  0.6680
  771TIP3    H223805   6.760   4.717  11.541 -0.6656  0.3932  0.6504
  772TIP3   OH223806   1.738   3.596   4.932 -0.0037  0.3997 -0.3467
  772TIP3    H123807   1.715   3.537   5.005 -2.0574 -1.3399 -2.3073
  772TIP3    H223808   1.655   3.638   4.909  0.3967  0.1428 -2.3233
  773TIP3   OH223809   6.177   1.808  16.837  0.0176 -0.1057 -0.0672
  773TIP3    H123810   6.199   1.752  16.763  0.9840  0.3341 -0.1172
  773TIP3    H223811   6.192   1.897  16.806  1.1765  0.0528  0.8718
  774TIP3   OH223812   3.803   2.705   2.481  0.2419 -0.3505 -0.1873
  774TIP3    H123813   3.884   2.669   2.444  0.5308 -0.2711  0.3750
  774TIP3    H223814   3.745   2.712   2.405  0.7976 -0.2925 -0.6193
  775TIP3   OH223815   4.810   2.074   0.718 -0.3833 -0.2858  0.3670
  775TIP3    H123816   4.850   2.114   0.641 -0.2408 -0.1064  0.5321
  775TIP3    H223817   4.805   2.146   0.782 -2.4877  0.1210 -0.2189
  776TIP3   OH223818   0.931   6.555   5.359 -0.2926  0.1655 -0.4173
  776TIP3    H123819   0.913   6.485   5.296 -0.1767  2.2410 -2.8424
  776TIP3    H223820   0.894   6.633   5.318  1.8319  1.9719  1.0390
  777TIP3   OH223821   6.381   3.571   6.539  0.3419 -0.0407  0.3396
  777TIP3    H123822   6.292   3.596   6.565  0.4247 -1.1321  1.7053
  777TIP3    H223823   6.423   3.654   6.514 -0.5932  0.6686  1.0894
  778TIP3   OH223824   1.124   1.320  15.360  0.5056  0.6007  0.5205
  778TIP3    H123825   1.200   1.309  15.303  0.3682  0.6237  0.3341
  778TIP3    H223826   1.086   1.404  15.333  0.4738  0.6408  0.6861
  779TIP3   OH223827   1.849   6.713   0.946 -0.2301  0.1236 -0.0879
  779TIP3    H123828   1.917   6.658   0.984  0.8916  1.9354  0.5822
  779TIP3    H223829   1.894   6.766   0.881 -1.0808  1.0311  0.0379
  780TIP3   OH223830   6.205   4.570  14.063 -0.1214 -0.4630 -0.2265
  780TIP3    H123831   6.156   4.553  14.144 -0.8191 -1.8109 -0.9178
  780TIP3    H223832   6.173   4.654  14.032 -1.1048 -0.7580 -0.0137
  781TIP3   OH223833   5.460   5.340   4.512 -0.4297 -0.4667 -0.4395
  781TIP3    H123834   5.520   5.370   4.444 -0.9687 -0.0743 -0.7433
  781TIP3    H223835   5.467   5.406   4.581 -0.9715 -0.0972 -0.7383
  782TIP3   OH223836   3.912   4.333   1.383  0.0937  0.0563  0.3085
  782TIP3    H123837   3.962   4.345   1.301  1.3001  0.4885  1.0919
  782TIP3    H223838   3.954   4.393   1.445  0.5207 -1.8007  1.8356
  783TIP3   OH223839   3.900   6.477  11.943  0.0040  0.1100  0.6446
  783TIP3    H123840   3.922   6.490  11.850 -1.8177  1.5041  0.3786
  783TIP3    H223841   3.818   6.524  11.954  0.4653  0.3771  3.1107
  784TIP3   OH223842   4.597   2.872  11.366 -0.1271 -0.1624  0.4014
  784TIP3    H123843   4.635   2.958  11.387  0.9148 -0.2240 -1.1887
  784TIP3    H223844   4.620   2.857  11.274 -1.2621 -1.6522  0.3421
  785TIP3   OH223845   5.953   3.507   0.052  0.7252 -0.3033  0.3762
  785TIP3    H123846   5.959   3.538  -0.039 -1.1833 -0.1723  0.2826
  785TIP3    H223847   6.040   3.472   0.071  1.5316  0.8481 -1.0763
  786TIP3   OH223848   2.456   1.294  12.840 -0.2658 -0.0647  0.4164
  786TIP3    H123849   2.374   1.318  12.883 -1.1230  0.5782 -1.5022
  786TIP3    H223850   2.523   1.342  12.889 -1.1522  0.2622  1.3390
  787TIP3   OH223851   4.520   2.461   4.333 -0.1255  0.4967  0.3273
  787TIP3    H123852   4.578   2.506   4.395 -0.0697 -1.2802  1.5941
  787TIP3    H223853   4.578   2.427   4.266 -0.0404  1.2638  0.0017
  788TIP3   OH223854   0.896   1.390   4.837 -0.1746 -0.2416 -0.7188
  788TIP3    H123855   0.950   1.465   4.812 -0.9287  1.1495  1.6152
  788TIP3    H223856   0.806   1.419   4.823 -0.5327 -0.0798  1.7116
  789TIP3   OH223857   5.126   2.856  15.909 -0.0104 -0.1471  0.2136
  789TIP3    H123858   5.149   2.766  15.886  0.1505  0.3650 -1.7415
  789TIP3    H223859   5.049   2.848  15.965  0.1104 -1.5025  0.1993
  790TIP3   OH223860   1.055   2.472  13.680 -0.1022 -0.0446 -0.4129
  790TIP3    H123861   0.963   2.450  13.668 -0.1431  1.2103 -2.5547
  790TIP3    H223862   1.057   2.567  13.685  0.7262 -0.1674  3.0281
  791TIP3   OH223863   0.728   0.517  14.792 -0.2128  0.1362 -0.3331
  791TIP3    H123864   0.742   0.459  14.867 -1.2840  0.4191  0.0872
  791TIP3    H223865   0.807   0.505  14.738  0.0821 -0.8639  0.3021
  792TIP3   OH223866   3.669   5.338  13.025  0.5065  0.3630 -0.0292
  792TIP3    H123867   3.670   5.349  13.120 -0.4681  3.4216 -0.2928
  792TIP3    H223868   3.583   5.300  13.006  0.4583  0.3291  0.2601
  793TIP3   OH223869   4.344   1.841  12.807  0.2188  0.3990 -0.9383
  793TIP3    H123870   4.248   1.845  12.808  0.1085 -1.5510  0.9387
  793TIP3    H223871   4.364   1.750  12.784  1.5186 -0.1539  2.1385
  794TIP3   OH223872   2.029   2.411  15.645  0.1797  0.7063 -0.0297
  794TIP3    H123873   2.038   2.317  15.661  0.6928  0.7145 -0.2669
  794TIP3    H223874   2.074   2.425  15.562 -1.7295  0.7987 -1.0870
  795TIP3   OH223875   2.869   4.194   0.391  0.5988 -0.6282  0.2539
  795TIP3    H123876   2.925   4.134   0.441  0.2243 -1.4931 -0.3351
  795TIP3    H223877   2.878   4.278   0.435  1.7390 -0.9429  0.6481
  796TIP3   OH223878   1.572   2.596   1.464  0.0960 -0.0171 -0.2053
  796TIP3    H123879   1.554   2.681   1.503 -0.6832  0.5059 -1.6842
  796TIP3    H223880   1.663   2.577   1.489 -0.0556  0.7757  0.9621
  797TIP3   OH223881   3.093   0.952   3.543  0.0754 -0.9394 -0.0048
  797TIP3    H123882   3.004   0.924   3.524 -0.5618  0.2323  1.1613
  797TIP3    H223883   3.083   1.020   3.610  1.8267 -0.6695  0.0075
  798TIP3   OH223884   4.013   4.882   5.861 -0.0831  0.3011 -0.0714
  798TIP3    H123885   4.005   4.807   5.803  2.0497 -0.6305  0.7932
  798TIP3    H223886   3.942   4.871   5.925  0.6654 -1.4134  0.4997
  799TIP3   OH223887   2.961   3.055  15.965 -0.2882  0.7400  0.6891
  799TIP3    H123888   3.043   3.105  15.960 -0.7541  1.5310  0.9031
  799TIP3    H223889   2.925   3.078  16.051 -0.0354 -0.7050  1.1888
  800TIP3   OH223890   3.478   5.156  15.182 -0.1881 -0.4146  0.0604
  800TIP3    H123891   3.469   5.198  15.268 -1.0389 -0.5245  0.0320
  800TIP3    H223892   3.421   5.206  15.125  1.1325  0.2751 -0.6803
  801TIP3   OH223893   4.635   0.488  14.865  0.3562  0.0573  0.1416
  801TIP3    H123894   4.611   0.397  14.846 -0.1355  0.2829 -0.3198
  801TIP3    H223895   4.653   0.526  14.779 -1.7168  1.0379  0.1169
  802TIP3   OH223896   0.211   5.067   3.022 -0.0546  0.2887  0.3976
  802TIP3    H123897   0.302   5.041   3.032  0.0261 -0.2926 -1.5862
  802TIP3    H223898   0.214   5.144   2.965 -0.8365 -0.1473 -0.2548
  803TIP3   OH223899   3.218   0.717   5.555  0.1736  0.1212 -0.1569
  803TIP3    H123900   3.310   0.718   5.528 -0.2173 -0.4212 -1.5237
  803TIP3    H223901   3.190   0.808   5.547  0.6348  0.3172  0.4208
  804TIP3   OH223902   2.532   3.052  15.362 -0.4863  0.5419  0.5027
  804TIP3    H123903   2.487   3.031  15.444 -1.9599 -0.5807 -0.5518
  804TIP3    H223904   2.476   3.118  15.320 -0.7355 -0.2394 -0.4276
  805TIP3   OH223905   5.716   4.098   1.242 -0.3289  0.0988 -0.7288
  805TIP3    H123906   5.724   4.029   1.177  1.2373 -0.0918 -0.3564
  805TIP3    H223907   5.807   4.125   1.261 -0.8231  1.0622  0.3841
  806TIP3   OH223908   3.661   3.454   2.769  0.0342  0.1062 -0.0009
  806TIP3    H123909   3.726   3.521   2.749  0.1826  0.3074  1.1005
  806TIP3    H223910   3.663   3.447   2.865 -1.2718 -0.1623  0.0190
  807TIP3   OH223911   0.846   6.161   4.501  0.7986  0.1539 -0.5333
  807TIP3    H123912   0.757   6.141   4.531  0.8249 -0.3356 -0.7776
  807TIP3    H223913   0.863   6.098   4.432  2.1633 -1.2321  1.0160
  808TIP3   OH223914   2.252   2.307   0.055  0.0713 -0.0525 -0.2953
  808TIP3    H123915   2.305   2.302  -0.025  1.5441  0.6839  0.6122
  808TIP3    H223916   2.199   2.227   0.054  1.0181 -0.6795 -1.3453
  809TIP3   OH223917   3.628   4.038   6.040 -0.1063 -0.5455  0.1801
  809TIP3    H123918   3.603   3.963   6.093 -2.9117 -0.6392 -1.1862
  809TIP3    H223919   3.549   4.061   5.992  1.2678  2.0190 -0.9660
  810TIP3   OH223920   5.470   5.463  16.061  0.4409 -0.0461  0.0870
  810TIP3    H123921   5.541   5.524  16.041 -0.6925  1.4594  0.5746
  810TIP3    H223922   5.436   5.437  15.976  1.0637 -0.1616 -0.1294
  811TIP3   OH223923   3.424   3.974  12.868 -0.3180 -0.6021 -0.5331
  811TIP3    H123924   3.416   4.012  12.956  1.3705 -1.6734  0.0962
  811TIP3    H223925   3.338   3.989  12.828 -1.7898 -1.9033  2.0213
  812TIP3   OH223926   0.294   6.622   2.157  0.1093 -0.0323  0.1542
  812TIP3    H123927   0.256   6.629   2.244  1.4564 -0.7330  0.8122
  812TIP3    H223928   0.365   6.558   2.166  1.3809  1.1687 -1.0541
  813TIP3   OH223929   0.380   3.291   5.668 -0.3927 -0.1567 -0.1642
  813TIP3    H123930   0.296   3.321   5.634 -0.5705  0.0938  0.4900
  813TIP3    H223931   0.403   3.215   5.614 -0.3899  0.5887 -1.2166
  814TIP3   OH223932   1.187   1.987  11.508  0.4130 -0.5923 -0.2231
  814TIP3    H123933   1.261   1.927  11.506  0.8607 -0.0116 -1.0090
  814TIP3    H223934   1.113   1.935  11.478  0.4763 -1.1957  0.6465
  815TIP3   OH223935   5.034   3.217   5.620  0.1757 -1.0488  0.3972
  815TIP3    H123936   5.099   3.258   5.563 -0.6561  1.2204  1.0424
  815TIP3    H223937   4.981   3.163   5.561  1.5517 -1.5724 -0.3894
  816TIP3   OH223938   6.521   0.497   1.222 -0.1396  0.0272 -0.0851
  816TIP3    H123939   6.427   0.479   1.219 -0.1188  0.1347 -1.8751
  816TIP3    H223940   6.533   0.548   1.302 -1.4275 -0.9640  0.7690
  817TIP3   OH223941   1.203   0.320  14.444 -0.0104 -0.1725 -0.1550
  817TIP3    H123942   1.110   0.327  14.468  0.6029 -1.0388  2.6237
  817TIP3    H223943   1.250   0.353  14.520  1.9948 -0.1566 -1.3764
  818TIP3   OH223944   3.623   2.273   0.682  0.0152 -0.5164 -0.2368
  818TIP3    H123945   3.610   2.280   0.776  0.2886 -1.0676 -0.1568
  818TIP3    H223946   3.602   2.182   0.661  0.2564 -0.4772 -0.6597
  819TIP3   OH223947   4.581   3.293  15.848  0.6580 -0.2310  1.0287
  819TIP3    H123948   4.674   3.301  15.826  0.5388 -0.4851  0.4239
  819TIP3    H223949   4.558   3.377  15.886  0.7877  0.3466 -0.1344
  820TIP3   OH223950   5.325   4.560   0.238  0.0014  0.2560  0.1650
  820TIP3    H123951   5.292   4.645   0.269  0.2939 -0.0578  1.3758
  820TIP3    H223952   5.393   4.583   0.175  0.3291  0.9293  0.7510
  821TIP3   OH223953   2.477   2.668   2.661 -0.1701 -0.4696 -0.6298
  821TIP3    H123954   2.407   2.681   2.725  0.0353  0.3817 -0.5708
  821TIP3    H223955   2.557   2.690   2.709  0.3264 -3.0917 -0.1749
  822TIP3   OH223956   3.795   0.634   1.674  0.6642 -0.4177 -0.4163
  822TIP3    H123957   3.876   0.682   1.688  0.5862 -0.6777  0.9229
  822TIP3    H223958   3.726   0.693   1.705  0.5384 -1.2144  0.8605
  823TIP3   OH223959   4.623   5.760   4.155  0.3075  0.5299  0.0078
  823TIP3    H123960   4.551   5.814   4.187  0.5456  0.7229  0.2219
  823TIP3    H223961   4.618   5.680   4.206  1.5291  1.3853  1.5242
  824TIP3   OH223962   4.453   4.641  11.619  0.3219  0.0417 -0.4482
  824TIP3    H123963   4.361   4.631  11.595  0.2050 -0.1784  0.0840
  824TIP3    H223964   4.463   4.587  11.698  0.6789  0.8334  0.0479
  825TIP3   OH223965   0.124   0.718   5.722  0.4806  0.1978  0.4492
  825TIP3    H123966   0.160   0.785   5.780  1.7030  0.2970 -0.3899
  825TIP3    H223967   0.029   0.726   5.731  0.6426  0.5645  2.0153
  826TIP3   OH223968   0.548   3.363  10.655  0.0433 -0.8615 -0.2316
  826TIP3    H123969   0.541   3.274  10.622  0.4925 -0.8210 -0.4522
  826TIP3    H223970   0.479   3.411  10.609 -0.8899 -1.3219  0.6848
  827TIP3   OH223971   1.760   3.581  11.640  0.0125  0.0166  0.0657
  827TIP3    H123972   1.747   3.551  11.550 -1.2538  1.9318 -0.4221
  827TIP3    H223973   1.764   3.677  11.633 -0.1911  0.1886  2.0486
  828TIP3   OH223974   5.496   2.206   1.147 -0.3341 -0.0491 -0.4039
  828TIP3    H123975   5.508   2.184   1.239 -0.5508  1.5478  0.0107
  828TIP3    H223976   5.448   2.131   1.111 -0.5839 -0.5026  0.8579
  829TIP3   OH223977   1.324   2.566   2.496  0.1723 -0.2380  0.2046
  829TIP3    H123978   1.340   2.651   2.456  2.6861  0.1195  1.8487
  829TIP3    H223979   1.236   2.574   2.535  0.4298  1.6588  0.4500
  830TIP3   OH223980   4.630   6.289   0.079  0.1182  0.3802  0.7320
  830TIP3    H123981   4.560   6.342   0.041 -1.2002 -1.6668  0.2670
  830TIP3    H223982   4.701   6.293   0.014 -1.6736 -2.1209 -1.4431
  831TIP3   OH223983   0.789   3.053  11.264  0.0955  0.3469 -0.6444
  831TIP3    H123984   0.846   2.978  11.248  3.4060  2.0061  2.6486
  831TIP3    H223985   0.823   3.121  11.206  0.5658  0.9211  0.3025
  832TIP3   OH223986   3.602   1.035   1.543  0.2167 -0.6448 -0.1544
  832TIP3    H123987   3.685   0.998   1.511  0.4936 -0.6633  0.5740
  832TIP3    H223988   3.628   1.098   1.610 -0.3982 -1.3692  0.7874
  833TIP3   OH223989   5.831   5.708   0.671  0.0786  0.0870  0.5080
  833TIP3    H123990   5.826   5.615   0.648  0.7949 -0.5627  2.8206
  833TIP3    H223991   5.748   5.744   0.641 -1.1534 -1.7809  1.5537
  834TIP3   OH223992   6.111   5.163   3.891 -0.4590  0.4960 -0.4271
  834TIP3    H123993   6.145   5.092   3.946 -0.0035  0.6036 -0.5737
  834TIP3    H223994   6.043   5.121   3.838  0.5377 -0.0739 -1.2716
  835TIP3   OH223995   1.525   1.642   2.401  0.2960  0.4651 -0.4394
  835TIP3    H123996   1.556   1.557   2.433  2.5501  1.4999  0.2330
  835TIP3    H223997   1.542   1.641   2.307 -0.6142 -0.2133 -0.5965
  836TIP3   OH223998   2.169   5.289  13.943  0.0691 -0.1484  0.4388
  836TIP3    H123999   2.104   5.219  13.939  0.8530 -0.8554 -0.1822
  836TIP3    H224000   2.131   5.354  14.002 -0.2409 -1.5245  1.7731
  837TIP3   OH224001   5.473   1.550   5.967 -0.0826 -0.0503 -0.0696
  837TIP3    H124002   5.523   1.611   6.021  0.3631 -1.2789  0.9291
  837TIP3    H224003   5.515   1.466   5.981 -1.7159 -0.8930 -0.1395
  838TIP3   OH224004   5.754   5.725   4.056  0.2888 -0.0501  0.1823
  838TIP3    H124005   5.826   5.677   4.015 -0.2941 -0.9494  0.1938
  838TIP3    H224006   5.741   5.801   4.000 -1.2332 -1.8319 -1.9538
  839TIP3   OH224007   0.160   6.789   4.696  0.4188 -0.3541 -0.2718
  839TIP3    H124008   0.250   6.784   4.663  0.1947 -0.0847 -0.9447
  839TIP3    H224009   0.142   6.702   4.730  0.9288 -0.4183 -0.1554
  840TIP3   OH224010   4.940   5.777  15.220 -0.7386 -0.0373  0.1519
  840TIP3    H124011   4.969   5.860  15.259 -0.6903  0.1871 -0.3610
  840TIP3    H224012   4.976   5.710  15.278  1.1913  0.2278 -0.7205
  841TIP3   OH224013   1.047   6.651   3.929 -0.0118 -0.2149 -0.5658
  841TIP3    H124014   1.125   6.689   3.887  0.3789 -1.0295 -0.5905
  841TIP3    H224015   1.072   6.641   4.021 -0.5608  0.7572 -0.3065
  842TIP3   OH224016   4.024   0.859  16.150  0.5275  0.6935 -0.6418
  842TIP3    H124017   3.932   0.842  16.128  0.3297  1.3504 -0.3018
  842TIP3    H224018   4.038   0.810  16.231 -0.4682  3.3451  1.1825
  843TIP3   OH224019   2.490   0.584  14.899  0.7823  0.7985 -0.1566
  843TIP3    H124020   2.495   0.645  14.972 -2.2147 -0.0278  0.7881
  843TIP3    H224021   2.414   0.613  14.848  1.0270 -0.4457 -1.2666
  844TIP3   OH224022   4.308   0.078  12.659 -0.5474  0.1132 -0.3857
  844TIP3    H124023   4.266   0.155  12.621  0.1619  0.5989 -0.2099
  844TIP3    H224024   4.395   0.109  12.686  0.1535 -1.0096 -1.2803
  845TIP3   OH224025   4.067   3.591   0.803  0.1404  0.5422  0.1621
  845TIP3    H124026   4.131   3.639   0.749  1.0623 -0.0184  0.7346
  845TIP3    H224027   4.077   3.500   0.776  1.6593  0.0549  2.2974
  846TIP3   OH224028   6.670   2.434   4.954  0.9481 -0.0022 -0.3151
  846TIP3    H124029   6.740   2.476   5.005  1.0676 -0.0666 -0.4269
  846TIP3    H224030   6.716   2.385   4.886  0.7537  1.2632 -1.3955
  847TIP3   OH224031   2.193   0.303   0.903  0.3998 -0.2090  0.3824
  847TIP3    H124032   2.233   0.333   0.985  0.2583  1.9496 -0.3093
  847TIP3    H224033   2.144   0.378   0.871 -0.2995 -1.3234 -1.2304
  848TIP3   OH224034   0.985   0.844  13.873 -0.1023 -0.0159 -0.3175
  848TIP3    H124035   0.974   0.912  13.939  1.0879 -0.7753  0.7038
  848TIP3    H224036   1.058   0.875  13.818 -0.4407  0.1558 -0.6710
  849TIP3   OH224037   3.723   1.009  16.109  0.3027 -0.1301 -0.2211
  849TIP3    H124038   3.666   1.081  16.136 -0.3812 -0.5330 -0.5685
  849TIP3    H224039   3.755   1.034  16.023  1.0531  0.3176  0.1758
  850TIP3   OH224040   5.264   0.192   3.246 -0.5976  0.4317 -0.1880
  850TIP3    H124041   5.188   0.133   3.247  0.6536 -1.2778 -2.2391
  850TIP3    H224042   5.320   0.160   3.317 -0.0083 -0.7924 -1.1778
  851TIP3   OH224043   2.075   1.179  14.476 -0.5318  0.5333  0.2474
  851TIP3    H124044   2.086   1.118  14.404 -1.8059 -0.2848  0.7134
  851TIP3    H224045   2.162   1.214  14.492 -0.0519 -0.0773 -0.9805
  852TIP3   OH224046   1.033   6.458  16.528 -0.5049  0.8595  0.1141
  852TIP3    H124047   0.984   6.524  16.478 -1.9521  0.0203  0.3833
  852TIP3    H224048   0.970   6.388  16.543  0.9648 -0.5046  0.0179
  853TIP3   OH224049   0.793   2.126  16.097 -0.4545  0.6006 -0.0032
  853TIP3    H124050   0.861   2.109  16.162 -0.4835  0.6651  0.0464
  853TIP3    H224051   0.806   2.217  16.071 -0.0728  0.3931 -0.5331
  854TIP3   OH224052   5.633   5.663  12.088  0.3925  0.6459  0.1055
  854TIP3    H124053   5.550   5.681  12.045  1.2729  0.9315 -1.5418
  854TIP3    H224054   5.631   5.568  12.105 -0.3735  0.6977  0.3151
  855TIP3   OH224055   4.657   3.187  12.936 -0.9287  0.5903 -0.1788
  855TIP3    H124056   4.738   3.238  12.931 -0.5734  0.2477  1.7589
  855TIP3    H224057   4.683   3.105  12.978 -2.0668 -0.0007 -0.6065
  856TIP3   OH224058   6.469   0.264  14.427  0.1380  0.3982 -0.2404
  856TIP3    H124059   6.422   0.186  14.396 -1.0797  0.6859  0.8343
  856TIP3    H224060   6.451   0.267  14.521  1.2117  1.2869 -0.0565
  857TIP3   OH224061   1.919   3.331   3.757  0.0921 -0.6677 -0.1982
  857TIP3    H124062   1.965   3.260   3.711  1.6870  0.1135  0.1336
  857TIP3    H224063   1.969   3.342   3.838 -2.2767 -1.5646  1.4404
  858TIP3   OH224064   2.321   1.648  11.618  0.2051 -0.0053  0.0280
  858TIP3    H124065   2.347   1.694  11.538  2.0888 -0.7219  0.1962
  858TIP3    H224066   2.327   1.555  11.595  0.9341 -0.2151  1.0399
  859TIP3   OH224067   2.491   3.167   1.628 -0.2781  0.0781 -0.3954
  859TIP3    H124068   2.485   3.098   1.561  0.2138  0.3975 -0.7765
  859TIP3    H224069   2.418   3.150   1.687  0.1732 -1.1128 -0.1685
  860TIP3   OH224070   4.652   5.169  13.856 -0.1648 -0.1400 -0.2716
  860TIP3    H124071   4.706   5.214  13.791  0.9427  0.4932  1.0550
  860TIP3    H224072   4.646   5.231  13.929 -1.2004 -0.9273  0.3238
  861TIP3   OH224073   2.839   3.024  17.273  0.4316  0.0376 -0.3237
  861TIP3    H124074   2.882   2.979  17.346  0.1826 -1.1503 -0.8931
  861TIP3    H224075   2.910   3.057  17.219  0.6178  0.5641  0.2406
  862TIP3   OH224076   3.536   6.384   2.359 -0.0590 -0.2573 -0.0701
  862TIP3    H124077   3.465   6.358   2.300  0.3816  2.3626 -1.8143
  862TIP3    H224078   3.544   6.478   2.346  3.7358 -0.5158  0.0959
  863TIP3   OH224079   2.839   4.225  12.975 -0.0716  0.1060 -0.3262
  863TIP3    H124080   2.848   4.272  12.892 -3.7835 -1.5720 -1.7892
  863TIP3    H224081   2.815   4.293  13.038  2.5947  1.3690 -0.5791
  864TIP3   OH224082   4.476   4.207  13.849 -0.4980 -0.2818  0.3816
  864TIP3    H124083   4.524   4.154  13.786  1.2352  0.8852  0.6859
  864TIP3    H224084   4.432   4.274  13.797  0.1963  0.1305  0.3223
  865TIP3   OH224085   0.242   3.799  11.109 -0.0410 -0.4213 -0.5014
  865TIP3    H124086   0.177   3.729  11.102 -0.3269  0.0194 -2.5694
  865TIP3    H224087   0.223   3.857  11.035  1.1878  1.0002  0.2700
  866TIP3   OH224088   6.112   5.579  12.077  0.6058  0.1525  0.2264
  866TIP3    H124089   6.145   5.532  12.154  0.0222 -0.2466  0.2319
  866TIP3    H224090   6.043   5.635  12.111 -0.2104 -0.6264 -0.1312
  867TIP3   OH224091   0.110   3.974   1.803 -0.2404 -0.4465 -0.2326
  867TIP3    H124092   0.171   4.047   1.805 -0.6655 -0.0013 -2.6314
  867TIP3    H224093   0.026   4.013   1.828 -0.1954 -0.4167 -0.1253
  868TIP3   OH224094   3.808   4.867  11.531 -0.2034  0.7364 -0.1757
  868TIP3    H124095   3.864   4.805  11.485 -0.9466  0.3158 -0.5069
  868TIP3    H224096   3.754   4.814  11.589  0.3374  1.2159  0.7870
  869TIP3   OH224097   4.489   2.620   6.096 -0.2952  0.0431  0.5944
  869TIP3    H124098   4.574   2.640   6.136 -0.4112 -0.1952  0.9596
  869TIP3    H224099   4.430   2.687   6.132 -0.4575 -0.3324  1.0244
  870TIP3   OH224100   5.933   1.225  17.250 -0.7011  0.5847  0.1230
  870TIP3    H124101   5.953   1.256  17.161  0.3604 -0.5803 -0.0502
  870TIP3    H224102   6.005   1.167  17.272 -3.1361 -2.6401  0.0325
  871TIP3   OH224103   1.866   4.890  15.025  0.2621  0.0284  0.2510
  871TIP3    H124104   1.830   4.900  14.937 -1.1192 -2.6645  0.4594
  871TIP3    H224105   1.871   4.796  15.039 -0.3177  0.3797  3.3610
  872TIP3   OH224106   1.675   5.219   4.204 -0.5898 -0.4537 -0.3908
  872TIP3    H124107   1.704   5.289   4.146 -0.2286 -1.0981 -0.9895
  872TIP3    H224108   1.755   5.187   4.245 -1.0195  1.1866  1.8342
  873TIP3   OH224109   1.295   6.475  12.517  0.4436 -0.6855  0.4911
  873TIP3    H124110   1.267   6.566  12.512 -2.4480 -1.5902 -1.0283
  873TIP3    H224111   1.251   6.440  12.595 -3.9800 -2.4405 -2.5962
  874TIP3   OH224112   0.526   2.613   0.063  0.2523 -0.8909 -0.3764
  874TIP3    H124113   0.474   2.648  -0.009  0.2982  0.1749  0.1018
  874TIP3    H224114   0.610   2.590   0.023  1.0747  1.7869 -0.2485
  875TIP3   OH224115   6.146   2.196   1.961  0.4423 -0.2521  0.2498
  875TIP3    H124116   6.054   2.218   1.977  0.6285  1.5654 -0.9611
  875TIP3    H224117   6.177   2.160   2.043 -1.4982 -1.3485  0.5189
  876TIP3   OH224118   1.804   1.355  16.306 -0.0682  0.7737 -0.7090
  876TIP3    H124119   1.749   1.352  16.227  0.1624 -2.0375 -0.8187
  876TIP3    H224120   1.779   1.277  16.355  1.8862  0.9556  0.6051
  877TIP3   OH224121   0.588   0.224  11.734 -0.2604  0.5266  0.3437
  877TIP3    H124122   0.537   0.166  11.790 -1.1159 -0.0625 -1.0073
  877TIP3    H224123   0.525   0.257  11.670  0.7312  0.9851 -0.4087
  878TIP3   OH224124   1.988   1.261  14.839  0.0143 -0.0557 -0.8532
  878TIP3    H124125   1.966   1.352  14.821  2.0689  0.7459  0.3987
  878TIP3    H224126   2.081   1.255  14.818  0.7013 -0.9858  2.1281
  879TIP3   OH224127   0.616   5.616   4.706  0.2643 -0.1278  0.1972
  879TIP3    H124128   0.588   5.525   4.710  1.1371 -0.4192 -0.2233
  879TIP3    H224129   0.606   5.641   4.614 -0.2006  0.2804  0.3532
  880TIP3   OH224130   0.999   3.267  16.942  0.4358 -0.0608 -0.1831
  880TIP3    H124131   0.967   3.309  17.021 -1.0832  1.0893 -1.3856
  880TIP3    H224132   0.930   3.206  16.917  0.5835  0.1060 -1.0212
  881TIP3   OH224133   3.236   0.250  14.038 -0.3003  0.0416  0.1462
  881TIP3    H124134   3.271   0.271  13.952 -0.5558 -1.1887 -0.2604
  881TIP3    H224135   3.300   0.288  14.099  0.4971 -0.1136 -0.5798
  882TIP3   OH224136   3.220   4.544   0.074  0.3590 -0.3007 -0.2034
  882TIP3    H124137   3.160   4.485   0.118  0.0806 -0.7168 -1.1213
  882TIP3    H224138   3.172   4.628   0.070 -0.6121 -0.8940 -1.8441
  883TIP3   OH224139   3.446   5.577  17.133  0.1279 -0.0860  0.1440
  883TIP3    H124140   3.445   5.495  17.182  1.8363  0.3311  0.8891
  883TIP3    H224141   3.511   5.631  17.177 -0.8432  1.6157 -0.4552
  884TIP3   OH224142   0.652   0.459   3.993  0.0671 -0.5374  0.4300
  884TIP3    H124143   0.712   0.514   4.043  0.4300  0.1418 -0.7486
  884TIP3    H224144   0.699   0.376   3.982  0.8335  0.0310 -0.5842
  885TIP3   OH224145   3.495   4.224   5.023 -0.6592 -0.2505 -0.1327
  885TIP3    H124146   3.516   4.186   5.108 -1.1222  2.0386  1.0443
  885TIP3    H224147   3.525   4.314   5.029 -2.2249  0.4210 -1.7937
  886TIP3   OH224148   0.899   0.923   2.459 -0.4347 -0.2509  0.4557
  886TIP3    H124149   0.957   0.998   2.447 -2.0200  0.6585 -2.0170
  886TIP3    H224150   0.941   0.852   2.411  0.7432 -0.8022  2.2583
  887TIP3   OH224151   4.379   5.956  15.845 -0.0297 -0.2543  0.2004
  887TIP3    H124152   4.435   5.970  15.769 -2.1442 -0.1001 -1.3563
  887TIP3    H224153   4.302   6.010  15.829 -1.3134 -1.6145  1.5688
  888TIP3   OH224154   5.547   5.049  14.514 -0.0200  0.5252  0.2748
  888TIP3    H124155   5.611   4.989  14.475  0.1863  1.5346 -0.9702
  888TIP3    H224156   5.600   5.110  14.566 -0.1833 -0.0568  1.1262
  889TIP3   OH224157   6.219   4.719  17.264  0.4656  0.2569 -0.1602
  889TIP3    H124158   6.172   4.787  17.215 -2.5273 -1.6620 -0.0166
  889TIP3    H224159   6.249   4.764  17.343  0.4159  1.9432 -1.0667
  890TIP3   OH224160   0.829   2.521  15.246 -0.6050 -0.3305 -0.0394
  890TIP3    H124161   0.854   2.521  15.153 -1.6317 -1.0932 -0.3194
  890TIP3    H224162   0.912   2.535  15.293 -0.3423  2.1810 -1.1337
  891TIP3   OH224163   5.353   1.690  13.447  0.1325 -0.4180  0.0362
  891TIP3    H124164   5.335   1.663  13.537  0.8744 -1.0525  0.0017
  891TIP3    H224165   5.435   1.740  13.453  1.4679 -2.4823 -0.6088
  892TIP3   OH224166   5.160   2.134   0.362  0.0828  0.4464 -0.2570
  892TIP3    H124167   5.091   2.115   0.299 -1.3060  1.8217  0.8128
  892TIP3    H224168   5.179   2.227   0.350  3.6918 -0.4669 -2.3997
  893TIP3   OH224169   0.723   1.936   5.781  0.3019 -0.0232 -0.0660
  893TIP3    H124170   0.810   1.896   5.775 -0.6105 -2.3627  1.6331
  893TIP3    H224171   0.663   1.866   5.758 -1.2577  1.0195  0.7839
  894TIP3   OH224172   0.516   5.443  11.563  0.4636  0.2700  0.4808
  894TIP3    H124173   0.498   5.493  11.483 -0.7282 -1.9417 -0.6852
  894TIP3    H224174   0.567   5.503  11.618 -2.6227  3.4774  0.0066
  895TIP3   OH224175   0.119   0.188   5.675 -0.0522 -0.2598  0.3313
  895TIP3    H124176   0.171   0.191   5.756 -0.5088  2.2847  0.5957
  895TIP3    H224177   0.030   0.171   5.705 -0.0025 -0.6397  0.2554
  896TIP3   OH224178   4.800   4.917   4.370  0.3070 -0.0643  0.6581
  896TIP3    H124179   4.891   4.944   4.361  0.1044 -0.1034 -1.7591
  896TIP3    H224180   4.756   4.994   4.406  0.8049  0.9314 -0.7960
  897TIP3   OH224181   3.004   2.849  13.106  0.5038  0.3584 -0.0626
  897TIP3    H124182   3.035   2.779  13.048  1.0943 -0.4068  1.1449
  897TIP3    H224183   3.021   2.929  13.057  1.4631 -0.2434 -0.7567
  898TIP3   OH224184   5.008   5.753  12.749 -0.5797  0.0114  0.3018
  898TIP3    H124185   4.990   5.697  12.824 -1.6926 -0.3048 -0.1748
  898TIP3    H224186   5.050   5.695  12.685 -0.5745  0.0273  0.2916
  899TIP3   OH224187   2.856   2.170   4.852  0.9909  0.0399 -0.0091
  899TIP3    H124188   2.781   2.199   4.904  0.2658 -0.4043 -0.7999
  899TIP3    H224189   2.932   2.208   4.897  0.4371 -0.8624  1.7489
  900TIP3   OH224190   2.221   6.486  16.224  0.8813 -0.3708  0.7307
  900TIP3    H124191   2.157   6.557  16.229  0.1916 -0.8988 -0.3898
  900TIP3    H224192   2.184   6.416  16.278  0.0226 -1.0320 -0.6761
  901TIP3   OH224193   2.665   0.963  13.655  0.3555  0.1756  0.3405
  901TIP3    H124194   2.628   1.020  13.723  0.4630  1.2969 -0.5239
  901TIP3    H224195   2.590   0.935  13.604  0.5011  1.0253 -0.3439
  902TIP3   OH224196   6.673   0.613  13.304 -0.3795  0.7788 -0.2102
  902TIP3    H124197   6.584   0.579  13.310 -0.5040  1.4644  2.6754
  902TIP3    H224198   6.681   0.674  13.378  3.2022 -1.0393  1.0547
  903TIP3   OH224199   5.983   2.990   2.970  0.2500 -0.6278  0.1380
  903TIP3    H124200   6.039   2.922   2.934  0.5730 -0.4169  0.2363
  903TIP3    H224201   5.910   2.997   2.908  0.3105 -0.9346  0.0334
  904TIP3   OH224202   1.443   0.196   2.646  0.2075 -0.6145  0.5963
  904TIP3    H124203   1.456   0.103   2.665  0.7804 -0.6147  0.2345
  904TIP3    H224204   1.354   0.215   2.675 -0.7545 -1.8424 -1.4521
  905TIP3   OH224205   5.524   2.923   2.737  0.2308 -0.1440 -0.1697
  905TIP3    H124206   5.430   2.940   2.730  0.0631 -1.2603 -0.7842
  905TIP3    H224207   5.530   2.846   2.793  0.8358  0.4414  0.5822
  906TIP3   OH224208   1.023   4.817   5.434  0.0733  0.1344  0.2756
  906TIP3    H124209   1.044   4.725   5.451 -0.9911 -0.4403 -1.3534
  906TIP3    H224210   0.966   4.842   5.506  0.5260 -0.4261  0.8346
  907TIP3   OH224211   6.112   0.001  14.921  0.1839 -0.0954 -0.1769
  907TIP3    H124212   6.115  -0.005  15.016 -2.1521  1.4190  0.0334
  907TIP3    H224213   6.111   0.095  14.902 -2.3955 -0.3294 -1.5113
  908TIP3   OH224214   3.414   3.651   2.769 -0.1344  0.1080 -0.8155
  908TIP3    H124215   3.488   3.682   2.821  0.1442  0.6553 -1.5284
  908TIP3    H224216   3.394   3.564   2.804  1.4668 -0.4401 -1.2474
  909TIP3   OH224217   3.343   6.441   1.936  0.2869 -0.6619  0.4829
  909TIP3    H124218   3.265   6.469   1.983  0.2523 -0.1799  0.1424
  909TIP3    H224219   3.416   6.479   1.985  0.2784 -0.6314  0.4715
  910TIP3   OH224220   4.297   3.379   2.993  0.3259  0.0207 -0.3497
  910TIP3    H124221   4.236   3.306   2.981 -0.4448  0.4726  0.6621
  910TIP3    H224222   4.312   3.381   3.088  2.1577 -0.2598 -0.6115
  911TIP3   OH224223   5.644   0.006  12.775 -0.3752  0.0352 -0.3035
  911TIP3    H124224   5.604  -0.052  12.711 -0.4789 -0.6091  0.3326
  911TIP3    H224225   5.582   0.006  12.849 -1.3549  2.5157 -1.0790
  912TIP3   OH224226   4.682   0.549   3.879 -0.0762 -0.2561 -0.0785
  912TIP3    H124227   4.612   0.567   3.815 -0.6651  0.4237  0.7450
  912TIP3    H224228   4.763   0.555   3.828 -0.4629  1.4724 -0.5326
  913TIP3   OH224229   5.957   4.157  13.150 -0.3488 -0.1532 -0.7647
  913TIP3    H124230   5.898   4.083  13.132 -0.5512 -0.3885  0.7561
  913TIP3    H224231   5.905   4.215  13.206  0.1769  0.6328 -1.0894
  914TIP3   OH224232   2.294   0.127  11.932 -0.0019 -0.0360  0.8609
  914TIP3    H124233   2.223   0.191  11.933 -0.3507 -0.4173  0.6464
  914TIP3    H224234   2.306   0.105  11.840  1.6068  1.3565  0.7271
  915TIP3   OH224235   6.382   0.629   2.654  0.1772  0.0211 -0.1016
  915TIP3    H124236   6.400   0.644   2.561  0.5848  3.1353  0.4356
  915TIP3    H224237   6.442   0.687   2.700 -1.0847 -0.3487  2.0940
  916TIP3   OH224238   1.341   5.491   2.240  0.1894  0.0396 -0.0098
  916TIP3    H124239   1.420   5.542   2.255  0.5964 -0.3293 -0.8273
  916TIP3    H224240   1.298   5.486   2.325  0.5858  1.0073  0.2444
  917TIP3   OH224241   4.126   5.123   2.803 -0.7635  0.4160 -0.2872
  917TIP3    H124242   4.041   5.092   2.833 -0.8470  0.0140 -0.9297
  917TIP3    H224243   4.133   5.091   2.713 -0.0143  0.6032 -0.3000
  918TIP3   OH224244   6.797   1.002  11.458 -0.0388  0.0139 -0.5655
  918TIP3    H124245   6.774   0.926  11.405 -1.2045  0.4029 -0.6429
  918TIP3    H224246   6.713   1.034  11.491  0.3033  1.9582 -1.4899
  919TIP3   OH224247   4.403   4.989   2.351 -0.4250 -0.2769 -0.2191
  919TIP3    H124248   4.465   4.920   2.327  0.0077  0.0567 -0.0729
  919TIP3    H224249   4.416   5.057   2.284 -1.5599 -0.7682 -0.9395
  920TIP3   OH224250   4.605   6.338   2.493  0.2542 -0.1025  0.1331
  920TIP3    H124251   4.659   6.388   2.431  2.3910 -1.1271  1.1246
  920TIP3    H224252   4.592   6.253   2.451  0.7616 -0.4118  0.6031
  921TIP3   OH224253   3.919   5.713  11.736  0.0818 -0.0141  0.2731
  921TIP3    H124254   3.901   5.666  11.654 -2.0658 -0.8088  1.1650
  921TIP3    H224255   3.841   5.698  11.790  0.8043  1.7907  1.8775
  922TIP3   OH224256   5.918   0.176   3.123  0.1467  1.0718 -0.7108
  922TIP3    H124257   5.960   0.259   3.100 -0.1019  2.0797  2.2766
  922TIP3    H224258   5.975   0.138   3.190  0.1627 -1.1109 -1.9262
  923TIP3   OH224259   0.095   1.895  15.728  0.2938 -0.6236  0.0861
  923TIP3    H124260   0.154   1.963  15.696 -2.4915  1.8756 -0.0321
  923TIP3    H224261   0.149   1.817  15.735  2.5685  0.3763 -4.3500
  924TIP3   OH224262   2.902   4.547  13.092  0.1600  0.6215  0.0412
  924TIP3    H124263   2.987   4.525  13.054 -0.0858  0.6273 -0.5198
  924TIP3    H224264   2.885   4.637  13.063  0.0243  0.6667  0.2563
  925TIP3   OH224265   5.078   3.078  11.849 -0.0619 -0.1182 -0.3106
  925TIP3    H124266   5.034   3.131  11.915 -0.9578 -0.0662 -0.9436
  925TIP3    H224267   5.010   3.020  11.815  0.9316 -1.7382  0.4385
  926TIP3   OH224268   3.085   2.049   3.795 -0.1404 -0.1439 -0.2090
  926TIP3    H124269   3.093   1.992   3.871 -2.2795  0.6182  0.6181
  926TIP3    H224270   3.104   1.992   3.720 -0.0943 -1.4068  0.7513
  927TIP3   OH224271   4.466   4.569   2.911  0.4974 -0.1927 -0.0901
  927TIP3    H124272   4.439   4.643   2.965 -1.3579 -0.6420 -0.3662
  927TIP3    H224273   4.492   4.501   2.973 -1.2159 -0.5549  0.2679
  928TIP3   OH224274   3.471   3.686   4.851  0.0024 -0.1331 -0.4585
  928TIP3    H124275   3.395   3.627   4.855  0.3935 -0.5808  0.5488
  928TIP3    H224276   3.532   3.650   4.915 -0.7669  2.8165  2.0403
  929TIP3   OH224277   5.533   1.430   2.816  1.1535 -0.6193 -0.1319
  929TIP3    H124278   5.514   1.380   2.896  0.7024 -1.2837 -0.6489
  929TIP3    H224279   5.562   1.364   2.753  1.4066 -0.1093 -0.5465
  930TIP3   OH224280   4.281   0.094  16.314 -0.1898  0.0342  0.9019
  930TIP3    H124281   4.368   0.122  16.284 -0.2010  0.3359  1.1500
  930TIP3    H224282   4.265   0.012  16.267 -0.3447  0.6751 -0.1670
  931TIP3   OH224283   3.978   1.243   5.396  0.0583  0.0141  0.8887
  931TIP3    H124284   4.046   1.232   5.329 -1.9754 -0.1264 -1.2143
  931TIP3    H224285   4.013   1.309   5.455  0.6567  2.4336 -2.0411
  932TIP3   OH224286   5.325   5.565   5.823  0.1248  0.1398 -0.1891
  932TIP3    H124287   5.254   5.507   5.851  0.8613 -1.0016 -0.6548
  932TIP3    H224288   5.296   5.598   5.738 -0.9455  1.6072  0.7119
  933TIP3   OH224289   0.522   2.445   4.665  0.6371  0.2518  0.5677
  933TIP3    H124290   0.439   2.428   4.621  1.0385  1.3977 -0.6600
  933TIP3    H224291   0.504   2.426   4.757 -0.9277  0.2725  0.2867
  934TIP3   OH224292   2.956   6.242  13.004 -0.1883 -0.7243 -0.4464
  934TIP3    H124293   3.014   6.204  12.938  1.3627  0.0273  0.4563
  934TIP3    H224294   2.999   6.323  13.030 -1.7701 -0.0316  0.0873
  935TIP3   OH224295   3.982   4.148   1.818  0.1943  0.2021 -0.3163
  935TIP3    H124296   3.980   4.058   1.784  0.0009 -0.8571  2.3619
  935TIP3    H224297   3.909   4.192   1.774 -0.5726 -1.3475 -0.6322
  936TIP3   OH224298   2.521   0.382   3.663 -0.2842 -0.0334  0.1652
  936TIP3    H124299   2.473   0.300   3.677  0.3734 -0.2411  1.2775
  936TIP3    H224300   2.469   0.448   3.708 -0.8579  0.1804 -0.8022
  937TIP3   OH224301   2.426   3.827  17.120  0.1256  0.4164 -0.3969
  937TIP3    H124302   2.465   3.859  17.038  1.5226  1.0496  0.5050
  937TIP3    H224303   2.464   3.883  17.188  1.7585 -2.4144  1.0987
  938TIP3   OH224304   4.497   1.068   4.325 -0.0070  0.6076 -0.2630
  938TIP3    H124305   4.455   1.136   4.378 -0.8413 -0.4954  0.5298
  938TIP3    H224306   4.586   1.062   4.361 -1.2110 -1.6503  2.5833
  939TIP3   OH224307   2.590   0.067  16.363 -0.4832 -0.2461 -0.6652
  939TIP3    H124308   2.573   0.150  16.319 -3.5284  0.4841  1.6897
  939TIP3    H224309   2.531   0.005  16.321  1.0360 -1.0171 -1.7130
  940TIP3   OH224310   5.550   0.058   4.668 -0.3254 -0.2241  0.2091
  940TIP3    H124311   5.638   0.037   4.637  0.0139  1.4541  0.0115
  940TIP3    H224312   5.564   0.088   4.758 -0.7500 -0.3915  0.3293
  941TIP3   OH224313   2.977   2.586   5.284 -0.2669  0.2356  0.0837
  941TIP3    H124314   2.972   2.494   5.308 -0.6941  0.1478 -0.3364
  941TIP3    H224315   3.061   2.594   5.238 -0.0878  0.1212  0.3927
  942TIP3   OH224316   5.187   4.438  13.514 -0.6810 -0.0192 -0.3722
  942TIP3    H124317   5.143   4.513  13.473 -1.6828 -0.8059 -0.7466
  942TIP3    H224318   5.277   4.442  13.481 -0.7692  0.9261 -0.5085
  943TIP3   OH224319   2.420   4.221   5.498 -0.1781  0.0933 -0.3305
  943TIP3    H124320   2.457   4.280   5.432  1.5390 -0.0198  0.5160
  943TIP3    H224321   2.368   4.278   5.554  0.2585  0.5773 -0.4066
  944TIP3   OH224322   5.656   5.109   2.939 -0.1623  0.1573  0.3432
  944TIP3    H124323   5.677   5.181   2.999  1.5598  0.9997 -1.2358
  944TIP3    H224324   5.677   5.030   2.988 -0.3169  0.7811  1.4276
  945TIP3   OH224325   4.993   6.747  16.573  0.3058 -0.1406 -0.1212
  945TIP3    H124326   5.027   6.822  16.621 -1.3078  0.6540 -0.1995
  945TIP3    H224327   5.042   6.748  16.490 -0.1032  1.1658 -0.3607
  946TIP3   OH224328   3.672   1.028  15.474 -0.0478  0.6362  0.3439
  946TIP3    H124329   3.625   1.073  15.544 -0.7408 -0.3950  0.5461
  946TIP3    H224330   3.757   1.072  15.470  0.0674  0.5698  1.9745
  947TIP3   OH224331   5.968   1.768   4.787  0.4453 -0.2574  0.2139
  947TIP3    H124332   6.019   1.844   4.816  0.3206  0.0612 -0.3988
  947TIP3    H224333   5.980   1.703   4.857  2.2628 -0.4583 -0.2555
  948TIP3   OH224334   4.398   4.173   3.950 -0.1508 -0.0305 -0.1413
  948TIP3    H124335   4.439   4.117   3.885  1.0266  1.1343 -0.4124
  948TIP3    H224336   4.351   4.239   3.899 -0.9018 -0.3044  0.1829
  949TIP3   OH224337   6.677   6.337   3.963  0.6256  0.1176  0.3347
  949TIP3    H124338   6.710   6.369   3.879 -0.9546 -0.2250 -0.4354
  949TIP3    H224339   6.682   6.413   4.021 -0.4860  1.0280 -0.7314
  950TIP3   OH224340   5.524   6.760  14.986  0.3133  0.1339 -0.2366
  950TIP3    H124341   5.440   6.776  14.942 -0.5713  0.2773  1.4520
  950TIP3    H224342   5.572   6.703  14.927 -2.0687 -2.1664 -0.0173
  951TIP3   OH224343   5.967   3.332   2.751 -0.0869  0.0860  0.0100
  951TIP3    H124344   5.895   3.394   2.745  1.1929  1.6728  0.5619
  951TIP3    H224345   5.935   3.253   2.707 -2.1774  0.7181  0.3335
  952TIP3   OH224346   4.724   0.038   1.059 -0.6634  0.8069  0.0953
  952TIP3    H124347   4.628   0.043   1.066 -0.7657  0.5519 -1.0189
  952TIP3    H224348   4.739  -0.023   0.987  0.3559 -1.1046  1.8729
  953TIP3   OH224349   4.075   4.224  16.181  0.4335 -0.5438  0.2506
  953TIP3    H124350   4.094   4.219  16.087  1.0206  0.1179  0.3216
  953TIP3    H224351   4.151   4.271  16.217  0.6044 -1.5246  1.1785
  954TIP3   OH224352   5.563   1.837   1.672 -0.1098  0.3080  0.5176
  954TIP3    H124353   5.507   1.866   1.599 -2.7299  0.6608  2.5826
  954TIP3    H224354   5.536   1.746   1.687  0.4680  0.2171  0.9880
  955TIP3   OH224355   2.038   5.680   5.142  0.1874 -0.0032  0.3826
  955TIP3    H124356   1.987   5.600   5.152 -0.1307  0.2139  0.4840
  955TIP3    H224357   2.039   5.720   5.229 -1.8523  1.4322 -0.2203
  956TIP3   OH224358   0.302   5.356  15.105  0.1844 -0.1534  0.0205
  956TIP3    H124359   0.209   5.367  15.084  0.3416 -0.5805 -0.9382
  956TIP3    H224360   0.332   5.444  15.126 -0.5047 -0.0553  0.6432
  957TIP3   OH224361   2.400   4.761  14.428  0.8321 -0.0388 -0.1197
  957TIP3    H124362   2.434   4.760  14.338  3.4825 -2.6357  0.8411
  957TIP3    H224363   2.326   4.700  14.426  0.6248  0.2137 -0.5837
  958TIP3   OH224364   0.157   0.648  13.100  0.0343  0.7404 -0.6689
  958TIP3    H124365   0.094   0.641  13.173  1.1576 -2.1521  0.1017
  958TIP3    H224366   0.104   0.633  13.022 -0.4792 -0.3336 -0.1233
  959TIP3   OH224367   6.332   0.743  15.498 -0.4358  0.2714 -0.0927
  959TIP3    H124368   6.328   0.667  15.441  2.6037 -0.4674  0.5727
  959TIP3    H224369   6.391   0.804  15.454 -0.5090  0.9872  0.7709
  960TIP3   OH224370   6.343   1.663   5.167  1.1136  0.4475 -0.6205
  960TIP3    H124371   6.370   1.685   5.256  1.4428 -0.0156 -0.5996
  960TIP3    H224372   6.381   1.576   5.152 -0.2736 -0.1694 -0.6378
  961TIP3   OH224373   3.588   4.356   5.760  0.3953 -0.2411 -0.4012
  961TIP3    H124374   3.645   4.315   5.694 -1.1842 -0.4637 -1.6605
  961TIP3    H224375   3.641   4.427   5.796  1.2715 -0.0538 -1.9969
  962TIP3   OH224376   5.798   5.292  10.812  0.4943 -0.3143 -0.0155
  962TIP3    H124377   5.807   5.328  10.723  1.7479  1.8379  0.9375
  962TIP3    H224378   5.857   5.216  10.813 -0.3469 -0.9967 -1.3408
  963TIP3   OH224379   4.594   2.707   2.053  0.5797  0.4227 -0.0096
  963TIP3    H124380   4.576   2.621   2.015 -0.4719  0.3062  0.7354
  963TIP3    H224381   4.544   2.768   1.999 -0.1828  0.3567  0.6181
  964TIP3   OH224382   3.422   3.410   0.140 -0.0209 -0.4146  0.2910
  964TIP3    H124383   3.385   3.418   0.052  1.0991  0.8585 -0.0966
  964TIP3    H224384   3.427   3.501   0.171  1.2820 -0.6972  0.9350
  965TIP3   OH224385   5.878   0.751  12.521  0.4128  0.4378 -0.1702
  965TIP3    H124386   5.882   0.771  12.428  0.0379 -1.3976 -0.6051
  965TIP3    H224387   5.952   0.797  12.559 -0.3648  2.5244 -1.1045
  966TIP3   OH224388   3.485   3.098  17.066  0.5140 -0.1302 -0.0029
  966TIP3    H124389   3.485   3.002  17.063  1.4109 -0.1612  0.8344
  966TIP3    H224390   3.436   3.120  17.145  1.3160  0.0765  0.4393
  967TIP3   OH224391   0.648   0.431  13.816  0.4175 -0.0191  0.2685
  967TIP3    H124392   0.565   0.460  13.777 -0.5165 -0.6476  1.7369
  967TIP3    H224393   0.691   0.512  13.843 -0.5170  0.2292  1.0519
  968TIP3   OH224394   5.784   0.763  15.114 -0.2481 -0.0888 -0.5455
  968TIP3    H124395   5.839   0.713  15.175 -1.1579 -0.1191  0.2733
  968TIP3    H224396   5.838   0.837  15.087  0.0885  0.0503  0.4911
  969TIP3   OH224397   6.130   2.542  13.593 -0.3799  0.1938  0.4086
  969TIP3    H124398   6.128   2.626  13.639  2.1064  1.4345 -1.6273
  969TIP3    H224399   6.160   2.480  13.660 -0.1973  1.3285  1.4040
  970TIP3   OH224400   2.263   0.337  10.826  0.4227  0.1624  0.4235
  970TIP3    H124401   2.215   0.399  10.771  0.3284  0.8336  1.2565
  970TIP3    H224402   2.196   0.282  10.866  0.4382  0.1960  0.4953
  971TIP3   OH224403   3.596   2.137  11.349  0.4314  0.5431 -0.4484
  971TIP3    H124404   3.609   2.220  11.303  1.7650  1.3680  1.3533
  971TIP3    H224405   3.511   2.146  11.391  0.9759  1.3796  0.4956
  972TIP3   OH224406   4.170   3.536   3.579 -0.3721 -0.6395 -0.5459
  972TIP3    H124407   4.256   3.532   3.621 -1.4534 -3.0261  1.5863
  972TIP3    H224408   4.141   3.626   3.592 -0.5108 -1.1739  3.6917
  973TIP3   OH224409   6.689   1.696  15.328 -0.6318  0.0731 -0.0896
  973TIP3    H124410   6.673   1.780  15.285  2.5034 -0.0074 -1.5516
  973TIP3    H224411   6.682   1.716  15.422 -0.6383  1.7974 -0.4416
  974TIP3   OH224412   5.928   3.348   4.663  0.0383  0.4393 -0.2952
  974TIP3    H124413   5.988   3.277   4.687 -1.0973 -0.5777 -0.3868
  974TIP3    H224414   5.963   3.425   4.706 -0.9349 -0.9703  3.1721
  975TIP3   OH224415   0.972   0.994   0.882  0.0147  0.4080 -0.2815
  975TIP3    H124416   1.065   1.000   0.861  0.5720 -1.4019  1.5686
  975TIP3    H224417   0.928   1.007   0.798  2.0789 -3.6780 -2.1307
  976TIP3   OH224418   2.217   6.648  14.838 -0.1497  0.5205 -0.0577
  976TIP3    H124419   2.181   6.600  14.912  0.4424  0.9553  0.5159
  976TIP3    H224420   2.187   6.600  14.761 -1.6901  0.6938  0.4214
  977TIP3   OH224421   0.394   0.308  13.736  0.2955  0.1150  0.5634
  977TIP3    H124422   0.308   0.308  13.778  0.0674 -0.1930  0.1100
  977TIP3    H224423   0.400   0.394  13.694 -0.3512 -0.3528 -0.5129
  978TIP3   OH224424   6.736   2.221  12.670 -0.0749  0.3061  0.5736
  978TIP3    H124425   6.755   2.275  12.747  3.1768 -0.4164  0.3652
  978TIP3    H224426   6.655   2.175  12.692  0.1216  1.0445  3.0572
  979TIP3   OH224427   5.021   1.155  16.909 -0.3162  0.2673 -0.4823
  979TIP3    H124428   4.949   1.164  16.847 -0.5454  0.7753 -0.1462
  979TIP3    H224429   5.005   1.072  16.954 -0.7947  0.4745 -0.2716
  980TIP3   OH224430   1.787   6.606  12.452  0.1674 -0.0681  0.0918
  980TIP3    H124431   1.803   6.696  12.423 -0.3702  0.0969  0.3052
  980TIP3    H224432   1.865   6.558  12.425  0.8149  0.6377  0.7052
  981TIP3   OH224433   1.402   4.107  14.512  0.2654 -0.2362 -0.4741
  981TIP3    H124434   1.402   4.043  14.582  0.0633 -0.3914 -0.6124
  981TIP3    H224435   1.321   4.157  14.526  1.1500  0.9495  0.4997
  982TIP3   OH224436   6.167   2.813  15.733 -0.0617  0.1197 -0.0549
  982TIP3    H124437   6.153   2.756  15.657 -1.2052 -0.3866  0.5276
  982TIP3    H224438   6.198   2.753  15.801  0.4449  0.4921  0.0485
  983TIP3   OH224439   2.637   5.567  13.783  0.1069  0.0914  0.0314
  983TIP3    H124440   2.704   5.546  13.848  0.8409  2.0125 -0.0545
  983TIP3    H224441   2.671   5.644  13.737  0.5098 -2.3542 -3.9861
  984TIP3   OH224442   4.925   6.481   3.406 -0.0883  0.3883 -0.0982
  984TIP3    H124443   4.990   6.551   3.413  0.8292 -0.4785  0.0259
  984TIP3    H224444   4.870   6.491   3.483  1.8774 -0.8885  1.4986
  985TIP3   OH224445   5.145   3.356   6.799 -0.8587  0.2138  0.0262
  985TIP3    H124446   5.193   3.277   6.773 -1.7752  0.2637 -1.8892
  985TIP3    H224447   5.073   3.324   6.852  2.2438  0.2652  4.5406
  986TIP3   OH224448   3.847   3.939  14.250 -0.2968 -0.3475  0.9339
  986TIP3    H124449   3.923   3.974  14.297  1.3242  2.0614 -3.0958
  986TIP3    H224450   3.885   3.899  14.172 -3.1285  1.7715 -1.6530
  987TIP3   OH224451   1.942   6.259  16.599 -0.5874  0.3328 -0.0245
  987TIP3    H124452   1.982   6.175  16.621 -0.4756  0.0294 -1.3423
  987TIP3    H224453   1.890   6.282  16.677  1.6743  0.4732  1.4744
  988TIP3   OH224454   6.189   2.882  10.992 -0.3034  0.0409 -0.0941
  988TIP3    H124455   6.127   2.888  10.919 -0.9784  2.2251  0.6480
  988TIP3    H224456   6.182   2.965  11.038  0.4190 -1.1429  2.2539
  989TIP3   OH224457   6.144   5.946  10.989 -0.0209  0.3255 -0.0473
  989TIP3    H124458   6.181   5.859  11.004 -2.0771 -0.1723  2.4981
  989TIP3    H224459   6.217   6.006  11.005  0.8192 -0.8406  0.5787
  990TIP3   OH224460   2.745   0.593  14.039  0.2492  0.2226 -0.4123
  990TIP3    H124461   2.839   0.575  14.041  0.4008  1.0044 -0.2373
  990TIP3    H224462   2.736   0.662  13.972 -0.1631  0.3469 -0.2271
  991TIP3   OH224463   4.916   0.098   4.368  0.7884 -0.2159 -0.2718
  991TIP3    H124464   4.835   0.121   4.321  0.4077 -0.9561  0.0047
  991TIP3    H224465   4.976   0.170   4.350  0.2826  0.0236 -1.0214
  992TIP3   OH224466   3.590   2.269  14.039 -0.5026 -0.3683 -0.6602
  992TIP3    H124467   3.495   2.271  14.026 -0.5068 -0.8596 -0.7244
  992TIP3    H224468   3.613   2.176  14.034 -0.0449 -0.2696 -0.4538
  993TIP3   OH224469   0.942   3.636  15.555  0.0155 -0.0599  0.2976
  993TIP3    H124470   0.988   3.715  15.531  0.7398 -0.3248  0.7960
  993TIP3    H224471   0.963   3.623  15.648  0.8305 -1.4492 -0.0572
  994TIP3   OH224472   1.102   0.709   2.670 -0.5285 -0.1696  0.5452
  994TIP3    H124473   1.033   0.756   2.716 -1.6496 -0.8776 -0.3864
  994TIP3    H224474   1.057   0.636   2.628  1.0843 -1.7347  1.4817
  995TIP3   OH224475   5.420   1.544  12.455  0.2278 -0.2931  0.0730
  995TIP3    H124476   5.342   1.597  12.441  0.1388 -0.5516 -0.4203
  995TIP3    H224477   5.463   1.584  12.531 -1.3170 -1.2047  1.4850
  996TIP3   OH224478   0.698   0.893   3.485  0.2322  0.4705 -0.3894
  996TIP3    H124479   0.714   0.985   3.464 -0.7716  0.5846 -0.6555
  996TIP3    H224480   0.636   0.864   3.418  0.2745 -0.3042 -0.0913
  997TIP3   OH224481   3.058   0.060   4.620 -0.6480  0.0051  0.0477
  997TIP3    H124482   3.011   0.128   4.571 -0.4883  1.0684  1.3375
  997TIP3    H224483   2.991  -0.005   4.641 -0.4725 -1.1105 -2.6434
  998TIP3   OH224484   1.463   1.247  12.645 -0.1141 -0.0901  0.1672
  998TIP3    H124485   1.453   1.232  12.739 -0.3927 -1.2377 -0.0385
  998TIP3    H224486   1.556   1.230  12.628 -0.3565 -1.2917 -0.0031
  999TIP3   OH224487   3.682   6.411  16.825  0.1410 -0.0424  0.3326
  999TIP3    H124488   3.601   6.365  16.846  0.4394 -0.1989  1.1930
  999TIP3    H224489   3.664   6.502  16.848  0.4073 -0.1821  1.1213
 1000TIP3   OH224490   5.474   5.655  14.946  0.1985  0.5683  0.3221
 1000TIP3    H124491   5.393   5.634  14.991 -0.1922  0.0473 -0.6355
 1000TIP3    H224492   5.537   5.591  14.979 -0.4815 -0.8292 -1.0638
 1001TIP3   OH224493   6.641   1.259   3.494 -0.3721 -0.0763  0.7254
 1001TIP3    H124494   6.714   1.317   3.516 -0.2804  0.5509 -1.0978
 1001TIP3    H224495   6.589   1.310   3.430 -0.2686 -2.0001 -0.9341
 1002TIP3   OH224496   1.941   4.047   6.539  0.4647 -0.1880  0.2644
 1002TIP3    H124497   1.983   3.962   6.530 -1.2742 -1.1061  0.5469
 1002TIP3    H224498   1.852   4.033   6.506  0.3314  1.6716 -0.2242
 1003TIP3   OH224499   0.024   0.180   4.570 -0.0624  0.4273 -0.5379
 1003TIP3    H124500   0.068   0.239   4.632  0.7653 -0.7022 -0.0280
 1003TIP3    H224501   0.074   0.099   4.576  0.2918  0.4255 -3.0099
 1004TIP3   OH224502   6.754   3.912   4.744  0.3798 -0.2066 -0.3396
 1004TIP3    H124503   6.746   3.860   4.824  1.9839 -0.9085 -0.6249
 1004TIP3    H224504   6.798   3.992   4.772  1.6719 -0.8009 -0.6665
 1005TIP3   OH224505   4.110   0.497  16.583 -0.7399  0.3739  0.3333
 1005TIP3    H124506   4.094   0.519  16.674  0.9045  0.2070  0.6777
 1005TIP3    H224507   4.065   0.414  16.570 -1.4349  0.6670  0.8338
 1006TIP3   OH224508   6.785   2.477   0.421 -0.4583  0.0746  0.2913
 1006TIP3    H124509   6.760   2.385   0.421 -1.1270  0.2469 -0.7001
 1006TIP3    H224510   6.759   2.509   0.507 -0.4721 -0.5894  0.5371
 1007TIP3   OH224511   0.398   1.122   0.223  0.3323  0.5198  0.2403
 1007TIP3    H124512   0.457   1.176   0.275  1.5103  0.8813 -1.4274
 1007TIP3    H224513   0.444   1.039   0.211  0.1473  0.4966 -0.3578
 1008TIP3   OH224514   6.294   3.154  13.901  0.0832  0.4600 -0.5249
 1008TIP3    H124515   6.250   3.145  13.986  1.4890  0.5492  0.2355
 1008TIP3    H224516   6.224   3.178  13.840 -1.2787 -1.5131  0.2188
 1009TIP3   OH224517   6.371   2.349   6.019  0.5258  0.1975  0.4005
 1009TIP3    H124518   6.342   2.279   6.078  1.2055  1.1046  1.8601
 1009TIP3    H224519   6.380   2.426   6.076  1.1971  1.0970 -0.8933
 1010TIP3   OH224520   6.785   5.222  11.238  0.5311 -0.3275  0.3681
 1010TIP3    H124521   6.831   5.280  11.298  0.2597 -0.0481  0.3082
 1010TIP3    H224522   6.767   5.143  11.289  0.8052 -0.3162  0.4837
 1011TIP3   OH224523   4.802   4.871  15.965 -0.4089 -0.1057 -0.3707
 1011TIP3    H124524   4.708   4.860  15.955 -0.6999  1.5484  0.2909
 1011TIP3    H224525   4.822   4.835  16.052 -0.8196  1.5731  0.4382
 1012TIP3   OH224526   3.746   0.949   1.138 -0.2113 -0.0372  0.1084
 1012TIP3    H124527   3.734   0.870   1.084  0.2819 -0.5961  0.7979
 1012TIP3    H224528   3.745   0.917   1.228 -1.5267  0.9637  0.4544
 1013TIP3   OH224529   6.021   4.445   3.126 -0.4258 -0.4827  0.0760
 1013TIP3    H124530   6.096   4.431   3.184 -1.4892  1.3880  1.9567
 1013TIP3    H224531   6.052   4.416   3.040  2.3866  0.0337  0.8697
 1014TIP3   OH224532   5.533   2.086   0.260 -0.0892  0.6735  0.1428
 1014TIP3    H124533   5.610   2.131   0.292 -0.8743  1.4798  0.9199
 1014TIP3    H224534   5.476   2.077   0.336 -0.0821 -1.3606 -0.0519
 1015TIP3   OH224535   5.916   5.930  14.121  0.7276  0.0167  0.4256
 1015TIP3    H124536   5.947   5.913  14.032  1.3306 -0.6536  0.7564
 1015TIP3    H224537   5.874   6.016  14.116  0.6291 -0.0871 -0.5360
 1016TIP3   OH224538   0.278   0.675  14.199 -0.2106 -0.4581  0.2329
 1016TIP3    H124539   0.294   0.688  14.106 -1.8512 -0.9194 -0.1289
 1016TIP3    H224540   0.244   0.586  14.206 -1.1961 -0.0319  1.1259
 1017TIP3   OH224541   4.231   6.218  15.341 -0.1111  0.1532 -0.0876
 1017TIP3    H124542   4.313   6.170  15.350 -0.0926 -0.0750 -1.3804
 1017TIP3    H224543   4.164   6.155  15.368 -0.0483 -0.4465 -1.3034
 1018TIP3   OH224544   3.079   4.430   1.810  0.0217  0.5934 -0.3400
 1018TIP3    H124545   3.158   4.381   1.832  0.7427  1.3376 -1.2218
 1018TIP3    H224546   3.015   4.403   1.875  1.2829  0.6601  0.9610
 1019TIP3   OH224547   1.035   4.816  12.816  0.4484  0.2070 -0.4006
 1019TIP3    H124548   1.044   4.860  12.900  0.8646 -0.4534 -0.0996
 1019TIP3    H224549   1.125   4.798  12.789  0.2936 -0.0528 -0.7410
 1020TIP3   OH224550   6.350   3.493   0.947 -0.0323  0.3285 -0.5041
 1020TIP3    H124551   6.321   3.539   0.868 -1.2540  1.2436  0.4597
 1020TIP3    H224552   6.393   3.561   1.000  0.4376 -0.1964 -0.2035
 1021TIP3   OH224553   2.726   1.117   1.558 -0.3546  0.3240  0.2814
 1021TIP3    H124554   2.812   1.093   1.522  0.0937  0.8489  0.9723
 1021TIP3    H224555   2.703   1.198   1.511  0.1781  0.9458  1.0639
 1022TIP3   OH224556   0.156   0.137  14.935  0.5369  0.4263  0.1400
 1022TIP3    H124557   0.085   0.074  14.947 -0.4692  1.7982  1.4723
 1022TIP3    H224558   0.220   0.090  14.882 -0.5584 -1.4496  0.4266
 1023TIP3   OH224559   1.933   1.199  14.112  0.0179  0.1083  0.3736
 1023TIP3    H124560   1.851   1.193  14.064  0.0695  0.3815  0.2514
 1023TIP3    H224561   1.929   1.284  14.157 -0.3132 -0.4297  1.3704
 1024TIP3   OH224562   4.015   5.772  12.362 -0.0514  0.4390  0.0784
 1024TIP3    H124563   4.040   5.861  12.335 -2.2307  0.6915 -1.2994
 1024TIP3    H224564   3.991   5.781  12.454  1.7281  0.8409  0.5102
 1025TIP3   OH224565   4.759   6.185  11.423  0.5674 -0.0938  0.3726
 1025TIP3    H124566   4.672   6.221  11.437  0.7292  0.2535  0.5082
 1025TIP3    H224567   4.773   6.192  11.329  0.1387 -0.8765  0.2536
 1026TIP3   OH224568   2.238   6.322  14.232 -0.3762 -0.2531  0.0010
 1026TIP3    H124569   2.238   6.415  14.208 -1.1979 -0.0381  0.7921
 1026TIP3    H224570   2.274   6.321  14.321 -0.3713 -0.6905 -0.0089
 1027TIP3   OH224571   3.220   3.698  10.946 -0.0948 -0.2900  0.6255
 1027TIP3    H124572   3.302   3.649  10.953 -0.2505 -0.4152  1.6036
 1027TIP3    H224573   3.203   3.731  11.035 -1.3698 -0.6952  0.5459
 1028TIP3   OH224574   1.565   2.163   2.495  0.4210  0.0565  0.4422
 1028TIP3    H124575   1.652   2.149   2.457 -0.1086  1.7798 -1.5049
 1028TIP3    H224576   1.573   2.245   2.544 -0.2682  0.5386 -0.2470
 1029TIP3   OH224577   3.930   3.880   6.304  0.2289  0.0443  0.1330
 1029TIP3    H124578   3.854   3.862   6.248  0.3260 -0.7638  0.2477
 1029TIP3    H224579   3.903   3.849   6.391  0.8128 -0.5898  0.0985
 1030TIP3   OH224580   1.299   5.212  11.623  0.1770  0.0948  0.0200
 1030TIP3    H124581   1.320   5.251  11.538  0.0420 -0.2269 -0.1616
 1030TIP3    H224582   1.381   5.217  11.673  0.2259  0.3840 -0.0866
 1031TIP3   OH224583   6.815   0.949   1.262 -0.4827  0.9117 -0.2114
 1031TIP3    H124584   6.880   0.879   1.262  0.1553  1.4459  1.9261
 1031TIP3    H224585   6.734   0.908   1.234  0.1215 -0.4369  0.0001
 1032TIP3   OH224586   5.754   2.678  12.653  0.4560 -0.5497  0.9637
 1032TIP3    H124587   5.818   2.653  12.721  1.9643 -1.8721 -0.8971
 1032TIP3    H224588   5.787   2.637  12.573 -1.4182  0.8168 -0.5438
 1033TIP3   OH224589   3.164   4.837   4.097  0.2147 -0.6870 -0.2307
 1033TIP3    H124590   3.109   4.780   4.043 -0.2124 -0.1555 -0.3739
 1033TIP3    H224591   3.128   4.830   4.185  0.5360 -1.0946 -0.1311
 1034TIP3   OH224592   3.452   2.316  13.737 -0.0116 -0.0504 -0.4459
 1034TIP3    H124593   3.478   2.404  13.765 -0.3286  0.4860 -1.8137
 1034TIP3    H224594   3.532   2.264  13.741  0.3820  0.5461 -0.6075
 1035TIP3   OH224595   5.902   1.964  14.844  0.2089 -0.2168 -0.3722
 1035TIP3    H124596   5.826   1.961  14.901 -1.6686 -0.4654 -2.8340
 1035TIP3    H224597   5.887   2.038  14.785  2.1735  0.1340 -0.4935
 1036TIP3   OH224598   6.250   3.643   3.138 -0.2379  0.3097 -0.2549
 1036TIP3    H124599   6.226   3.559   3.175  0.7061 -0.0713 -0.4893
 1036TIP3    H224600   6.310   3.622   3.067 -0.9375  1.1088 -1.1011
 1037TIP3   OH224601   1.939   2.348   2.585  0.4368  0.3842 -0.5076
 1037TIP3    H124602   2.028   2.324   2.558  0.3867  0.9609 -1.2070
 1037TIP3    H224603   1.918   2.426   2.533 -0.7807 -0.2026 -0.9091
 1038TIP3   OH224604   2.614   2.209  16.662 -0.3112  0.5775  0.5116
 1038TIP3    H124605   2.695   2.259  16.653  0.0751  0.3190  2.4165
 1038TIP3    H224606   2.637   2.122  16.630 -0.5559  1.1660 -1.3339
 1039TIP3   OH224607   1.766   3.749  16.658  0.2734 -0.0271 -0.5286
 1039TIP3    H124608   1.792   3.804  16.584  1.3064 -0.1501 -0.2710
 1039TIP3    H224609   1.849   3.721  16.697 -0.2562 -0.7962  0.0593
 1040TIP3   OH224610   3.996   4.727   2.146  0.0814  0.0556 -0.3620
 1040TIP3    H124611   4.090   4.714   2.161 -0.0004  0.1242  0.2530
 1040TIP3    H224612   3.975   4.672   2.071  0.2812 -1.2392  0.5188
 1041TIP3   OH224613   2.291   4.471   4.941 -0.5841  0.1746 -0.0049
 1041TIP3    H124614   2.380   4.496   4.968 -1.0922 -0.0807  2.0038
 1041TIP3    H224615   2.298   4.454   4.847  1.5366 -0.0310  0.1679
 1042TIP3   OH224616   5.611   2.616  10.898 -0.4569  0.7694 -0.4630
 1042TIP3    H124617   5.571   2.611  10.811 -0.9181  0.1015 -0.2158
 1042TIP3    H224618   5.697   2.577  10.887 -0.1371  1.5782 -0.8412
 1043TIP3   OH224619   0.967   5.213   1.786  0.1639 -0.3226  0.0272
 1043TIP3    H124620   0.930   5.151   1.723  0.1845  0.1275 -0.4348
 1043TIP3    H224621   1.012   5.159   1.850 -1.0826 -0.8660  0.4512
 1044TIP3   OH224622   4.758   1.866   5.659  0.1979  0.0387 -0.0621
 1044TIP3    H124623   4.673   1.841   5.622  0.5911  0.0508 -0.9694
 1044TIP3    H224624   4.799   1.920   5.591  1.3057 -0.6940  0.0203
 1045TIP3   OH224625   1.975   5.131   1.226 -0.3740 -0.8065  0.0780
 1045TIP3    H124626   1.968   5.223   1.199 -0.6489 -0.2746  1.8830
 1045TIP3    H224627   1.942   5.081   1.151 -1.2775  0.6169 -0.4956
 1046TIP3   OH224628   0.720   2.841  16.642 -0.0501  0.0045 -0.3976
 1046TIP3    H124629   0.729   2.770  16.705 -1.5385 -1.0711 -1.3713
 1046TIP3    H224630   0.747   2.803  16.559  1.2822  1.2358 -0.5515
 1047TIP3   OH224631   0.806   0.893  11.949 -0.0780 -0.3695  0.4083
 1047TIP3    H124632   0.766   0.975  11.918  1.7629 -0.0158 -1.1385
 1047TIP3    H224633   0.875   0.921  12.008 -0.3277 -0.8645  0.9299
 1048TIP3   OH224634   3.235   2.872  11.857  0.0109 -0.2334  0.1652
 1048TIP3    H124635   3.264   2.898  11.770 -0.0386  0.4417  0.3456
 1048TIP3    H224636   3.158   2.927  11.874 -0.1914 -0.6116  0.4892
 1049TIP3   OH224637   5.255   2.064  14.439  0.3813 -0.2827 -0.7159
 1049TIP3    H124638   5.305   2.133  14.396  0.5177 -0.3858 -0.7236
 1049TIP3    H224639   5.313   1.987  14.437 -0.3119 -0.7911 -1.9861
 1050TIP3   OH224640   5.967   5.093  11.081  0.6183 -0.6725  0.0674
 1050TIP3    H124641   5.959   5.058  10.992 -0.1352  1.7133 -0.8590
 1050TIP3    H224642   6.042   5.153  11.076 -0.1866  0.4091  0.6919
 1051TIP3   OH224643   3.523   3.979  10.797  0.1663 -0.0509  0.6834
 1051TIP3    H124644   3.524   4.016  10.886  0.6924  1.6206  0.0023
 1051TIP3    H224645   3.492   4.050  10.742 -0.2605 -1.1190 -0.4774
 1052TIP3   OH224646   3.859   4.479  11.353  0.2632 -0.0126  0.6752
 1052TIP3    H124647   3.890   4.563  11.320 -1.0892 -0.3506 -1.5809
 1052TIP3    H224648   3.765   4.491  11.365  0.2162 -0.9195  1.2834
 1053TIP3   OH224649   3.015   2.339  12.669 -0.5768  0.5479  0.0765
 1053TIP3    H124650   3.080   2.363  12.603 -0.2046 -2.0022 -0.5470
 1053TIP3    H224651   2.959   2.275  12.626 -1.1718 -0.1422  1.8091
 1054TIP3   OH224652   5.987   0.992   5.179 -0.1111 -0.3049 -0.1297
 1054TIP3    H124653   6.025   0.924   5.235 -0.1605 -0.3566 -0.1587
 1054TIP3    H224654   6.000   0.959   5.090  0.2412 -0.0819 -0.1624
 1055TIP3   OH224655   4.329   2.589   5.850  0.3675  0.2376  0.0748
 1055TIP3    H124656   4.287   2.669   5.879  0.4010 -0.3602  1.8247
 1055TIP3    H224657   4.376   2.556   5.927  1.2897 -0.8671 -0.9162
 1056TIP3   OH224658   5.987   4.690   4.370  0.2436  0.1627  0.1141
 1056TIP3    H124659   6.023   4.602   4.377 -1.2371 -0.3609  1.7446
 1056TIP3    H224660   5.899   4.677   4.334 -0.3206  0.8595  1.1900
 1057TIP3   OH224661   4.091   2.419  16.847  0.0016  0.2237  0.4559
 1057TIP3    H124662   4.074   2.400  16.755  0.7003 -0.0994  0.3896
 1057TIP3    H224663   4.177   2.460  16.848  1.0536 -1.9132  1.1819
 1058TIP3   OH224664   3.427   2.037  15.835  0.4707 -0.5921 -0.4654
 1058TIP3    H124665   3.481   2.064  15.908 -1.7039 -0.3886  1.1181
 1058TIP3    H224666   3.357   1.985  15.874 -1.8026  1.0793 -2.1130
 1059TIP3   OH224667   0.818   5.005   1.645  0.0771  0.2320  0.1499
 1059TIP3    H124668   0.867   4.990   1.564  0.3176 -0.5771  0.4378
 1059TIP3    H224669   0.733   5.038   1.615  0.3865  0.5339 -0.4051
 1060TIP3   OH224670   2.994   4.567  16.772  0.1229  0.1187 -0.0133
 1060TIP3    H124671   3.038   4.485  16.793  2.1732  1.3861  0.7750
 1060TIP3    H224672   3.026   4.590  16.685  0.7756  0.8621  0.4137
 1061TIP3   OH224673   3.428   1.967   2.743 -0.4218  0.4281 -0.0421
 1061TIP3    H124674   3.372   2.044   2.745 -1.2988 -0.2321  1.4233
 1061TIP3    H224675   3.398   1.917   2.667  0.7423  1.9230 -1.5446
 1062TIP3   OH224676   4.900   1.777  10.651 -0.4810 -0.1680  0.5954
 1062TIP3    H124677   4.918   1.855  10.704 -3.3538 -0.3925  2.0385
 1062TIP3    H224678   4.809   1.789  10.623 -0.7170 -2.6336  0.2178
 1063TIP3   OH224679   2.338   2.289   0.929  0.3872  0.1046  0.2789
 1063TIP3    H124680   2.430   2.288   0.902  0.2870 -1.5946 -0.0713
 1063TIP3    H224681   2.289   2.285   0.847 -0.0131  1.2054  0.4545
 1064TIP3   OH224682   0.581   3.812  15.020 -0.8881  0.5843 -0.1822
 1064TIP3    H124683   0.655   3.752  15.024 -0.3598  1.3172  1.5401
 1064TIP3    H224684   0.601   3.869  14.945 -0.2643  0.0903 -0.3998
 1065TIP3   OH224685   3.940   5.551   4.871  0.2346 -0.3601  0.0089
 1065TIP3    H124686   4.012   5.608   4.900  1.4557 -1.6689 -0.4327
 1065TIP3    H224687   3.953   5.542   4.777  0.3076 -1.7231  0.1429
 1066TIP3   OH224688   0.368   5.107   1.887 -0.0746 -0.7010  0.1873
 1066TIP3    H124689   0.398   5.027   1.929  1.3402 -0.3166 -0.0347
 1066TIP3    H224690   0.312   5.149   1.952 -0.4765 -1.6653  0.4622
 1067TIP3   OH224691   1.958   2.675  16.198  0.0753  0.0745  0.0103
 1067TIP3    H124692   1.881   2.647  16.248 -0.1564  1.4496  0.4617
 1067TIP3    H224693   1.921   2.722  16.123  0.4489  3.0234  1.5866
 1068TIP3   OH224694   0.302   5.470  12.739 -0.1444  0.0439 -0.1318
 1068TIP3    H124695   0.350   5.419  12.804  0.4374 -1.2326 -1.5395
 1068TIP3    H224696   0.211   5.463  12.765  0.0773 -0.5264  0.5010
 1069TIP3   OH224697   3.242   0.936  12.858  0.2597  0.2647 -0.0095
 1069TIP3    H124698   3.152   0.969  12.863  0.2037 -0.0090  0.8276
 1069TIP3    H224699   3.294   0.998  12.909  0.0753 -1.1885  2.0056
 1070TIP3   OH224700   6.312   2.340   4.827  0.5772  0.1116  0.0047
 1070TIP3    H124701   6.293   2.263   4.879 -0.1549  1.2462  1.4540
 1070TIP3    H224702   6.320   2.411   4.891 -0.3596  1.5391 -1.4231
 1071TIP3   OH224703   5.771   1.912  13.110 -0.4519  0.2659 -0.2821
 1071TIP3    H124704   5.767   1.970  13.186 -0.9555  0.1804 -0.2397
 1071TIP3    H224705   5.681   1.910  13.076 -0.5037 -0.7314 -0.0949
 1072TIP3   OH224706   1.550   3.420   3.520 -0.2343  0.3146  0.0239
 1072TIP3    H124707   1.513   3.332   3.530 -1.1202  0.5023 -1.3745
 1072TIP3    H224708   1.644   3.406   3.515 -0.3769 -0.5892 -0.3433
 1073TIP3   OH224709   2.876   3.351   3.048  0.1414  0.2121 -0.0012
 1073TIP3    H124710   2.782   3.365   3.039  0.2666  2.8006  1.8520
 1073TIP3    H224711   2.914   3.439   3.039  2.4346 -0.8697 -1.3173
 1074TIP3   OH224712   6.545   6.388  12.913  0.3037 -0.0068 -0.5425
 1074TIP3    H124713   6.597   6.313  12.941  1.1759  1.3855  1.7745
 1074TIP3    H224714   6.454   6.362  12.928  0.6271 -0.4379  0.6987
 1075TIP3   OH224715   3.344   4.106  13.102  0.3277  0.2294  0.4360
 1075TIP3    H124716   3.276   4.050  13.140  0.4562 -0.2426 -0.0230
 1075TIP3    H224717   3.301   4.191  13.089 -0.2341 -0.1360 -0.0726
 1076TIP3   OH224718   3.188   6.784   1.176 -0.4035  0.3855  0.2258
 1076TIP3    H124719   3.275   6.824   1.180 -0.1525  0.0210 -1.1967
 1076TIP3    H224720   3.165   6.767   1.267  0.2950  2.0153  0.7298
 1077TIP3   OH224721   0.356   3.985   0.192  0.0832 -0.5770  0.0834
 1077TIP3    H124722   0.294   3.937   0.246  0.0114 -0.1538  0.3827
 1077TIP3    H224723   0.430   3.925   0.180 -0.0364 -0.7847  0.3922
 1078TIP3   OH224724   6.557   5.077   3.733  0.7714 -0.1649 -0.2031
 1078TIP3    H124725   6.505   5.004   3.766 -0.4446  0.2587 -1.1452
 1078TIP3    H224726   6.497   5.151   3.734  1.2041  0.2175 -1.8086
 1079TIP3   OH224727   5.633   6.100   2.052 -0.0358 -0.4982  0.3171
 1079TIP3    H124728   5.605   6.080   1.963 -1.7268 -2.1133  1.1748
 1079TIP3    H224729   5.721   6.064   2.059  0.2438 -0.0505 -0.7961
 1080TIP3   OH224730   0.321   4.310   2.701 -0.0749 -0.8074 -0.6325
 1080TIP3    H124731   0.261   4.378   2.730  0.5440 -0.2364 -0.6840
 1080TIP3    H224732   0.408   4.342   2.726 -0.0299 -3.0567  2.2537
 1081TIP3   OH224733   5.905   2.735  15.423 -0.0193 -0.5903 -0.3273
 1081TIP3    H124734   5.989   2.697  15.398  0.7232  0.4786  0.5177
 1081TIP3    H224735   5.852   2.732  15.343  1.8184  1.4490 -1.6570
 1082TIP3   OH224736   0.437   0.235  14.888  0.6449  0.2216  0.6302
 1082TIP3    H124737   0.359   0.236  14.944  1.4036  2.5588  1.7263
 1082TIP3    H224738   0.428   0.314  14.834  2.0639  0.2853  0.4790
 1083TIP3   OH224739   4.780   0.886  14.647 -0.0365  0.3101  0.1401
 1083TIP3    H124740   4.689   0.879  14.620 -0.1148 -0.1308  0.5019
 1083TIP3    H224741   4.829   0.836  14.582  0.1966  2.3359 -1.2787
 1084TIP3   OH224742   5.861   3.106  11.629 -0.2265 -0.1299 -0.7847
 1084TIP3    H124743   5.874   3.187  11.677 -0.5457  0.1391 -1.1522
 1084TIP3    H224744   5.767   3.101  11.615 -0.3241 -1.0915  0.1514
 1085TIP3   OH224745   0.569   1.561   2.303 -0.0072  0.3049  0.0846
 1085TIP3    H124746   0.638   1.499   2.278  2.9309  2.5813  2.0975
 1085TIP3    H224747   0.575   1.631   2.237 -0.3578  0.5185  0.2802
 1086TIP3   OH224748   0.630   3.781   2.213  0.1069 -0.1135  0.5879
 1086TIP3    H124749   0.671   3.847   2.156  0.9764 -0.1766  1.1319
 1086TIP3    H224750   0.607   3.829   2.292  0.0593 -0.2999  0.6866
 1087TIP3   OH224751   0.737   6.083  12.729  0.0547 -0.4137  0.1155
 1087TIP3    H124752   0.819   6.110  12.689  0.1133  0.5676  0.8862
 1087TIP3    H224753   0.747   5.988  12.742  1.7893 -0.0234  1.8233
 1088TIP3   OH224754   1.374   4.960  16.187 -0.6509  0.1575 -0.1360
 1088TIP3    H124755   1.442   5.021  16.159  0.8586 -0.6971  1.5670
 1088TIP3    H224756   1.343   4.995  16.270  0.4236 -1.4977  0.9950
 1089TIP3   OH224757   2.670   5.893  13.893 -0.1529 -0.5396 -0.3742
 1089TIP3    H124758   2.739   5.877  13.957 -1.1021  1.2502  1.1875
 1089TIP3    H224759   2.716   5.911  13.811  1.2996  1.6126  0.8642
 1090TIP3   OH224760   5.407   0.331  13.360  0.2222 -0.6634  0.3053
 1090TIP3    H124761   5.499   0.348  13.339 -0.6998  2.3452 -1.5952
 1090TIP3    H224762   5.386   0.251  13.313  1.6282 -0.9019  0.0607
 1091TIP3   OH224763   3.907   4.747  14.437  0.3165  0.0915 -0.4394
 1091TIP3    H124764   3.832   4.777  14.386  0.3075 -3.1572 -2.4904
 1091TIP3    H224765   3.869   4.710  14.517 -0.0334  1.0525 -0.1586
 1092TIP3   OH224766   3.968   0.622   2.487 -0.2464  0.4694 -0.3422
 1092TIP3    H124767   3.990   0.662   2.571 -2.6562 -2.1335  1.6438
 1092TIP3    H224768   4.017   0.672   2.422  5.2021 -0.1688  2.9689
 1093TIP3   OH224769   3.073   0.176  13.722 -0.1914 -0.3598  0.1351
 1093TIP3    H124770   3.108   0.102  13.673  1.9457 -0.1691  1.3090
 1093TIP3    H224771   3.124   0.251  13.693 -0.8578  0.2744  0.5564
 1094TIP3   OH224772   2.271   6.016   1.471  0.1617  0.2214 -0.2020
 1094TIP3    H124773   2.296   6.063   1.392 -0.5748 -0.8217 -1.0793
 1094TIP3    H224774   2.176   6.009   1.466  0.3016 -2.0267 -0.5159
 1095TIP3   OH224775   0.935   0.088   2.719  0.4481 -0.0367  0.9511
 1095TIP3    H124776   0.876   0.049   2.784 -0.7724 -1.7146 -1.1073
 1095TIP3    H224777   1.020   0.048   2.737  0.8407  1.8026  3.4353
 1096TIP3   OH224778   0.868   1.106   2.830 -0.2132 -0.1350 -0.1347
 1096TIP3    H124779   0.832   1.058   2.904  0.1007  0.0957  0.1700
 1096TIP3    H224780   0.795   1.115   2.770 -0.6061  0.1226  0.3763
 1097TIP3   OH224781   2.073   5.106   0.816 -0.3036 -0.6186 -0.0772
 1097TIP3    H124782   2.024   5.148   0.886  1.4587 -1.4598  1.7025
 1097TIP3    H224783   2.110   5.179   0.765 -1.1267 -0.0078  0.1969
 1098TIP3   OH224784   4.012   1.192  12.467  0.2286 -0.0569  0.2233
 1098TIP3    H124785   4.077   1.248  12.426 -0.5280  1.0909  0.5769
 1098TIP3    H224786   3.949   1.252  12.505 -0.4367 -1.1460  0.8677
 1099TIP3   OH224787   3.643   3.028  13.958 -0.5486  0.2177 -0.1283
 1099TIP3    H124788   3.655   2.978  13.878 -0.9635 -3.6221  2.0834
 1099TIP3    H224789   3.723   3.080  13.965  0.9821 -1.8725 -1.3814
 1100TIP3   OH224790   3.447   3.248   5.608 -0.5750 -0.3177 -0.0981
 1100TIP3    H124791   3.533   3.263   5.569 -0.2694 -0.4288  0.5380
 1100TIP3    H224792   3.451   3.158   5.642 -0.0816  0.5473  2.1762
 1101TIP3   OH224793   1.406   3.381   5.099  0.1450  0.2622 -0.4433
 1101TIP3    H124794   1.315   3.409   5.105  0.2006  0.2295  0.7555
 1101TIP3    H224795   1.424   3.376   5.005 -1.0988  0.2132 -0.6848
 1102TIP3   OH224796   1.414   5.966  16.033  0.2865 -0.1481  0.6719
 1102TIP3    H124797   1.480   6.014  15.984  0.0844  0.2661  0.8035
 1102TIP3    H224798   1.348   5.943  15.968 -0.3511  1.0536  0.8825
 1103TIP3   OH224799   3.527   4.918   3.294  0.3327 -0.4320 -0.1543
 1103TIP3    H124800   3.473   4.892   3.369  0.4027  0.8735  0.3527
 1103TIP3    H224801   3.515   4.847   3.231 -0.8642 -0.8416  0.5149
 1104TIP3   OH224802   2.153   2.267  12.502 -0.0574 -0.6691 -0.0283
 1104TIP3    H124803   2.107   2.308  12.430 -0.3056  2.4074  1.7867
 1104TIP3    H224804   2.246   2.275  12.480 -0.0553  1.9069  0.7812
 1105TIP3   OH224805   4.827   4.053  16.762 -1.0056 -0.1493  0.0780
 1105TIP3    H124806   4.921   4.048  16.746 -0.9464  2.5442 -0.5237
 1105TIP3    H224807   4.794   3.967  16.735  0.9417 -0.2937 -2.0056
 1106TIP3   OH224808   3.696   4.691  11.919  0.2385  0.2876 -0.5018
 1106TIP3    H124809   3.706   4.780  11.952 -0.3019 -0.1729  0.9141
 1106TIP3    H224810   3.662   4.703  11.830 -1.8405  1.4529  0.4219
 1107TIP3   OH224811   0.944   3.965  12.846  0.3685  0.2877 -0.3322
 1107TIP3    H124812   0.988   3.885  12.876  0.5638  0.8340  0.8581
 1107TIP3    H224813   1.005   4.035  12.867  0.1616  0.7711 -1.3072
 1108TIP3   OH224814   1.773   6.692  12.705 -0.6241 -0.5567  0.0872
 1108TIP3    H124815   1.784   6.691  12.610 -1.3348 -0.3245 -0.0008
 1108TIP3    H224816   1.700   6.632  12.721  0.0371 -1.2426  0.5592
 1109TIP3   OH224817   5.652   0.729  14.047 -0.3955  0.6912  0.1610
 1109TIP3    H124818   5.625   0.679  13.969 -1.5490 -1.0645  1.6390
 1109TIP3    H224819   5.601   0.810  14.043  1.0983  1.5726 -1.9918
 1110TIP3   OH224820   4.178   5.082  16.229  0.6732 -0.8501 -0.3313
 1110TIP3    H124821   4.125   5.072  16.151 -0.3070  1.7348 -0.0440
 1110TIP3    H224822   4.153   5.008  16.285 -1.8050 -0.2916 -0.6533
 1111TIP3   OH224823   1.426   4.013  14.777 -0.7068 -0.2341  0.5867
 1111TIP3    H124824   1.475   3.959  14.839  0.2777 -0.1141 -0.0672
 1111TIP3    H224825   1.335   4.006  14.805 -0.6336 -2.4644  0.3398
 1112TIP3   OH224826   5.474   4.254  15.992 -0.0435  0.3751 -0.1328
 1112TIP3    H124827   5.500   4.207  16.071  0.7397 -0.7627 -1.0504
 1112TIP3    H224828   5.379   4.261  15.999  0.2754  2.7793  2.2584
 1113TIP3   OH224829   6.177   3.495  13.943 -0.1297 -0.3276  0.3903
 1113TIP3    H124830   6.171   3.475  13.849 -1.1389 -0.8783  0.5686
 1113TIP3    H224831   6.138   3.419  13.986  0.1263  0.0285  1.2523
 1114TIP3   OH224832   3.437   6.499  14.982  0.3822  0.1035  0.4936
 1114TIP3    H124833   3.434   6.586  14.942  1.2747 -0.5313 -0.9734
 1114TIP3    H224834   3.530   6.481  14.995  0.2379 -0.8405  0.2825
 1115TIP3   OH224835   0.277   3.943   5.239 -0.5934 -0.4660 -0.8067
 1115TIP3    H124836   0.232   4.018   5.278  0.8538 -0.9029  1.8415
 1115TIP3    H224837   0.218   3.869   5.255 -0.2387 -0.5516  0.1802
 1116TIP3   OH224838   4.241   4.517   6.579 -0.2379  0.2300  0.0702
 1116TIP3    H124839   4.259   4.439   6.527 -1.0854  0.1940 -0.1800
 1116TIP3    H224840   4.146   4.515   6.593 -0.0399  0.3541  1.4336
 1117TIP3   OH224841   1.726   4.426  11.331  0.1834  0.0720 -0.0493
 1117TIP3    H124842   1.680   4.353  11.290  0.7034 -0.5299  0.4393
 1117TIP3    H224843   1.665   4.500  11.323 -0.3543 -0.4151 -0.5129
 1118TIP3   OH224844   3.749   4.856   0.318 -0.0454  0.0994 -0.0146
 1118TIP3    H124845   3.830   4.904   0.302  0.7209 -0.6047  1.5985
 1118TIP3    H224846   3.757   4.776   0.267  0.4139 -0.1121  0.3897
 1119TIP3   OH224847   3.111   0.408  13.066  0.1357 -0.2739  0.1193
 1119TIP3    H124848   3.107   0.475  13.134  0.1717 -0.7372  0.5770
 1119TIP3    H224849   3.203   0.381  13.065 -0.3687 -2.0928  1.6548
 1120TIP3   OH224850   6.391   5.653  15.094 -0.3905  0.5634  0.2622
 1120TIP3    H124851   6.435   5.711  15.033 -0.8789  1.5113  0.8078
 1120TIP3    H224852   6.458   5.629  15.158  0.2666 -0.8628 -0.9278
 1121TIP3   OH224853   3.481   5.246  12.784 -0.0800  0.1361 -0.1742
 1121TIP3    H124854   3.456   5.172  12.840  0.8135  0.3102  0.4721
 1121TIP3    H224855   3.575   5.235  12.770  0.0370  1.0746 -0.1800
 1122TIP3   OH224856   3.896   0.624   1.292 -0.6895  0.6520  0.3682
 1122TIP3    H124857   3.918   0.533   1.312  1.3208  1.2279  0.8799
 1122TIP3    H224858   3.802   0.630   1.311 -1.0068 -1.4779 -0.3569
 1123TIP3   OH224859   1.433   2.288  13.115 -0.0196 -0.6063 -0.0762
 1123TIP3    H124860   1.441   2.369  13.166  0.2667 -0.5422 -0.2163
 1123TIP3    H224861   1.454   2.218  13.177 -3.2641 -0.8278  0.8456
 1124TIP3   OH224862   5.258   0.050  10.771  0.0546  0.5021 -0.1723
 1124TIP3    H124863   5.336   0.102  10.789 -0.0214  0.4325  0.3586
 1124TIP3    H224864   5.283  -0.006  10.697 -0.0511  1.6901 -1.1141
 1125TIP3   OH224865   5.816   6.162  11.858  0.6289 -0.2214  0.1945
 1125TIP3    H124866   5.740   6.104  11.859  2.7720 -3.1742 -0.9115
 1125TIP3    H224867   5.780   6.248  11.839 -2.4622 -1.4887  0.0112
 1126TIP3   OH224868   1.613   0.382  12.019 -0.4507  0.0968  0.6715
 1126TIP3    H124869   1.652   0.333  11.947  1.3096  0.5192  1.3268
 1126TIP3    H224870   1.559   0.449  11.977 -0.3282 -0.3756 -0.2385
 1127TIP3   OH224871   0.662   6.325  14.228  0.8399 -0.2734 -0.7176
 1127TIP3    H124872   0.581   6.335  14.179  0.6842 -0.7486 -0.5546
 1127TIP3    H224873   0.657   6.392  14.296  0.2988 -0.7221 -0.3145
 1128TIP3   OH224874   4.044   1.956   3.741  0.4462 -0.2897  0.3969
 1128TIP3    H124875   4.060   1.862   3.731  1.7679 -0.2850  2.2848
 1128TIP3    H224876   3.953   1.961   3.769 -0.3643 -0.8371 -2.0040
 1129TIP3   OH224877   4.429   5.910   2.029  0.7643 -0.2787  0.6884
 1129TIP3    H124878   4.429   5.955   1.945  1.7855  1.1401  1.4306
 1129TIP3    H224879   4.519   5.918   2.061 -0.1099  1.1572  2.9356
 1130TIP3   OH224880   6.602   6.648  11.509 -0.2986  0.1934 -0.0206
 1130TIP3    H124881   6.655   6.681  11.436 -0.4417 -0.2212 -0.3133
 1130TIP3    H224882   6.537   6.592  11.467 -0.0970 -0.4068  0.4734
 1131TIP3   OH224883   6.272   0.180   6.198  0.4237  0.8361 -0.2192
 1131TIP3    H124884   6.219   0.186   6.277 -0.4374  0.2423 -0.7388
 1131TIP3    H224885   6.236   0.246   6.139 -0.6448 -0.4897 -1.0816
 1132TIP3   OH224886   4.362   2.660   3.466 -0.1215 -0.0147 -0.1546
 1132TIP3    H124887   4.303   2.717   3.416  0.2297  0.6988  0.2389
 1132TIP3    H224888   4.307   2.585   3.491 -0.8426  0.5930  0.1146
 1133TIP3   OH224889   6.051   3.788  15.591 -0.1438  0.1811 -0.4523
 1133TIP3    H124890   6.039   3.713  15.532 -2.2101  0.2509 -0.1495
 1133TIP3    H224891   5.966   3.798  15.634  0.6514  1.6150  0.7987
 1134TIP3   OH224892   3.025   2.727   3.188  0.4371  0.0336 -0.7207
 1134TIP3    H124893   3.100   2.700   3.134  0.4596  0.7185 -1.0370
 1134TIP3    H224894   2.989   2.645   3.222  0.8315 -0.3566 -1.2381
 1135TIP3   OH224895   1.859   4.405   3.033 -0.0334 -0.1173  0.6413
 1135TIP3    H124896   1.932   4.420   2.973  1.1878 -0.5765  2.0121
 1135TIP3    H224897   1.785   4.450   2.991  1.2030  1.0135 -0.3708
 1136TIP3   OH224898   3.948   3.228   5.925  0.1364  0.2222  0.1988
 1136TIP3    H124899   3.933   3.308   5.875  0.7055  1.5090  1.9948
 1136TIP3    H224900   4.033   3.242   5.968  0.4313 -1.5160  0.2330
 1137TIP3   OH224901   6.430   1.187   2.511 -0.0984  0.0008  0.1024
 1137TIP3    H124902   6.523   1.181   2.533  0.0277 -0.2288 -0.5087
 1137TIP3    H224903   6.385   1.185   2.596  0.7036  4.9850  0.8125
 1138TIP3   OH224904   6.358   6.191  14.061 -0.0680 -0.0956 -0.6060
 1138TIP3    H124905   6.352   6.259  14.128 -1.7051 -1.4209  0.6215
 1138TIP3    H224906   6.429   6.134  14.089  0.8861  0.7322 -1.3074
 1139TIP3   OH224907   4.735   4.254   4.434  0.0754 -0.5814  0.3100
 1139TIP3    H124908   4.803   4.311   4.398 -0.8788 -0.2818 -1.0751
 1139TIP3    H224909   4.755   4.248   4.527  0.1613  2.0823  0.5044
 1140TIP3   OH224910   2.349   4.602  10.800 -0.3079  0.5598 -0.5326
 1140TIP3    H124911   2.316   4.559  10.879 -1.2458  0.2623 -1.0781
 1140TIP3    H224912   2.435   4.561  10.784 -1.2671 -1.2509 -1.1413
 1141TIP3   OH224913   0.332   4.799  11.836 -0.2761  0.5333 -0.0997
 1141TIP3    H124914   0.416   4.770  11.801 -0.3763  0.4510 -0.2749
 1141TIP3    H224915   0.295   4.854  11.767  0.4766  2.1083  0.7444
 1142TIP3   OH224916   4.940   0.219   3.052  0.0359 -0.4174 -0.5579
 1142TIP3    H124917   4.946   0.296   3.109 -0.9448 -0.7446  0.0018
 1142TIP3    H224918   4.890   0.248   2.976  0.2169 -0.3314 -0.6441
 1143TIP3   OH224919   5.650   1.511  16.694  0.0844 -0.0772 -0.0969
 1143TIP3    H124920   5.666   1.605  16.688 -0.8271 -0.0178 -2.1089
 1143TIP3    H224921   5.675   1.488  16.784 -0.8855  2.3017  0.8271
 1144TIP3   OH224922   0.764   6.631   4.550  0.1639  0.0778  0.1823
 1144TIP3    H124923   0.742   6.695   4.482  1.0263  0.3177  0.1189
 1144TIP3    H224924   0.814   6.563   4.504 -0.3789 -0.4180  0.3318
 1145TIP3   OH224925   5.421   1.866  12.184 -0.1865  0.2636  0.3820
 1145TIP3    H124926   5.477   1.842  12.258 -1.0872  1.2857  1.3954
 1145TIP3    H224927   5.352   1.800  12.183 -1.3048  1.3905  1.6952
 1146TIP3   OH224928   6.259   2.304   4.413  0.5780  0.4921 -0.3380
 1146TIP3    H124929   6.306   2.368   4.467 -1.3948  1.0594  0.7538
 1146TIP3    H224930   6.183   2.352   4.380 -0.3791 -1.0064 -0.3372
 1147TIP3   OH224931   0.965   2.437   0.104 -0.3829 -0.3161 -0.2982
 1147TIP3    H124932   1.031   2.432   0.173 -0.5576 -0.2686 -0.1307
 1147TIP3    H224933   0.881   2.435   0.149 -0.5187 -1.4639 -0.5775
 1148TIP3   OH224934   6.437   2.265  10.633 -0.1404 -0.4893  0.7697
 1148TIP3    H124935   6.523   2.298  10.659  0.0707  1.4874 -2.1385
 1148TIP3    H224936   6.452   2.175  10.606  0.7693 -0.5523  1.4761
 1149TIP3   OH224937   0.541   3.598   4.121 -0.6888 -0.4461 -0.0745
 1149TIP3    H124938   0.621   3.562   4.159 -0.1042  1.0674  0.1792
 1149TIP3    H224939   0.472   3.572   4.181 -0.4522 -2.1451 -0.5325
 1150TIP3   OH224940   5.943   4.429  17.011 -0.0525 -0.0523 -0.5584
 1150TIP3    H124941   5.889   4.373  17.067  0.8982 -0.5151 -0.1014
 1150TIP3    H224942   5.926   4.518  17.045 -1.0741 -0.1142 -0.8819
 1151TIP3   OH224943   6.458   5.808  11.557 -0.1819  0.1002 -0.4649
 1151TIP3    H124944   6.415   5.742  11.504  0.3814 -2.1053  1.7301
 1151TIP3    H224945   6.550   5.803  11.531 -0.1933  0.2863 -0.5433
 1152TIP3   OH224946   6.819   3.912  15.974 -0.3104  0.0616  0.1715
 1152TIP3    H124947   6.891   3.932  16.034  0.4162  0.1644 -0.7273
 1152TIP3    H224948   6.742   3.951  16.015 -0.1267 -1.2781  1.8598
 1153TIP3   OH224949   3.792   1.820  11.101 -0.0632  0.4197 -0.1639
 1153TIP3    H124950   3.873   1.840  11.149  0.2334  1.0628 -0.9235
 1153TIP3    H224951   3.796   1.726  11.085 -0.5121  0.0686  1.7053
 1154TIP3   OH224952   2.083   0.457   5.696 -0.2098  0.0578  0.1784
 1154TIP3    H124953   2.058   0.368   5.672 -0.1501  0.5533 -1.8211
 1154TIP3    H224954   2.005   0.510   5.679 -0.0954  0.4592  0.8860
 1155TIP3   OH224955   0.589   5.707   1.138 -0.4851  0.5773  0.2311
 1155TIP3    H124956   0.613   5.733   1.049 -1.6087 -0.0794 -0.2800
 1155TIP3    H224957   0.672   5.700   1.185  0.2485 -0.8278 -1.2543
 1156TIP3   OH224958   4.674   2.358   4.820  0.2409  0.0020 -0.2332
 1156TIP3    H124959   4.714   2.325   4.740 -0.8889 -1.8392 -0.0614
 1156TIP3    H224960   4.725   2.436   4.842  2.9507 -1.6061 -0.6573
 1157TIP3   OH224961   3.050   4.442   0.342 -0.4507  0.2556 -0.0390
 1157TIP3    H124962   2.983   4.480   0.399 -0.3975  0.1953  0.0638
 1157TIP3    H224963   3.112   4.401   0.402 -0.5157 -0.0081 -0.1479
 1158TIP3   OH224964   1.610   3.486   0.558 -0.4144  0.1185 -0.5546
 1158TIP3    H124965   1.531   3.457   0.512  0.3951 -1.5184 -0.9399
 1158TIP3    H224966   1.641   3.409   0.605 -0.3976  1.3932  1.6057
 1159TIP3   OH224967   1.209   1.715  14.741  0.2980  0.1412  0.3769
 1159TIP3    H124968   1.170   1.742  14.658 -0.1101  1.2416  0.9176
 1159TIP3    H224969   1.191   1.621  14.747 -0.7042  0.2921 -0.2241
 1160TIP3   OH224970   0.069   1.123   4.735  0.4071 -0.1403 -0.1152
 1160TIP3    H124971   0.005   1.068   4.778 -0.2213  0.5147 -0.2040
 1160TIP3    H224972   0.115   1.167   4.807 -0.1348  0.3866 -0.0911
 1161TIP3   OH224973   5.527   0.444   0.421  0.5866  0.1739  0.3941
 1161TIP3    H124974   5.548   0.425   0.330  0.0441 -0.5971  0.4220
 1161TIP3    H224975   5.612   0.456   0.463  0.8843 -0.6374  0.0332
 1162TIP3   OH224976   1.263   0.393   6.170  0.2981 -0.5134 -0.5910
 1162TIP3    H124977   1.241   0.475   6.214  0.2278 -0.6451 -0.3846
 1162TIP3    H224978   1.243   0.324   6.233  1.2718 -0.6374 -0.3959
 1163TIP3   OH224979   4.353   2.479  16.155 -0.0883  1.2081  0.0070
 1163TIP3    H124980   4.409   2.522  16.091 -2.3712  2.0726 -1.4834
 1163TIP3    H224981   4.371   2.525  16.237 -0.5268  3.2605 -1.0109
 1164TIP3   OH224982   1.080   3.933  15.951 -0.2518 -0.1999  0.0466
 1164TIP3    H124983   1.054   4.019  15.982 -0.6887  0.1429 -1.2262
 1164TIP3    H224984   1.085   3.879  16.030  0.9169  1.2066  0.9476
 1165TIP3   OH224985   2.868   5.920  12.701 -0.3881  0.2254  0.2156
 1165TIP3    H124986   2.887   5.937  12.609 -3.0080  0.6171 -0.2832
 1165TIP3    H224987   2.908   5.994  12.747 -0.0164  0.6136 -0.7032
 1166TIP3   OH224988   4.496   3.440  12.613 -0.0952  0.5851  0.2094
 1166TIP3    H124989   4.421   3.483  12.573  0.2118  1.1616  0.2552
 1166TIP3    H224990   4.564   3.507  12.616  0.0915  0.3665  1.1100
 1167TIP3   OH224991   4.671   3.123  17.117  0.1273  0.3082  0.2734
 1167TIP3    H124992   4.755   3.163  17.137  0.0881 -0.6973  2.6538
 1167TIP3    H224993   4.691   3.030  17.107 -0.8978 -0.1955  2.5226
 1168TIP3   OH224994   5.183   4.231   2.405  0.2461 -0.3399 -0.1719
 1168TIP3    H124995   5.252   4.255   2.467 -0.8731  1.2319  0.5101
 1168TIP3    H224996   5.203   4.280   2.326  0.4725 -0.6589 -0.3114
 1169TIP3   OH224997   0.798   2.722   3.782  0.3316  0.5604 -0.1846
 1169TIP3    H124998   0.771   2.687   3.697 -0.0667 -0.4048  0.3282
 1169TIP3    H224999   0.741   2.798   3.796  0.8519  1.1302 -1.0744
 1170TIP3   OH225000   2.582   3.235   4.019 -0.1335 -0.2237 -0.6920
 1170TIP3    H125001   2.660   3.265   4.066 -0.4024 -1.0968  0.3260
 1170TIP3    H225002   2.596   3.263   3.929  1.8329 -1.2956 -0.7337
 1171TIP3   OH225003   2.844   4.833  16.642 -0.2834 -0.1976 -0.0603
 1171TIP3    H125004   2.902   4.808  16.714 -0.8077  0.1615  0.4916
 1171TIP3    H225005   2.899   4.824  16.564  0.9909  1.5741  0.5843
 1172TIP3   OH225006   5.102   5.102  11.095 -0.3437  0.2843  1.0447
 1172TIP3    H125007   5.100   5.077  11.187  3.0150  0.7160  1.3011
 1172TIP3    H225008   5.101   5.198  11.096 -0.0776  0.2926  0.6279
 1173TIP3   OH225009   0.530   5.212   0.393  0.1015 -0.3132  0.5482
 1173TIP3    H125010   0.594   5.187   0.460  0.0559 -1.9291  0.0316
 1173TIP3    H225011   0.548   5.152   0.320  0.8362  2.0939 -1.3135
 1174TIP3   OH225012   3.985   3.751   3.676 -0.0506 -0.1799 -0.0673
 1174TIP3    H125013   3.986   3.690   3.750 -0.3538  0.7337  0.7066
 1174TIP3    H225014   4.004   3.837   3.716 -0.7323  0.3955 -0.9711
 1175TIP3   OH225015   5.867   0.824  14.792 -0.7934  0.1473 -0.2253
 1175TIP3    H125016   5.782   0.861  14.767 -1.0504 -0.3579 -0.0884
 1175TIP3    H225017   5.915   0.898  14.830 -1.5137  0.2200  0.5601
 1176TIP3   OH225018   1.977   0.783   3.006 -0.5743 -0.0309 -0.5883
 1176TIP3    H125019   2.059   0.804   2.961  1.0026  1.3490  2.7349
 1176TIP3    H225020   1.923   0.861   2.996 -0.8213 -0.2948 -1.3360
 1177TIP3   OH225021   4.686   4.543  13.938  0.1017  0.1702 -0.2168
 1177TIP3    H125022   4.615   4.592  13.980  0.9221  0.5132  0.7823
 1177TIP3    H225023   4.677   4.454  13.972  1.2935  0.6380  1.4075
 1178TIP3   OH225024   3.767   6.027   5.100 -0.2129 -0.1406 -0.0142
 1178TIP3    H125025   3.757   5.936   5.127 -1.1730  0.0547  0.2979
 1178TIP3    H225026   3.698   6.074   5.147  0.5493  0.8217  0.1701
 1179TIP3   OH225027   5.069   0.526  11.332 -0.1002 -0.4026 -0.1840
 1179TIP3    H125028   5.143   0.475  11.298 -0.4397 -1.5127  0.7032
 1179TIP3    H225029   5.108   0.586  11.395 -0.1286 -2.1567  1.5566
 1180TIP3   OH225030   4.529   0.834   2.145  0.3451  0.5660 -0.1541
 1180TIP3    H125031   4.527   0.852   2.051  1.2176 -0.1254 -0.3113
 1180TIP3    H225032   4.464   0.893   2.182 -0.2200  0.6264 -1.2317
 1181TIP3   OH225033   1.752   0.911  11.396  0.5073 -0.1567  0.5624
 1181TIP3    H125034   1.835   0.941  11.360  0.8496 -0.2468  1.2548
 1181TIP3    H225035   1.756   0.934  11.489 -1.4263  2.3971  0.0649
 1182TIP3   OH225036   6.716   0.301   0.660 -0.2737  0.4508 -0.1340
 1182TIP3    H125037   6.668   0.330   0.738  1.9901 -1.6853  2.1190
 1182TIP3    H225038   6.769   0.377   0.635 -0.0439  0.7368  1.1973
 1183TIP3   OH225039   0.080   2.890   4.424 -0.0860  0.4903  0.1148
 1183TIP3    H125040   0.051   2.981   4.417 -2.0028 -0.0782  0.2133
 1183TIP3    H225041   0.002   2.843   4.454  0.8920 -1.1789  0.0954
 1184TIP3   OH225042   2.018   0.917   6.469  0.1636  0.6339  0.3538
 1184TIP3    H125043   2.073   0.995   6.467  1.6032 -0.3550  0.0613
 1184TIP3    H225044   1.997   0.905   6.562  0.8836  0.7469  0.5396
 1185TIP3   OH225045   3.270   6.479   1.250  0.4127  0.2096 -0.6457
 1185TIP3    H125046   3.351   6.528   1.263  0.6797 -0.8091  1.7170
 1185TIP3    H225047   3.202   6.532   1.291  0.8210 -1.6713  2.6317
 1186TIP3   OH225048   1.998   2.758  10.065 -0.1645  0.6225 -0.3496
 1186TIP3    H125049   1.974   2.815  10.138 -0.2540 -1.3188  1.1678
 1186TIP3    H225050   2.083   2.722  10.090 -0.1528  0.0136 -1.2581
 1187TIP3   OH225051   4.278   6.507   5.918 -0.2696 -0.2653  0.3416
 1187TIP3    H125052   4.244   6.584   5.872  2.1000  0.4017 -0.3602
 1187TIP3    H225053   4.300   6.540   6.005 -0.4920 -0.4630  0.4729
 1188TIP3   OH225054   6.086   2.576  13.339  0.1705  0.2387  0.0020
 1188TIP3    H125055   6.110   2.568  13.431 -0.7453 -0.6052  0.1865
 1188TIP3    H225056   6.139   2.648  13.306 -0.4373  1.4041  1.5102
 1189TIP3   OH225057   0.100   1.160   1.117 -0.0070 -0.3631 -0.0082
 1189TIP3    H125058   0.028   1.187   1.059  0.9578  2.3732 -0.0260
 1189TIP3    H225059   0.064   1.088   1.169 -2.7514  0.9169 -0.0546
 1190TIP3   OH225060   6.341   5.131   4.817 -0.1542  0.1298  0.6199
 1190TIP3    H125061   6.281   5.060   4.842 -0.8888 -0.9128 -3.6058
 1190TIP3    H225062   6.285   5.209   4.812 -0.3819 -0.0392  0.4912
 1191TIP3   OH225063   4.087   6.253   0.451 -0.0409  0.4131 -0.8556
 1191TIP3    H125064   4.073   6.293   0.536  0.4714 -1.1194 -0.0234
 1191TIP3    H225065   3.999   6.243   0.414 -0.4285 -0.5494  0.2813
 1192TIP3   OH225066   6.168   5.239   0.976  0.5336  0.8144 -0.0231
 1192TIP3    H125067   6.111   5.283   0.914  0.5396  0.2994 -0.3939
 1192TIP3    H225068   6.203   5.164   0.928 -1.3298 -0.9838  1.3345
 1193TIP3   OH225069   2.738   1.556   2.829 -0.0272 -0.1077  0.1908
 1193TIP3    H125070   2.789   1.510   2.762 -1.1945  0.8596 -1.3984
 1193TIP3    H225071   2.745   1.501   2.907  1.2628 -1.3096 -0.7598
 1194TIP3   OH225072   5.040   1.493  15.925  0.2494 -0.2125  0.0908
 1194TIP3    H125073   5.086   1.484  15.842  0.3988  0.4500  0.0983
 1194TIP3    H225074   4.956   1.533  15.902  0.8124  1.2005  0.3946
 1195TIP3   OH225075   1.741   6.485  11.655 -0.1726  0.6121 -0.6911
 1195TIP3    H125076   1.745   6.496  11.750 -0.7679 -0.7254 -0.4877
 1195TIP3    H225077   1.811   6.422  11.636 -1.0626 -0.3076 -0.9310
 1196TIP3   OH225078   6.773   1.687   3.106 -0.1612  0.7242 -0.4056
 1196TIP3    H125079   6.782   1.716   3.197 -0.2645  3.5583 -1.2794
 1196TIP3    H225080   6.863   1.688   3.072 -0.0563 -0.8179 -0.2422
 1197TIP3   OH225081   3.559   5.656  13.323 -0.3889  0.6536  0.4006
 1197TIP3    H125082   3.491   5.693  13.268  0.7811  1.5690 -0.4724
 1197TIP3    H225083   3.565   5.716  13.397  0.4837  1.4174 -0.2732
 1198TIP3   OH225084   5.879   1.032   0.924 -0.4620  0.1708 -0.0183
 1198TIP3    H125085   5.890   1.000   0.834  2.6648 -0.2046  0.4365
 1198TIP3    H225086   5.817   0.971   0.964 -0.5355 -0.6934 -1.4141
 1199TIP3   OH225087   1.312   4.057  11.523  0.0519  0.1886 -0.1747
 1199TIP3    H125088   1.380   4.123  11.540 -0.4787  0.2613  1.8333
 1199TIP3    H225089   1.347   4.005  11.451  1.1387  1.7516 -0.8098
 1200TIP3   OH225090   6.139   4.821  13.052  0.3064  0.8528 -0.3844
 1200TIP3    H125091   6.160   4.733  13.021  0.6904  0.7573  0.1500
 1200TIP3    H225092   6.161   4.878  12.978 -0.7729  0.4220 -1.0574
 1201TIP3   OH225093   5.912   1.939   1.557  0.1580  0.6119  0.2988
 1201TIP3    H125094   5.835   1.937   1.615 -0.6668  0.7029 -0.7774
 1201TIP3    H225095   5.966   1.866   1.587 -0.5131  0.3327  0.8557
 1202TIP3   OH225096   6.595   3.196  11.342  0.1880 -0.4985  0.1402
 1202TIP3    H125097   6.561   3.199  11.431  0.8468  1.2227  0.3498
 1202TIP3    H225098   6.687   3.223  11.350  0.5142 -1.2370 -0.9353
 1203TIP3   OH225099   0.026   5.416   1.501  0.2408  0.6033 -0.0566
 1203TIP3    H125100   0.064   5.421   1.589 -0.6312 -0.7944  0.4063
 1203TIP3    H225101   0.033   5.506   1.467  0.4026  1.1997  1.5153
 1204TIP3   OH225102   3.609   4.739  11.668 -0.0530  0.1508  0.0365
 1204TIP3    H125103   3.578   4.680  11.600 -0.9300  0.7067 -0.0518
 1204TIP3    H225104   3.535   4.750  11.727  0.9857 -1.0719  1.6142
 1205TIP3   OH225105   0.105   0.215  14.617  0.1552 -0.3255  0.1591
 1205TIP3    H125106   0.022   0.231  14.661  0.4100 -2.4950  1.4879
 1205TIP3    H225107   0.172   0.238  14.682  0.5949 -0.0889 -0.3684
 1206TIP3   OH225108   2.417   2.281  12.451 -0.2762  0.2713  0.1214
 1206TIP3    H125109   2.445   2.357  12.400  0.0470  0.3380  0.3931
 1206TIP3    H225110   2.487   2.217  12.438 -0.1861  0.2945  0.4906
 1207TIP3   OH225111   1.180   4.927   2.579  0.3003 -0.4228 -0.1917
 1207TIP3    H125112   1.158   4.843   2.538  0.5300 -0.2533 -0.6720
 1207TIP3    H225113   1.097   4.962   2.609  0.4149 -1.6683  1.6564
 1208TIP3   OH225114   0.841   0.155   5.000 -0.4110 -0.0560  0.3080
 1208TIP3    H125115   0.759   0.128   5.041  0.8836 -1.8766  1.7982
 1208TIP3    H225116   0.822   0.157   4.906 -2.5234  0.9255  0.7437
 1209TIP3   OH225117   6.448   6.382   2.388  0.5702  0.1673  0.7593
 1209TIP3    H125118   6.516   6.410   2.449  1.4743 -0.6969  0.1537
 1209TIP3    H225119   6.495   6.350   2.312 -0.5360  0.3771 -0.0248
 1210TIP3   OH225120   6.670   2.315   5.978 -0.0681  0.0074  0.2034
 1210TIP3    H125121   6.758   2.296   6.010 -0.0527 -1.4931 -0.7049
 1210TIP3    H225122   6.657   2.408   5.997  1.1051 -0.1335  1.7659
 1211TIP3   OH225123   0.964   4.713  16.943 -0.2735 -0.2397 -0.2934
 1211TIP3    H125124   0.985   4.737  16.853 -0.8351 -1.4854 -0.7767
 1211TIP3    H225125   0.869   4.725  16.949 -0.1142  0.7319  0.4200
 1212TIP3   OH225126   0.847   0.326  12.558  0.2718 -0.2217 -0.4006
 1212TIP3    H125127   0.763   0.368  12.576  0.1482  0.0862 -1.6406
 1212TIP3    H225128   0.845   0.244  12.608 -0.5064  0.0844  0.0628
 1213TIP3   OH225129   4.821   2.235  14.926 -0.5746 -0.3094  0.2045
 1213TIP3    H125130   4.896   2.180  14.902 -0.2599 -0.6235  1.8421
 1213TIP3    H225131   4.759   2.173  14.967 -2.4315 -0.3524 -2.5525
 1214TIP3   OH225132   0.185   2.622   4.465 -0.0680 -0.2099 -0.3204
 1214TIP3    H125133   0.127   2.584   4.399 -0.2005 -0.3611 -0.1168
 1214TIP3    H225134   0.185   2.715   4.446  0.8245 -0.3920 -1.2721
 1215TIP3   OH225135   6.278   2.134   2.647 -0.5499 -0.5548 -0.3135
 1215TIP3    H125136   6.324   2.132   2.731 -2.5447  0.7044  0.8604
 1215TIP3    H225137   6.314   2.210   2.601  0.8512 -1.5001 -0.7829
 1216TIP3   OH225138   0.003   4.537  12.108  0.7751 -0.3481  0.7539
 1216TIP3    H125139   0.087   4.550  12.151  1.0106  0.4549  0.0698
 1216TIP3    H225140   0.005   4.597  12.033  0.1767 -1.3537 -0.0838
 1217TIP3   OH225141   1.868   5.271  16.107  0.2003  0.1889  0.3133
 1217TIP3    H125142   1.818   5.349  16.133 -0.0910 -0.8412  2.9329
 1217TIP3    H225143   1.956   5.304  16.088 -0.4439  1.4406 -0.6402
 1218TIP3   OH225144   0.323   6.724   5.284 -0.0284 -0.3398  0.7913
 1218TIP3    H125145   0.298   6.804   5.331 -0.9942 -0.2511  0.1403
 1218TIP3    H225146   0.255   6.661   5.306 -0.0020 -0.5657  0.2205
 1219TIP3   OH225147   1.781   5.962   3.907 -0.0290 -0.3474  0.5027
 1219TIP3    H125148   1.737   5.880   3.933 -0.1861  0.0801  1.6388
 1219TIP3    H225149   1.866   5.934   3.874 -0.7792 -1.1145 -0.8214
 1220TIP3   OH225150   1.008   0.806  12.828  0.7349  0.4910  0.3963
 1220TIP3    H125151   0.931   0.859  12.806 -0.1026  0.1671  2.4486
 1220TIP3    H225152   1.020   0.750  12.751 -0.8980  0.7598 -0.0864
 1221TIP3   OH225153   6.137   2.675   4.828  0.5728 -0.2756  0.3767
 1221TIP3    H125154   6.151   2.764   4.796  0.8658 -0.6855 -0.6609
 1221TIP3    H225155   6.053   2.679   4.874  1.2627  0.8501  1.5703
 1222TIP3   OH225156   2.244   6.673   6.295  0.2136  0.2672 -0.2738
 1222TIP3    H125157   2.166   6.655   6.348  0.5069  0.9949  0.4140
 1222TIP3    H225158   2.315   6.676   6.359  0.6564  0.5948 -0.7865
 1223TIP3   OH225159   3.270   3.537   1.956 -0.6130  0.1847  0.1524
 1223TIP3    H125160   3.361   3.537   1.927 -1.0798 -1.3740 -1.4068
 1223TIP3    H225161   3.274   3.501   2.044  0.2151 -0.6085 -0.1918
 1224TIP3   OH225162   2.064   5.606   3.199  0.5070  0.7292 -0.6210
 1224TIP3    H125163   2.072   5.514   3.227 -0.6008  1.1316  1.1530
 1224TIP3    H225164   2.146   5.647   3.225  0.2440  0.6561  0.3489
 1225TIP3   OH225165   3.886   5.929   0.493 -0.3286 -0.1478 -0.2570
 1225TIP3    H125166   3.893   6.002   0.554 -1.7392 -1.8516  2.0446
 1225TIP3    H225167   3.969   5.881   0.503 -0.6887 -0.6076  0.6091
 1226TIP3   OH225168   1.218   3.587   4.714  0.2099 -0.9094 -0.0483
 1226TIP3    H125169   1.231   3.576   4.620  1.5744 -1.5763  0.2158
 1226TIP3    H225170   1.224   3.682   4.728 -0.9998 -0.7079 -0.7620
 1227TIP3   OH225171   1.950   4.367  17.244  0.4860 -1.2526  0.4144
 1227TIP3    H125172   2.004   4.423  17.189 -0.1413 -0.7426  0.3170
 1227TIP3    H225173   1.946   4.284  17.197 -0.2616 -0.7412 -0.4305
 1228TIP3   OH225174   3.158   4.193  14.813 -0.3500 -0.1207 -0.3742
 1228TIP3    H125175   3.176   4.110  14.857 -2.8260 -1.3057 -1.5065
 1228TIP3    H225176   3.162   4.173  14.720 -1.6917  0.8540 -0.6669
 1229TIP3   OH225177   4.280   1.450  13.918 -0.4515  0.4443  0.2085
 1229TIP3    H125178   4.292   1.433  13.824  1.0560 -1.2939  0.6866
 1229TIP3    H225179   4.359   1.498  13.943 -0.5151  0.2615  0.7452
 1230TIP3   OH225180   6.518   4.688   1.227  0.3742  0.6293 -0.6097
 1230TIP3    H125181   6.574   4.765   1.241 -0.1982  1.0312 -0.5063
 1230TIP3    H225182   6.503   4.687   1.132  2.0133 -0.5144 -0.8699
 1231TIP3   OH225183   2.625   1.702   2.610 -0.2525 -0.0566 -0.8473
 1231TIP3    H125184   2.646   1.784   2.655 -0.2112 -0.1613 -0.6736
 1231TIP3    H225185   2.636   1.635   2.677  0.5237 -0.2896 -1.2066
 1232TIP3   OH225186   6.533   3.192   4.162 -0.1242 -0.0471 -0.2427
 1232TIP3    H125187   6.548   3.264   4.223 -2.7319  0.9473 -0.6901
 1232TIP3    H225188   6.525   3.233   4.076  3.1360 -1.4010 -1.2781
 1233TIP3   OH225189   3.868   2.254   0.857  0.6478 -0.5667  0.3703
 1233TIP3    H125190   3.860   2.343   0.821 -1.3400 -0.0633  1.9426
 1233TIP3    H225191   3.916   2.205   0.790  1.2346  1.5376 -0.7934
 1234TIP3   OH225192   6.437   0.277  12.811  0.2654 -0.6704  0.2517
 1234TIP3    H125193   6.526   0.245  12.825  0.4381  0.1008  0.9993
 1234TIP3    H225194   6.446   0.341  12.741 -0.0011 -1.8885 -0.9087
 1235TIP3   OH225195   3.830   4.784  13.752  0.5141  0.8611  0.0951
 1235TIP3    H125196   3.742   4.814  13.776  0.3285 -0.4554  1.1038
 1235TIP3    H225197   3.882   4.795  13.831  0.1017 -2.7056  0.9342
 1236TIP3   OH225198   1.314   0.210   0.717  0.0354  0.3420  0.1146
 1236TIP3    H125199   1.297   0.241   0.628  0.3372  0.5089  0.1172
 1236TIP3    H225200   1.228   0.182   0.749 -0.0156 -0.0664 -0.3622
 1237TIP3   OH225201   0.837   2.003  14.974  0.4201  0.2544  0.1086
 1237TIP3    H125202   0.761   1.946  14.985  1.4573 -1.4685 -1.4441
 1237TIP3    H225203   0.908   1.944  14.949  1.2399  2.3380 -2.7045
 1238TIP3   OH225204   5.559   6.411  15.763  0.3723  0.5239  0.5211
 1238TIP3    H125205   5.596   6.486  15.810  0.3409  0.8283  0.0588
 1238TIP3    H225206   5.506   6.450  15.694  1.4482  0.0611 -0.5718
 1239TIP3   OH225207   5.890   1.977   4.573  0.2444  0.3903 -0.1280
 1239TIP3    H125208   5.972   1.942   4.607  0.7712 -1.1974 -2.8837
 1239TIP3    H225209   5.902   2.072   4.574  1.8308  0.1989  0.1878
 1240TIP3   OH225210   1.140   3.076  10.839  0.4455 -0.3019 -0.2417
 1240TIP3    H125211   1.183   2.993  10.858 -0.2887 -0.7782 -0.6347
 1240TIP3    H225212   1.091   3.059  10.758  0.5584  0.6072 -0.5009
 1241TIP3   OH225213   4.758   4.490   3.872  0.5183  0.2138  0.1109
 1241TIP3    H125214   4.675   4.536   3.882  0.1751 -0.3479 -0.0960
 1241TIP3    H225215   4.780   4.501   3.779 -0.1424 -0.9918 -0.2009
 1242TIP3   OH225216   0.857   6.692   1.806  0.5284 -0.2012  0.2286
 1242TIP3    H125217   0.818   6.752   1.743  0.0778  0.0917  0.7812
 1242TIP3    H225218   0.949   6.685   1.780  0.6527  0.9517  0.3330
 1243TIP3   OH225219   3.836   3.726  12.615  0.1956 -0.1720 -0.6497
 1243TIP3    H125220   3.769   3.704  12.551 -0.9800  0.7264  0.2467
 1243TIP3    H225221   3.916   3.687  12.581 -0.2185  1.0727 -3.1250
 1244TIP3   OH225222   1.862   1.336   2.723 -0.5224  0.0362 -0.1244
 1244TIP3    H125223   1.896   1.326   2.812  0.0648 -0.0005 -0.3513
 1244TIP3    H225224   1.940   1.345   2.669 -0.7588 -2.2679 -0.9226
 1245TIP3   OH225225   6.049   4.225   5.430 -0.1052  0.3266  1.2401
 1245TIP3    H125226   6.078   4.296   5.372  3.0392 -1.5437  0.4192
 1245TIP3    H225227   5.959   4.207   5.403  1.0066  0.0899 -2.5076
 1246TIP3   OH225228   1.486   0.323  12.802 -0.0025 -0.5921 -0.3182
 1246TIP3    H125229   1.520   0.238  12.774  1.3073  0.5226 -2.2183
 1246TIP3    H225230   1.547   0.351  12.871 -2.1794 -2.5125  2.4871
 1247TIP3   OH225231   6.338   1.030  16.979  0.3997 -0.2201  0.6739
 1247TIP3    H125232   6.251   1.051  16.944 -1.1194 -0.6153  4.0495
 1247TIP3    H225233   6.356   1.100  17.042  1.8366 -1.0108  1.1620
 1248TIP3   OH225234   3.578   4.190  13.758 -0.3019 -0.5111 -0.1331
 1248TIP3    H125235   3.638   4.120  13.785 -0.7249 -0.3244  1.3243
 1248TIP3    H225236   3.490   4.154  13.773 -0.5550 -0.3708 -1.2084
 1249TIP3   OH225237   0.492   2.614  13.516  0.3426  0.4634 -0.0721
 1249TIP3    H125238   0.404   2.628  13.549 -0.4126 -0.2878 -1.6845
 1249TIP3    H225239   0.537   2.697  13.531 -0.8938  1.1317  0.0113
 1250TIP3   OH225240   1.803   1.662  11.220 -0.1288  0.2723  0.1622
 1250TIP3    H125241   1.895   1.655  11.245  0.3419 -0.3305 -1.6776
 1250TIP3    H225242   1.784   1.580  11.174 -1.0927  1.1319 -1.0089
 1251TIP3   OH225243   1.543   6.383  16.873 -0.0307 -0.1537 -0.4536
 1251TIP3    H125244   1.573   6.296  16.901  1.3689 -0.0798 -1.6735
 1251TIP3    H225245   1.449   6.382  16.889 -0.2264 -2.3546 -1.6237
 1252TIP3   OH225246   0.104   0.304  11.900  0.1566  0.3038 -0.4552
 1252TIP3    H125247   0.140   0.219  11.874 -0.7798  0.0195 -0.8362
 1252TIP3    H225248   0.179   0.352  11.934  0.5446 -0.9799  0.5514
 1253TIP3   OH225249   3.216   2.608   5.082 -0.1247  1.1871 -0.1098
 1253TIP3    H125250   3.200   2.684   5.026  1.6633  1.1562 -0.7041
 1253TIP3    H225251   3.306   2.582   5.062  0.0366  0.2587  1.6926
 1254TIP3   OH225252   4.087   4.219  10.782 -0.0404 -0.6183  0.1208
 1254TIP3    H125253   4.018   4.199  10.719 -0.3846 -0.8943  0.5850
 1254TIP3    H225254   4.125   4.134  10.806 -1.2897 -0.7113  1.8419
 1255TIP3   OH225255   2.265   0.792  11.897  0.4394 -0.5358  0.0612
 1255TIP3    H125256   2.268   0.837  11.982 -0.4425  0.9692 -0.6964
 1255TIP3    H225257   2.230   0.705  11.918  0.7248 -0.3583  1.3150
 1256TIP3   OH225258   6.451   4.457   4.682 -0.8018  0.7414  0.0451
 1256TIP3    H125259   6.508   4.530   4.707 -0.0823  0.2459 -0.1342
 1256TIP3    H225260   6.474   4.438   4.591 -0.3824 -0.2612  0.3532
 1257TIP3   OH225261   5.865   0.243  12.399  0.2694 -0.3102 -0.5253
 1257TIP3    H125262   5.880   0.199  12.483  0.0100 -0.3187 -0.4831
 1257TIP3    H225263   5.844   0.334  12.424  1.9779  0.1394 -0.6618
 1258TIP3   OH225264   0.332   5.042   1.630  0.4358 -0.0690  0.3366
 1258TIP3    H125265   0.336   4.949   1.652  0.7341  0.3214  1.9678
 1258TIP3    H225266   0.351   5.087   1.712 -0.4539  1.4424 -0.2682
 1259TIP3   OH225267   2.749   3.062   0.784 -0.1018 -0.2169  0.9151
 1259TIP3    H125268   2.690   3.000   0.740 -0.0138  0.0637  0.3923
 1259TIP3    H225269   2.696   3.141   0.797  1.0121  1.1539 -2.3460
 1260TIP3   OH225270   1.118   1.794  14.145 -0.1207 -0.1162  0.3845
 1260TIP3    H125271   1.043   1.741  14.116  0.1279 -0.5721  0.5668
 1260TIP3    H225272   1.087   1.884  14.141 -1.8359 -0.4838  3.8647
 1261TIP3   OH225273   0.892   6.713   0.377  0.1581 -0.2777  0.0554
 1261TIP3    H125274   0.820   6.654   0.401  0.2744 -0.2768  0.4035
 1261TIP3    H225275   0.940   6.665   0.310  0.3046 -0.6167  0.4010
 1262TIP3   OH225276   3.199   3.178  13.728 -0.9619  0.4292  0.1289
 1262TIP3    H125277   3.264   3.158  13.660 -1.6521 -0.8529 -0.1780
 1262TIP3    H225278   3.236   3.140  13.808 -2.8111 -3.3343 -0.6768
 1263TIP3   OH225279   0.549   2.315  14.977 -0.5015  0.5097  0.2463
 1263TIP3    H125280   0.505   2.247  14.926  0.6754  0.6196 -0.9155
 1263TIP3    H225281   0.514   2.398  14.943  0.7395  0.6043 -0.8144
 1264TIP3   OH225282   3.219   0.983   6.000 -0.1691 -0.1669 -0.1051
 1264TIP3    H125283   3.244   1.059   5.948  1.2999 -0.5003  0.0679
 1264TIP3    H225284   3.255   1.002   6.087 -0.5001 -0.6888  0.1443
 1265TIP3   OH225285   1.003   5.172  14.989  0.1616  0.1261  0.3314
 1265TIP3    H125286   0.956   5.105  14.939  0.8106  1.4554 -2.1509
 1265TIP3    H225287   1.072   5.202  14.930  0.6887  2.0621  1.8741
 1266TIP3   OH225288   4.054   1.826  12.770 -0.7472 -0.7959 -0.2484
 1266TIP3    H125289   3.991   1.896  12.751 -0.8117 -1.0512 -0.9801
 1266TIP3    H225290   4.015   1.747  12.732  0.0844 -0.9270 -0.8525
 1267TIP3   OH225291   1.170   3.208  11.940 -0.4458  0.0882 -0.1423
 1267TIP3    H125292   1.087   3.255  11.942  1.4309  3.8557 -2.8411
 1267TIP3    H225293   1.175   3.172  11.851  0.6295 -0.4649  0.1338
 1268TIP3   OH225294   0.752   0.247  14.629  0.6825  0.0173 -0.0511
 1268TIP3    H125295   0.698   0.171  14.653  0.9311 -0.7923 -1.9736
 1268TIP3    H225296   0.812   0.259  14.703 -2.2796  1.1111  2.2546
 1269TIP3   OH225297   4.597   3.009   0.428  0.5668  0.1185  0.2485
 1269TIP3    H125298   4.672   3.007   0.487 -0.9276 -0.1528  2.2043
 1269TIP3    H225299   4.583   3.102   0.410  0.2623  0.2924  1.3540
 1270TIP3   OH225300   3.644   3.650  13.220 -0.7133 -0.4706  0.1261
 1270TIP3    H125301   3.565   3.652  13.166  0.1008  0.3899 -1.0438
 1270TIP3    H225302   3.643   3.564  13.261 -2.1749 -0.5312 -0.0097
 1271TIP3   OH225303   0.977   3.994  10.945  0.2227 -0.2273 -0.0147
 1271TIP3    H125304   0.968   3.934  10.870  0.0838 -0.3784  0.1222
 1271TIP3    H225305   1.002   4.078  10.905 -1.8501  0.2208 -0.4062
 1272TIP3   OH225306   3.622   3.980  11.812 -0.5295  0.0913  0.4274
 1272TIP3    H125307   3.666   4.034  11.878  1.2483 -0.8852  0.0752
 1272TIP3    H225308   3.694   3.938  11.764 -1.7666  1.5390 -2.7925
 1273TIP3   OH225309   2.871   5.631   3.918  0.0867  0.4027  0.4017
 1273TIP3    H125310   2.870   5.567   3.847 -1.5113  0.6715  0.1625
 1273TIP3    H225311   2.849   5.581   3.996  1.0553  0.2581  0.5940
 1274TIP3   OH225312   1.342   1.143   3.828  0.1149 -0.0566  0.3541
 1274TIP3    H125313   1.383   1.214   3.878 -1.6556  1.1474  0.1362
 1274TIP3    H225314   1.373   1.157   3.738 -3.2535  2.8537 -0.4639
 1275TIP3   OH225315   1.605   1.410  15.093 -1.5280 -0.1766  0.0807
 1275TIP3    H125316   1.519   1.438  15.061 -0.9479  0.0096 -1.3615
 1275TIP3    H225317   1.629   1.336  15.037  0.1787  1.1070 -0.9595
 1276TIP3   OH225318   1.697   3.896   6.390 -0.5269 -0.2291 -0.0329
 1276TIP3    H125319   1.671   3.814   6.433  0.9887 -0.8818 -0.3348
 1276TIP3    H225320   1.710   3.873   6.298 -1.1575  0.6014 -0.3457
 1277TIP3   OH225321   3.562   6.254   3.738 -0.4552  0.6143 -0.6237
 1277TIP3    H125322   3.562   6.234   3.832 -0.6955  0.8295 -0.5801
 1277TIP3    H225323   3.475   6.229   3.708  0.1735 -1.0411 -1.1264
 1278TIP3   OH225324   5.936   6.648  12.637  0.0336 -0.1576  0.0230
 1278TIP3    H125325   5.974   6.648  12.550  0.9825  1.8415  0.4086
 1278TIP3    H225326   5.846   6.618  12.625 -0.4110  1.8942 -1.9060
 1279TIP3   OH225327   1.572   1.752   2.906 -0.4076 -0.1936 -0.2850
 1279TIP3    H125328   1.501   1.807   2.872 -1.4667 -0.9701  0.6715
 1279TIP3    H225329   1.608   1.802   2.980  1.0963  0.9241 -1.7154
 1280TIP3   OH225330   1.984   0.099  17.264  0.0147 -0.4515 -0.0379
 1280TIP3    H125331   1.982   0.174  17.324  0.2109 -0.6897  0.2691
 1280TIP3    H225332   2.010   0.025  17.320  1.4543 -0.4452 -0.6857
 1281TIP3   OH225333   6.796   1.055  11.068 -0.0251 -0.0049 -0.3142
 1281TIP3    H125334   6.776   1.135  11.018  2.1760  0.5742 -0.3420
 1281TIP3    H225335   6.850   1.086  11.141 -1.0427 -1.1965  0.9522
 1282TIP3   OH225336   2.704   2.275   1.622  0.7132  0.0234  0.5071
 1282TIP3    H125337   2.639   2.322   1.569  0.8138  0.7721  1.0469
 1282TIP3    H225338   2.654   2.240   1.696  0.5829 -0.9804 -0.0462
 1283TIP3   OH225339   4.746   4.858   0.931 -0.7374 -0.4195 -0.4368
 1283TIP3    H125340   4.697   4.839   0.851 -0.7883 -0.9464 -0.2848
 1283TIP3    H225341   4.729   4.783   0.988 -0.0569 -0.4258 -0.2377
 1284TIP3   OH225342   2.263   2.140  15.091  0.1695  0.1343  0.2984
 1284TIP3    H125343   2.176   2.163  15.058 -0.1557 -1.5884 -0.1068
 1284TIP3    H225344   2.255   2.146  15.186 -0.2122  0.5795  0.2416
 1285TIP3   OH225345   0.135   5.076  17.149 -0.2341 -0.0193  0.2517
 1285TIP3    H125346   0.093   5.002  17.105 -0.0420  0.8075 -1.3530
 1285TIP3    H225347   0.090   5.153  17.115  0.9487  0.7251  0.3361
 1286TIP3   OH225348   1.166   1.885   0.983 -0.3196 -0.4918 -0.5522
 1286TIP3    H125349   1.080   1.857   0.954 -1.4397  2.6141 -0.3860
 1286TIP3    H225350   1.158   1.894   1.078 -0.7104  2.6548 -0.8542
 1287TIP3   OH225351   2.789   2.078   2.120 -0.7446  0.2575  0.0007
 1287TIP3    H125352   2.843   2.022   2.177 -1.6195  0.4139  0.9946
 1287TIP3    H225353   2.804   2.043   2.032  0.9717  0.2946  0.2567
 1288TIP3   OH225354   1.770   2.186   0.687  0.1739 -0.6297  0.3565
 1288TIP3    H125355   1.717   2.263   0.705 -1.6267 -1.7980  0.1222
 1288TIP3    H225356   1.829   2.214   0.616 -0.7782  0.3772 -0.0492
 1289TIP3   OH225357   0.229   4.803   5.292  0.0149 -0.3948  0.0653
 1289TIP3    H125358   0.168   4.799   5.366 -0.6292  2.0505 -0.2983
 1289TIP3    H225359   0.312   4.774   5.328 -1.1816 -3.1752  0.7327
 1290TIP3   OH225360   5.350   4.194   3.345 -0.2856  0.5508 -0.0295
 1290TIP3    H125361   5.336   4.247   3.424  0.7584  0.3544  0.2961
 1290TIP3    H225362   5.392   4.114   3.377 -1.9679 -0.5443 -0.5000
 1291TIP3   OH225363   6.103   0.979  14.438 -0.2454  0.1577  0.1875
 1291TIP3    H125364   6.184   0.956  14.482 -0.3125 -1.5339 -0.5151
 1291TIP3    H225365   6.102   0.925  14.359 -2.2587 -0.2028  0.4134
 1292TIP3   OH225366   1.360   0.593  13.704 -0.0197  0.4765  0.9042
 1292TIP3    H125367   1.327   0.561  13.788  1.3677 -1.3352  0.8041
 1292TIP3    H225368   1.363   0.515  13.649  1.0197  1.2729 -0.1738
 1293TIP3   OH225369   1.434   1.768  11.057  0.1847  0.1216  0.5802
 1293TIP3    H125370   1.478   1.849  11.030  1.3368  0.0929  2.2773
 1293TIP3    H225371   1.488   1.698  11.020  1.1415  0.1025  1.9453
 1294TIP3   OH225372   3.206   0.140  11.579 -0.6584  0.0506  0.1248
 1294TIP3    H125373   3.168   0.175  11.498  2.3507  2.6609 -0.2404
 1294TIP3    H225374   3.186   0.207  11.645  1.1751  0.3085  0.4373
 1295TIP3   OH225375   2.615   1.592   0.713 -0.0488 -0.0080 -0.6215
 1295TIP3    H125376   2.646   1.517   0.764  0.5833  0.2942 -0.5656
 1295TIP3    H225377   2.520   1.581   0.711 -0.2573  0.8779  2.0277
 1296TIP3   OH225378   4.577   5.295   3.964  0.0934 -0.2129  0.8170
 1296TIP3    H125379   4.567   5.203   3.987 -0.2635 -0.2561  0.4919
 1296TIP3    H225380   4.504   5.339   4.007 -0.7574 -0.3390 -0.4679
 1297TIP3   OH225381   0.104   0.877  10.885 -0.5358  0.4717 -0.4896
 1297TIP3    H125382   0.065   0.941  10.945  2.2800 -1.1429  3.2253
 1297TIP3    H225383   0.050   0.799  10.895 -0.6605  0.5023 -0.8856
 1298TIP3   OH225384   2.569   5.168  12.131  0.2687 -0.8012  0.0874
 1298TIP3    H125385   2.495   5.164  12.193  0.4418  0.7861  0.4126
 1298TIP3    H225386   2.581   5.077  12.103 -0.3574 -1.4304  1.7507
 1299TIP3   OH225387   4.753   1.409  15.633 -0.0466 -0.1045  0.9162
 1299TIP3    H125388   4.802   1.353  15.573  1.4511  0.2742  1.7628
 1299TIP3    H225389   4.661   1.398  15.606  0.4722 -0.9236 -0.5991
 1300TIP3   OH225390   3.770   4.316   2.908  0.5410  0.4882 -0.2196
 1300TIP3    H125391   3.733   4.337   2.994  1.6359  2.9974 -0.3225
 1300TIP3    H225392   3.816   4.395   2.882  0.2377 -0.2443 -3.1317
 1301TIP3   OH225393   0.267   5.231  15.480 -0.5239 -0.3716  0.0644
 1301TIP3    H125394   0.212   5.208  15.405  0.2480 -1.0265 -0.3054
 1301TIP3    H225395   0.322   5.154  15.494  0.1982  0.2236  0.5277
 1302TIP3   OH225396   2.260   1.241  16.509  0.5537 -0.2026  0.6551
 1302TIP3    H125397   2.173   1.213  16.481  1.5102 -1.9337 -0.6471
 1302TIP3    H225398   2.271   1.328  16.469 -0.4222 -0.1312  0.5306
 1303TIP3   OH225399   2.059   2.528   3.615  0.0355 -0.6663  0.4673
 1303TIP3    H125400   2.084   2.600   3.558  0.4130 -0.6164  0.6886
 1303TIP3    H225401   2.141   2.502   3.658  0.3687 -2.7176 -1.3053
 1304TIP3   OH225402   5.979   1.281   2.082  0.4722  0.0061 -0.2502
 1304TIP3    H125403   6.048   1.224   2.049  0.7366  0.5352 -0.6123
 1304TIP3    H225404   6.014   1.316   2.163 -0.1248 -1.1932  0.5390
 1305TIP3   OH225405   0.480   1.668   2.539 -0.7185 -0.4038 -0.8144
 1305TIP3    H125406   0.505   1.625   2.457 -0.3329 -0.3187 -0.7388
 1305TIP3    H225407   0.416   1.734   2.513 -1.6077 -1.2661 -0.8926
 1306TIP3   OH225408   1.706   2.867  11.531 -0.0063  0.1425 -0.3548
 1306TIP3    H125409   1.776   2.928  11.508  0.8127 -0.5851  0.2126
 1306TIP3    H225410   1.627   2.908  11.496  0.3474  2.1912  1.1406
 1307TIP3   OH225411   2.392   4.175  11.970 -0.0740  0.2819  0.4322
 1307TIP3    H125412   2.358   4.092  12.003  0.2971 -0.4379 -0.9610
 1307TIP3    H225413   2.465   4.196  12.029 -1.4753  0.7068  2.0703
 1308TIP3   OH225414   0.929   1.654   2.558 -0.0076 -0.1364 -0.5884
 1308TIP3    H125415   0.842   1.639   2.596 -0.0339  0.2396 -0.4994
 1308TIP3    H225416   0.919   1.735   2.507  0.4756  0.2933 -0.0096
 1309TIP3   OH225417   3.567   5.401   4.914 -0.1601 -0.6745 -0.1918
 1309TIP3    H125418   3.572   5.370   4.823  1.4095  0.4324 -0.5016
 1309TIP3    H225419   3.658   5.416   4.939 -0.7310  1.5387  0.6723
 1310TIP3   OH225420   2.862   2.741   0.775 -0.1295  0.6101 -0.2133
 1310TIP3    H125421   2.855   2.708   0.686  0.2330  0.6564 -0.2602
 1310TIP3    H225422   2.935   2.803   0.773 -0.1978  0.7059  0.0869
 1311TIP3   OH225423   6.576   2.797   3.893 -0.5930 -0.1167  0.2794
 1311TIP3    H125424   6.493   2.845   3.892 -0.7798 -0.4300  0.7350
 1311TIP3    H225425   6.617   2.818   3.809 -1.1432  0.0176  0.0456
 1312TIP3   OH225426   5.529   1.777  13.103  1.1285 -0.0142  0.5098
 1312TIP3    H125427   5.560   1.688  13.119  2.0475  0.3799  0.9831
 1312TIP3    H225428   5.564   1.798  13.016  1.1933 -0.0013  0.5400
 1313TIP3   OH225429   0.952   4.164  13.178  0.1535 -0.3944  0.6202
 1313TIP3    H125430   1.000   4.173  13.096 -1.5037  0.5338 -0.2764
 1313TIP3    H225431   0.980   4.079  13.213  1.5165 -0.4129 -0.4738
 1314TIP3   OH225432   1.499   1.598   3.435 -0.5342 -0.2001  0.4434
 1314TIP3    H125433   1.427   1.555   3.389 -0.2004 -0.9738  0.6327
 1314TIP3    H225434   1.525   1.536   3.503 -0.1129  0.3476  0.7899
 1315TIP3   OH225435   3.259   5.759  16.832 -0.5062  0.5428  0.5214
 1315TIP3    H125436   3.236   5.836  16.780  0.2973  1.1376  1.0336
 1315TIP3    H225437   3.189   5.696  16.815 -0.0914  0.6063 -1.5164
 1316TIP3   OH225438   3.888   0.243  14.343 -0.5128  0.1024  0.0327
 1316TIP3    H125439   3.845   0.317  14.386  1.0467 -0.1211  2.0769
 1316TIP3    H225440   3.972   0.278  14.313 -1.7708  0.3859 -3.3982
 1317TIP3   OH225441   4.012   2.545   4.025  0.4594  0.5261  0.4274
 1317TIP3    H125442   3.937   2.605   4.013 -0.4516 -0.4603  1.0759
 1317TIP3    H225443   4.087   2.594   3.993 -0.3818  1.7713  0.3159
 1318TIP3   OH225444   6.265   5.917  11.292  0.2727  0.4000  0.1817
 1318TIP3    H125445   6.218   5.872  11.363 -0.5971  2.2134  0.7884
 1318TIP3    H225446   6.209   5.991  11.270  1.6377  1.1403 -0.8582
 1319TIP3   OH225447   6.425   2.865  12.034 -0.4889 -0.4908 -0.3016
 1319TIP3    H125448   6.453   2.782  11.995 -1.2343 -0.2649 -1.3394
 1319TIP3    H225449   6.493   2.886  12.098  0.8106 -0.8351 -1.5560
 1320TIP3   OH225450   5.997   5.103   4.289  0.1426  0.0810  0.3864
 1320TIP3    H125451   6.062   5.140   4.229  0.4121 -0.5157  0.3130
 1320TIP3    H225452   5.920   5.089   4.235  1.0736 -2.4976 -0.3440
 1321TIP3   OH225453   6.482   6.029   1.042  0.1475 -0.3010  0.1579
 1321TIP3    H125454   6.431   5.992   0.970 -1.1904 -0.2890  1.0827
 1321TIP3    H225455   6.510   6.115   1.010  0.6962 -0.8397 -0.8458
 1322TIP3   OH225456   0.101   5.779  12.986  0.5341  0.1791 -0.5064
 1322TIP3    H125457   0.116   5.797  12.893  2.8871  1.1304  0.0374
 1322TIP3    H225458   0.062   5.859  13.020 -1.4309 -0.5770 -0.8742
 1323TIP3   OH225459   5.794   1.693  13.302 -0.1407  0.1602 -0.2002
 1323TIP3    H125460   5.754   1.634  13.238  1.7034 -1.4352  0.0836
 1323TIP3    H225461   5.852   1.748  13.250  0.9640 -0.7911 -0.0006
 1324TIP3   OH225462   3.162   4.018  12.095  0.6412  0.5205 -0.2226
 1324TIP3    H125463   3.165   4.061  12.010 -0.5884  1.6959  0.3135
 1324TIP3    H225464   3.170   3.925  12.075  0.8455  0.8155 -1.5748
 1325TIP3   OH225465   2.316   6.329   3.872 -0.5193 -0.5879 -0.2263
 1325TIP3    H125466   2.406   6.318   3.903  0.7421  2.3289 -2.6604
 1325TIP3    H225467   2.263   6.285   3.938  2.5288 -0.4312  2.4536
 1326TIP3   OH225468   3.049   4.480   2.598 -0.0973  0.3673 -0.3851
 1326TIP3    H125469   2.977   4.504   2.657  0.8048 -0.8061  1.2403
 1326TIP3    H225470   3.082   4.564   2.566 -1.1673  0.9858  0.0999
 1327TIP3   OH225471   2.325   0.353   2.205 -0.0111 -0.1403  0.1244
 1327TIP3    H125472   2.322   0.273   2.153  0.8642 -0.1950  0.1549
 1327TIP3    H225473   2.237   0.390   2.196 -0.8578 -1.8251  1.2680
 1328TIP3   OH225474   3.389   4.129   4.427 -0.0329 -0.3943 -0.1102
 1328TIP3    H125475   3.457   4.176   4.378  0.4218 -0.7239  0.2010
 1328TIP3    H225476   3.338   4.084   4.359  1.2620 -1.7431 -0.2356
 1329TIP3   OH225477   0.891   0.295  16.552 -0.1826 -0.2922  0.0282
 1329TIP3    H125478   0.865   0.203  16.556  0.3527 -0.4467  0.0186
 1329TIP3    H225479   0.986   0.293  16.544 -0.0968  0.2803  0.8163
 1330TIP3   OH225480   3.988   5.324  13.210  0.2973 -0.2064  0.3737
 1330TIP3    H125481   3.895   5.323  13.232  0.2327 -0.6395  0.0900
 1330TIP3    H225482   3.991   5.358  13.120  0.4514  0.2462  0.5463
 1331TIP3   OH225483   2.385   6.023   5.398  0.1264  0.2697  0.6331
 1331TIP3    H125484   2.380   5.964   5.473 -0.6494 -0.5002 -0.0117
 1331TIP3    H225485   2.300   6.067   5.397  0.4576  0.9191  0.7134
 1332TIP3   OH225486   1.000   6.407   4.981 -0.0231  0.2740 -0.2914
 1332TIP3    H125487   0.969   6.365   4.900  1.3658  0.1151 -0.7505
 1332TIP3    H225488   0.930   6.391   5.044 -0.8932 -0.0485 -1.3243
 1333TIP3   OH225489   3.185   3.092  16.713 -0.0529 -0.1847  0.0425
 1333TIP3    H125490   3.276   3.101  16.742 -0.4198  1.2529  0.7896
 1333TIP3    H225491   3.146   3.178  16.728 -1.7561 -1.0140  0.5217
 1334TIP3   OH225492   3.964   4.120  11.598 -0.1914 -0.0552 -0.3292
 1334TIP3    H125493   3.982   4.154  11.511 -0.4015 -0.0760 -0.3790
 1334TIP3    H225494   4.049   4.086  11.628 -0.0045  0.4039 -0.3260
 1335TIP3   OH225495   5.057   1.917   6.115  0.2092  0.3650 -0.3960
 1335TIP3    H125496   4.979   1.937   6.168  0.7980 -0.0025  0.6244
 1335TIP3    H225497   5.024   1.915   6.025 -0.9904  0.1137  0.0301
 1336TIP3   OH225498   0.165   2.729   4.727  0.2096 -0.1980 -0.0662
 1336TIP3    H125499   0.148   2.675   4.650 -1.2515  0.0696  0.0601
 1336TIP3    H225500   0.197   2.668   4.793 -1.8527 -0.9978  0.2196
 1337TIP3   OH225501   2.970   0.332   0.223  0.8387 -0.0662 -0.2424
 1337TIP3    H125502   2.880   0.365   0.220  0.3194 -1.3151  1.0447
 1337TIP3    H225503   2.989   0.306   0.133  1.0070  3.0237 -1.1359
 1338TIP3   OH225504   5.270   3.266  16.128  0.2282 -0.2368  0.4007
 1338TIP3    H125505   5.269   3.196  16.194 -1.0819 -0.9224 -0.3443
 1338TIP3    H225506   5.244   3.223  16.047 -0.2484  1.0570 -0.1411
 1339TIP3   OH225507   2.215   3.618  13.024 -0.4027  0.1155 -0.0521
 1339TIP3    H125508   2.303   3.606  12.988 -0.5408  0.6431 -0.5736
 1339TIP3    H225509   2.228   3.623  13.119 -0.1915 -2.8290  0.1232
 1340TIP3   OH225510   1.234   0.008  16.205  0.3415 -0.0078 -0.5645
 1340TIP3    H125511   1.163   0.070  16.219  0.3533 -0.0265 -0.4170
 1340TIP3    H225512   1.274  -0.002  16.291 -0.2715 -0.9556 -0.3805
 1341TIP3   OH225513   2.919   3.425  17.036 -0.1032  0.5871 -0.7324
 1341TIP3    H125514   2.901   3.345  16.987  0.9243 -1.0183  1.4037
 1341TIP3    H225515   2.838   3.440  17.086  0.1728  0.1314 -0.1439
 1342TIP3   OH225516   6.512   1.995   6.125  0.4202 -0.6313 -0.6244
 1342TIP3    H125517   6.462   1.922   6.086 -0.1286  0.4084 -1.9321
 1342TIP3    H225518   6.451   2.035   6.186  0.0396 -0.0970 -1.3389
 1343TIP3   OH225519   1.384   5.123  13.731 -0.2226 -0.7271  0.1234
 1343TIP3    H125520   1.473   5.089  13.731 -0.2020 -0.7605  2.0390
 1343TIP3    H225521   1.332   5.054  13.772 -0.9131 -0.2143  0.1274
 1344TIP3   OH225522   5.849   1.006  14.558 -0.1320 -0.9071 -0.0961
 1344TIP3    H125523   5.934   0.987  14.518 -0.4397 -0.4718 -0.9778
 1344TIP3    H225524   5.791   1.023  14.484 -0.8257 -0.5261  0.5278
 1345TIP3   OH225525   0.103   3.360  15.978 -0.0158 -0.1104 -0.2103
 1345TIP3    H125526   0.083   3.322  16.064 -0.3920 -0.3150 -0.3865
 1345TIP3    H225527   0.147   3.290  15.930 -0.7779 -0.3557 -0.5601
 1346TIP3   OH225528   6.267   3.058   1.965 -0.3072 -0.1413  0.0588
 1346TIP3    H125529   6.224   3.044   1.880 -2.6456 -0.9633  1.3493
 1346TIP3    H225530   6.353   3.093   1.942 -1.3440  0.8163 -2.6298
 1347TIP3   OH225531   4.579   4.111  14.713  0.4792 -0.2648 -0.3150
 1347TIP3    H125532   4.659   4.085  14.758  0.1215 -0.0846  0.4298
 1347TIP3    H225533   4.580   4.060  14.632 -0.2630 -2.7053  1.1562
 1348TIP3   OH225534   3.026   3.020   5.560 -0.1074 -0.0470 -0.1088
 1348TIP3    H125535   3.059   2.979   5.640  1.7526  1.5562  0.0008
 1348TIP3    H225536   3.049   2.958   5.490 -1.1142 -1.1301  0.5097
 1349TIP3   OH225537   3.169   4.032   3.351  0.0781  0.0618 -0.7344
 1349TIP3    H125538   3.091   4.061   3.304  0.0174  2.1292  0.6082
 1349TIP3    H225539   3.147   4.040   3.443  0.7837 -2.3926 -0.3265
 1350TIP3   OH225540   1.137   3.921   4.354 -0.3958  0.4363  0.0333
 1350TIP3    H125541   1.203   3.935   4.287  1.6100 -1.1534  1.6180
 1350TIP3    H225542   1.165   3.976   4.427 -1.1416  0.2015  0.5005
 1351TIP3   OH225543   5.243   5.703  13.830 -0.6966 -0.6588 -0.7807
 1351TIP3    H125544   5.182   5.764  13.870 -1.5557 -1.3395 -1.0489
 1351TIP3    H225545   5.188   5.634  13.793  0.3053 -2.0366  0.2393
 1352TIP3   OH225546   5.109   0.613  17.055 -0.4051 -0.2147  0.2136
 1352TIP3    H125547   5.165   0.690  17.067  1.5133 -1.5565  0.2217
 1352TIP3    H225548   5.083   0.589  17.144  0.9716 -0.9606  0.4362
 1353TIP3   OH225549   5.475   1.390  15.244  0.2015 -0.3401  0.8398
 1353TIP3    H125550   5.448   1.318  15.188  1.2392 -2.2426  2.7210
 1353TIP3    H225551   5.407   1.456  15.232 -1.6298 -2.2689  0.2918
 1354TIP3   OH225552   4.283   6.061  11.518 -0.1250 -0.1581 -0.2351
 1354TIP3    H125553   4.325   6.109  11.590  0.6615 -1.5518  0.2491
 1354TIP3    H225554   4.192   6.051  11.546  0.3928 -1.5309  1.0266
 1355TIP3   OH225555   0.832   6.416   0.904  0.3965 -0.2063  0.8221
 1355TIP3    H125556   0.763   6.366   0.861  0.5491  0.4294 -0.1717
 1355TIP3    H225557   0.786   6.488   0.948  0.1061 -1.5295  2.7805
 1356TIP3   OH225558   6.689   4.160  13.677  0.1568 -0.1315 -0.0188
 1356TIP3    H125559   6.675   4.251  13.701 -0.5417 -0.3188  0.2970
 1356TIP3    H225560   6.774   4.138  13.715  0.8361  0.6987 -1.0227
 1357TIP3   OH225561   5.021   6.012   2.312 -0.1441 -0.6094 -0.1944
 1357TIP3    H125562   4.987   6.095   2.347 -0.0491  0.2453 -2.0800
 1357TIP3    H225563   4.974   5.999   2.230  1.4106 -1.2981 -1.0116
 1358TIP3   OH225564   5.437   5.942   3.678  0.3898 -0.1288  0.2047
 1358TIP3    H125565   5.422   5.909   3.589  0.7691  2.4508 -0.8713
 1358TIP3    H225566   5.507   5.887   3.712  0.7034 -0.7490 -1.3645
 1359TIP3   OH225567   1.828   0.630  13.107  0.1602  0.2778  0.1570
 1359TIP3    H125568   1.823   0.574  13.030 -0.2419 -1.4138  1.4048
 1359TIP3    H225569   1.920   0.627  13.133  0.1476  0.2289  0.1965
 1360TIP3   OH225570   0.787   0.606   1.220 -0.1857 -0.2980  0.4637
 1360TIP3    H125571   0.759   0.517   1.200  0.1331 -0.4280  0.5887
 1360TIP3    H225572   0.883   0.600   1.227 -0.0117  0.3691 -1.1655
 1361TIP3   OH225573   3.825   4.996   6.064  0.9735  0.6541 -0.7049
 1361TIP3    H125574   3.861   4.915   6.100  1.3724  1.2622  0.2713
 1361TIP3    H225575   3.861   5.066   6.119  0.2582  1.4650 -1.2451
 1362TIP3   OH225576   2.658   5.174   0.206  0.7022  0.6596  0.3972
 1362TIP3    H125577   2.728   5.184   0.271  1.0459  0.5707  0.0414
 1362TIP3    H225578   2.674   5.245   0.144  1.6222 -0.5293 -0.7363
 1363TIP3   OH225579   6.160   5.650   0.479 -0.4572 -0.1151  0.0769
 1363TIP3    H125580   6.214   5.587   0.432  0.0532  0.5323 -0.2238
 1363TIP3    H225581   6.206   5.733   0.468 -0.0886 -0.0290  2.1227
 1364TIP3   OH225582   2.061   3.233  13.500 -0.5131 -0.2172 -0.4246
 1364TIP3    H125583   2.146   3.234  13.543  0.4254 -0.2521 -2.2350
 1364TIP3    H225584   2.053   3.146  13.462 -0.3969  0.4799 -2.0965
 1365TIP3   OH225585   3.834   6.276  14.810  0.1198 -0.0589  0.6599
 1365TIP3    H125586   3.738   6.280  14.805  0.0808 -0.8954  0.7225
 1365TIP3    H225587   3.864   6.323  14.732 -0.3684 -2.2549 -0.8892
 1366TIP3   OH225588   6.140   0.154  10.663  0.6415 -0.3888  0.2107
 1366TIP3    H125589   6.158   0.167  10.570 -0.9904 -0.9068 -0.1893
 1366TIP3    H225590   6.046   0.140  10.668  0.5805  0.4446  2.0355
 1367TIP3   OH225591   0.161   2.859   4.145  0.4779  0.0159  0.5165
 1367TIP3    H125592   0.082   2.902   4.111 -0.9643 -2.5634  0.4089
 1367TIP3    H225593   0.144   2.849   4.238  0.3337 -1.2236  0.3638
 1368TIP3   OH225594   5.324   3.709   2.419  0.2229 -0.5765  0.2871
 1368TIP3    H125595   5.347   3.789   2.371 -0.9969 -1.0508 -1.1126
 1368TIP3    H225596   5.241   3.681   2.381 -0.1409 -1.6668  1.8331
 1369TIP3   OH225597   2.197   2.664  11.854 -0.0136  0.2678  0.1225
 1369TIP3    H125598   2.241   2.744  11.824 -0.8340  0.6016 -0.1855
 1369TIP3    H225599   2.160   2.688  11.939  0.1165  0.0796  0.2324
 1370TIP3   OH225600   6.567   0.302  16.912 -0.4336  0.5775 -0.0495
 1370TIP3    H125601   6.532   0.350  16.987  0.8070  1.1986  0.1415
 1370TIP3    H225602   6.501   0.314  16.843 -1.4702  0.1902  0.8616
 1371TIP3   OH225603   4.980   6.461  13.833  0.4910 -0.5286 -0.3556
 1371TIP3    H125604   4.982   6.381  13.781  1.0565  0.6997 -2.2791
 1371TIP3    H225605   5.064   6.503  13.817  0.9098 -0.3877  2.0338
 1372TIP3   OH225606   2.841   4.965   1.420  0.0945  0.3414 -0.1607
 1372TIP3    H125607   2.898   4.896   1.453  0.6859  2.1638  2.8168
 1372TIP3    H225608   2.880   5.046   1.453 -3.2013  1.7540  0.4581
 1373TIP3   OH225609   0.567   1.505   4.196 -0.3398  0.3181  0.1460
 1373TIP3    H125610   0.607   1.481   4.112  1.6685  3.7287  0.0501
 1373TIP3    H225611   0.596   1.437   4.257 -0.6297 -1.4021 -1.5683
 1374TIP3   OH225612   2.603   4.627  11.246  0.3588 -0.4186 -0.2717
 1374TIP3    H125613   2.661   4.660  11.314 -0.9808 -0.5988  0.9719
 1374TIP3    H225614   2.662   4.595  11.178  1.6953  0.8880  0.2561
 1375TIP3   OH225615   5.006   0.843   0.497 -0.9733  0.1631 -0.0671
 1375TIP3    H125616   4.985   0.802   0.413 -1.4808  0.5621 -0.1381
 1375TIP3    H225617   5.049   0.925   0.474 -2.2788  0.8848  0.0457
 1376TIP3   OH225618   5.124   5.697   1.934  0.0761  0.2584 -0.0107
 1376TIP3    H125619   5.122   5.786   1.970 -0.0093 -0.1044  0.9132
 1376TIP3    H225620   5.131   5.709   1.840  1.6026  1.2491  0.2025
 1377TIP3   OH225621   4.571   4.038  11.348  0.1958  0.4645 -0.2617
 1377TIP3    H125622   4.494   4.091  11.367  0.4269  0.9664 -0.6901
 1377TIP3    H225623   4.555   3.955  11.392 -1.5653 -0.2230 -2.0856
 1378TIP3   OH225624   2.243   3.856  10.945  0.1106 -0.3706  0.0132
 1378TIP3    H125625   2.327   3.820  10.917 -0.9719 -1.2834 -2.2695
 1378TIP3    H225626   2.264   3.914  11.018  2.5699 -1.4072  0.1745
 1379TIP3   OH225627   5.386   6.802   2.582 -0.1764  0.1232  0.3362
 1379TIP3    H125628   5.420   6.773   2.498 -0.5877  0.1820  0.1504
 1379TIP3    H225629   5.464   6.819   2.635  0.0750 -0.2778  0.0946
 1380TIP3   OH225630   0.716   0.608  14.218  0.8392  0.1755 -0.1705
 1380TIP3    H125631   0.657   0.533  14.206  0.8868  0.1452 -0.2157
 1380TIP3    H225632   0.747   0.627  14.129 -0.5151  1.3345 -0.4153
 1381TIP3   OH225633   0.490   1.435  12.627  0.4622  0.0785 -0.5475
 1381TIP3    H125634   0.435   1.463  12.554  0.1045 -2.1433 -1.1464
 1381TIP3    H225635   0.544   1.512  12.647 -2.1753  2.0243 -0.5639
 1382TIP3   OH225636   1.997   0.794   4.871 -0.3755 -0.5994  0.2510
 1382TIP3    H125637   1.993   0.776   4.777  1.0584 -0.5054  0.1611
 1382TIP3    H225638   2.012   0.889   4.876 -0.0560 -0.6643  0.5587
 1383TIP3   OH225639   0.825   1.192   4.153 -0.6078 -0.1937 -0.2741
 1383TIP3    H125640   0.901   1.191   4.212 -0.0694 -0.8638 -0.9760
 1383TIP3    H225641   0.750   1.207   4.211 -0.1582 -1.5349  0.6717
 1384TIP3   OH225642   2.260   5.066   5.951  0.1587  0.2929 -0.2631
 1384TIP3    H125643   2.285   5.042   6.040 -1.4164  0.8183  0.3353
 1384TIP3    H225644   2.240   4.983   5.907 -1.4475  0.1850  0.6246
 1385TIP3   OH225645   3.515   1.382  13.931  0.4312  0.1844  0.8054
 1385TIP3    H125646   3.547   1.441  14.000  0.5831 -1.0937  1.8448
 1385TIP3    H225647   3.440   1.428  13.893  1.1097  1.4597  0.9855
 1386TIP3   OH225648   3.727   3.783  11.220  0.1630 -0.4061  0.2261
 1386TIP3    H125649   3.756   3.773  11.129  1.2867 -1.3787  0.6754
 1386TIP3    H225650   3.743   3.697  11.260 -1.4975 -0.3678  1.0254
 1387TIP3   OH225651   0.184   3.122  15.034  0.1469 -0.0203 -0.1184
 1387TIP3    H125652   0.173   3.034  14.998  1.7653 -1.3123  2.4058
 1387TIP3    H225653   0.126   3.125  15.110  1.8056  0.2681  1.1664
 1388TIP3   OH225654   1.029   2.647  14.639  0.7872  0.2876  0.2428
 1388TIP3    H125655   0.955   2.616  14.588  0.9444  0.4983 -0.1130
 1388TIP3    H225656   1.107   2.622  14.589  0.9779 -0.3691  0.8542
 1389TIP3   OH225657   0.358   5.143   1.376 -0.1639 -0.4886  0.0402
 1389TIP3    H125658   0.370   5.107   1.464 -1.2422 -1.6928 -0.2995
 1389TIP3    H225659   0.401   5.080   1.318 -0.4492 -0.2769 -0.4053
 1390TIP3   OH225660   2.247   6.468   0.869 -0.9359  0.1894 -0.0712
 1390TIP3    H125661   2.281   6.557   0.878 -2.3134  0.7643 -0.5268
 1390TIP3    H225662   2.184   6.459   0.940  0.8278 -1.2194  1.3807
 1391TIP3   OH225663   3.155   2.280  16.056  0.5928  0.6513 -0.0235
 1391TIP3    H125664   3.160   2.319  15.968 -2.4539 -0.1948 -0.6014
 1391TIP3    H225665   3.093   2.335  16.103  1.4217  0.4776  1.2900
 1392TIP3   OH225666   2.004   0.347  12.651 -0.6686 -0.4519 -0.4466
 1392TIP3    H125667   2.037   0.408  12.585  0.0043 -0.7575 -0.4038
 1392TIP3    H225668   1.971   0.402  12.721  2.3329 -0.1105  0.7783
 1393TIP3   OH225669   3.885   3.738  16.734  0.2703  0.0996  0.0708
 1393TIP3    H125670   3.910   3.760  16.644 -1.6413  1.2296 -0.2066
 1393TIP3    H225671   3.838   3.654  16.726  1.9414 -0.8708  0.3044
 1394TIP3   OH225672   4.986   4.369   3.944 -0.7231  0.3800 -0.1818
 1394TIP3    H125673   4.898   4.400   3.926 -0.1283  2.1577 -0.1399
 1394TIP3    H225674   5.019   4.427   4.013  0.5245 -0.1459 -0.3162
 1395TIP3   OH225675   3.802   1.682  12.731 -0.2409  0.2275  0.1387
 1395TIP3    H125676   3.804   1.731  12.648  0.3635 -2.6587 -1.6349
 1395TIP3    H225677   3.709   1.677  12.754 -0.5019  0.2378 -0.8814
 1396TIP3   OH225678   4.859   5.895   1.864  0.6110  0.0442  0.2619
 1396TIP3    H125679   4.949   5.888   1.896  0.0802  0.7298  1.9787
 1396TIP3    H225680   4.818   5.812   1.889  0.2716  0.4695  1.1355
 1397TIP3   OH225681   6.293   5.625  14.343 -0.7165  0.4824 -0.0758
 1397TIP3    H125682   6.371   5.586  14.303  0.1147  0.6996  1.2885
 1397TIP3    H225683   6.233   5.638  14.270  1.1263  1.7758 -1.4164
 1398TIP3   OH225684   2.154   3.187  13.172 -0.1920  0.5578  0.4506
 1398TIP3    H125685   2.118   3.153  13.254 -2.4084  1.0349 -0.2917
 1398TIP3    H225686   2.160   3.110  13.115  2.6038 -0.0180  1.4525
 1399TIP3   OH225687   3.586   3.674   5.969  0.1427 -0.3086  0.0153
 1399TIP3    H125688   3.522   3.659   5.899  0.7142 -0.8892 -0.3944
 1399TIP3    H225689   3.550   3.746   6.020 -0.6282 -0.3471 -0.4658
 1400TIP3   OH225690   4.415   4.148   4.732 -0.9085  0.8097 -0.3715
 1400TIP3    H125691   4.489   4.097   4.699 -0.9398  1.2039 -1.0742
 1400TIP3    H225692   4.435   4.162   4.825 -0.2194  0.6955 -0.4964
 1401TIP3   OH225693   6.545   6.172   1.743 -0.0382 -0.0430  0.4848
 1401TIP3    H125694   6.634   6.200   1.765  0.5658 -0.6083 -1.1141
 1401TIP3    H225695   6.498   6.253   1.727 -0.2528  0.3344  2.8386
 1402TIP3   OH225696   4.402   4.445   1.272  0.0831 -0.0523 -0.0052
 1402TIP3    H125697   4.442   4.455   1.359 -1.2906 -0.2884  0.6703
 1402TIP3    H225698   4.475   4.424   1.215  1.0849  0.6282  1.0026
 1403TIP3   OH225699   5.430   5.009   1.277  0.5763  0.3733  0.8429
 1403TIP3    H125700   5.371   5.073   1.316 -1.3902 -0.4986 -0.6400
 1403TIP3    H225701   5.418   4.930   1.330  0.5084  0.2293  0.6128
 1404TIP3   OH225702   0.790   3.478   4.629  0.1496  0.1398  0.2832
 1404TIP3    H125703   0.844   3.556   4.612 -1.5978  1.0864 -1.0316
 1404TIP3    H225704   0.823   3.444   4.712  1.5456  1.7526  0.4140
 1405TIP3   OH225705   1.678   5.291  11.297 -0.4155  0.3786  0.1168
 1405TIP3    H125706   1.656   5.253  11.382 -1.4000  0.2062 -0.2115
 1405TIP3    H225707   1.766   5.327  11.309  0.0480 -0.9614  0.7689
 1406TIP3   OH225708   6.716   1.623   2.716  0.0940 -0.0609 -0.0441
 1406TIP3    H125709   6.742   1.713   2.699  0.0746 -0.1485 -0.5503
 1406TIP3    H225710   6.774   1.570   2.661 -0.9913 -0.2713 -1.0144
 1407TIP3   OH225711   0.897   4.393  11.392 -0.2359 -0.4110  0.0585
 1407TIP3    H125712   0.823   4.336  11.371  0.8299 -1.8371  0.1088
 1407TIP3    H225713   0.964   4.371  11.328 -0.2438  1.7142 -0.7280
 1408TIP3   OH225714   3.938   3.544  10.489  0.0852  0.3425 -0.4628
 1408TIP3    H125715   4.014   3.598  10.509 -1.1291  1.3899  1.5372
 1408TIP3    H225716   3.873   3.606  10.454  0.1017 -0.5107 -2.0179
 1409TIP3   OH225717   6.149   4.920   1.552 -0.2357  0.1717  0.6347
 1409TIP3    H125718   6.059   4.947   1.572 -0.3095  1.0179 -0.7491
 1409TIP3    H225719   6.195   5.002   1.534  0.1112 -0.4276 -1.3645
 1410TIP3   OH225720   1.661   1.949   4.248  0.1197 -0.3251 -0.0596
 1410TIP3    H125721   1.755   1.944   4.260  0.0962 -1.1291 -0.1888
 1410TIP3    H225722   1.642   2.043   4.245  1.1967 -0.1502 -2.2016
 1411TIP3   OH225723   5.684   3.752  11.918  0.8026  0.2771 -0.0120
 1411TIP3    H125724   5.612   3.722  11.863  0.0587 -0.3921  1.2977
 1411TIP3    H225725   5.685   3.847  11.908 -0.6515  0.3457  0.4128
 1412TIP3   OH225726   0.771   0.976  12.805  0.1014 -0.2310  0.1119
 1412TIP3    H125727   0.727   0.972  12.720  0.5068 -1.4988 -0.0572
 1412TIP3    H225728   0.726   1.045  12.853 -0.3064  0.3088 -1.0416
 1413TIP3   OH225729   3.525   2.059  12.713  0.3631 -0.0609 -0.1429
 1413TIP3    H125730   3.448   2.105  12.747  1.3739  1.3816  0.2065
 1413TIP3    H225731   3.592   2.071  12.779  0.7381 -1.8271 -0.1787
 1414TIP3   OH225732   3.941   3.652  14.217 -0.1271  0.3352 -0.3070
 1414TIP3    H125733   3.953   3.694  14.132 -0.5851  0.5999 -0.2446
 1414TIP3    H225734   3.976   3.563  14.205  0.1561  0.4920 -0.6575
 1415TIP3   OH225735   6.388   1.284   5.199  0.1297 -0.2847  0.2344
 1415TIP3    H125736   6.307   1.272   5.248  0.2872 -1.9448  0.1077
 1415TIP3    H225737   6.455   1.299   5.266 -0.0647 -0.1729  0.4034
 1416TIP3   OH225738   1.123   6.598   1.637  0.8113  0.1225 -0.4051
 1416TIP3    H125739   1.096   6.535   1.705  2.3380 -0.8903 -0.7181
 1416TIP3    H225740   1.151   6.675   1.686  0.2511  0.0535  0.0384
 1417TIP3   OH225741   0.417   5.840   6.534  0.8114 -0.2612 -0.4418
 1417TIP3    H125742   0.398   5.915   6.590  1.0196  2.2996 -3.6956
 1417TIP3    H225743   0.417   5.765   6.594 -2.1320  1.9277  2.4528
 1418TIP3   OH225744   4.891   5.287  14.364  0.2556  0.4502  0.3578
 1418TIP3    H125745   4.832   5.362  14.368 -0.0641  0.1652  1.0338
 1418TIP3    H225746   4.860   5.235  14.290 -1.0334 -0.2717  1.3844
 1419TIP3   OH225747   1.558   5.525   6.392  0.7488 -0.0618 -0.2256
 1419TIP3    H125748   1.522   5.444   6.428  1.7120 -1.0098 -1.3586
 1419TIP3    H225749   1.583   5.576   6.469 -1.2857 -0.1612  0.5310
 1420TIP3   OH225750   0.395   6.408   0.994 -0.0473 -0.0500  0.1259
 1420TIP3    H125751   0.369   6.441   0.908  2.4580 -1.1075 -1.0904
 1420TIP3    H225752   0.316   6.365   1.028 -1.4223  1.4495 -1.0794
 1421TIP3   OH225753   2.202   3.129   3.331  0.1639 -0.5571  0.2614
 1421TIP3    H125754   2.241   3.173   3.255 -1.6972  1.4994  0.4735
 1421TIP3    H225755   2.143   3.064   3.292 -1.3629  1.0130 -0.0606
 1422TIP3   OH225756   0.757   5.592   3.127  0.1497 -0.1882 -0.1105
 1422TIP3    H125757   0.736   5.658   3.061  1.0930  0.1664 -0.0638
 1422TIP3    H225758   0.695   5.608   3.198  0.1667  0.4402 -0.2361
 1423TIP3   OH225759   1.092   3.117  15.818  0.2454 -0.5275  0.0199
 1423TIP3    H125760   1.115   3.027  15.841 -1.3535 -1.5221 -2.0748
 1423TIP3    H225761   1.174   3.155  15.786  1.1794 -0.8706  1.9630
 1424TIP3   OH225762   3.038   0.372  16.300 -0.1367 -0.1134  0.4210
 1424TIP3    H125763   3.094   0.446  16.326 -1.0466  0.1680  1.6247
 1424TIP3    H225764   3.022   0.386  16.207  1.1209  0.2525  0.2521
 1425TIP3   OH225765   4.926   1.585  12.766 -0.2729  0.1867 -0.9634
 1425TIP3    H125766   4.883   1.500  12.758 -1.6674  0.8043 -0.2671
 1425TIP3    H225767   4.977   1.579  12.847  0.2053 -0.2257 -1.2944
 1426TIP3   OH225768   3.177   3.802   2.215  0.5878  0.3369  0.2229
 1426TIP3    H125769   3.088   3.823   2.244  0.5499  0.9178 -0.3139
 1426TIP3    H225770   3.220   3.768   2.294 -0.3623 -0.7657  0.2834
 1427TIP3   OH225771   0.451   2.007  13.837 -0.4450 -0.1941  0.1332
 1427TIP3    H125772   0.421   1.923  13.872  2.4137 -1.1112  0.4923
 1427TIP3    H225773   0.504   1.984  13.761  1.2342  1.1962  0.8460
 1428TIP3   OH225774   2.622   2.305   4.908  0.2062 -0.2817 -0.3143
 1428TIP3    H125775   2.648   2.391   4.941 -1.4577  0.7017 -1.4662
 1428TIP3    H225776   2.583   2.261   4.983  1.5074 -0.2410  0.4054
 1429TIP3   OH225777   5.032   2.567   3.187 -0.1867  0.4349 -0.0481
 1429TIP3    H125778   5.038   2.655   3.149  0.6187  0.1488 -0.5995
 1429TIP3    H225779   5.093   2.514   3.135 -1.2826 -0.6478 -0.2502
 1430TIP3   OH225780   4.132   1.771  17.221  0.3193  0.2436  0.2175
 1430TIP3    H125781   4.214   1.813  17.192 -0.7613  1.0768 -1.7129
 1430TIP3    H225782   4.132   1.686  17.178  0.7975 -0.3106  1.2951
 1431TIP3   OH225783   6.694   6.704   2.092 -0.0996 -0.3702 -0.3189
 1431TIP3    H125784   6.713   6.633   2.031 -0.5250 -1.8621  1.2664
 1431TIP3    H225785   6.620   6.673   2.144 -2.2540  2.4301 -1.5461
 1432TIP3   OH225786   2.374   6.718   6.047 -0.5116 -0.4082 -0.1945
 1432TIP3    H125787   2.308   6.684   6.107  0.8024 -2.1242  0.3306
 1432TIP3    H225788   2.433   6.770   6.101  0.7918 -2.1233  0.1062
 1433TIP3   OH225789   3.882   0.671   0.062  0.7986  0.1856 -0.1974
 1433TIP3    H125790   3.853   0.631   0.144 -1.8709  2.8379  0.2569
 1433TIP3    H225791   3.886   0.598  -0.000 -2.2638 -1.0953  1.0010
 1434TIP3   OH225792   4.559   6.721  11.696 -0.2091 -0.0620 -0.4490
 1434TIP3    H125793   4.606   6.760  11.622 -0.2294 -0.9540 -0.9458
 1434TIP3    H225794   4.495   6.786  11.721 -0.8310 -0.1161 -1.8277
 1435TIP3   OH225795   3.665   3.750  14.706  0.1011 -0.6411 -0.1999
 1435TIP3    H125796   3.667   3.755  14.611  0.4977 -0.9435 -0.2081
 1435TIP3    H225797   3.643   3.839  14.734  0.0132 -0.5460 -0.5678
 1436TIP3   OH225798   4.076   4.625  13.098  0.2498  0.2783 -0.1983
 1436TIP3    H125799   4.152   4.590  13.050  0.3289  0.0020  0.1194
 1436TIP3    H225800   4.014   4.552  13.101 -0.2850  0.6938 -0.9845
 1437TIP3   OH225801   0.226   0.650  12.679  0.3632  0.2577 -0.3550
 1437TIP3    H125802   0.139   0.683  12.701  1.1833  1.2076  1.5832
 1437TIP3    H225803   0.236   0.669  12.586 -0.3296  2.9429  0.0814
 1438TIP3   OH225804   0.609   0.995   0.921  0.3575  0.0890  0.2132
 1438TIP3    H125805   0.517   1.021   0.914  0.4096  0.1222 -0.3621
 1438TIP3    H225806   0.643   1.046   0.994  0.2895  1.1632 -0.4940
 1439TIP3   OH225807   5.000   0.155  13.357  0.1067 -0.2911  0.2920
 1439TIP3    H125808   5.038   0.242  13.354  0.2607 -0.2459  2.5400
 1439TIP3    H225809   5.074   0.096  13.371 -0.2759 -0.5102  1.4819
 1440TIP3   OH225810   2.107   1.290  16.140 -0.3334  0.1967 -0.1794
 1440TIP3    H125811   2.116   1.237  16.060 -2.7914  1.7028 -1.5262
 1440TIP3    H225812   2.063   1.231  16.202  0.4932 -0.5912 -0.3328
 1441TIP3   OH225813   0.716   4.083  16.529  0.0256 -0.5866 -0.3713
 1441TIP3    H125814   0.649   4.028  16.490  0.4397 -1.3305 -0.0462
 1441TIP3    H225815   0.744   4.141  16.458 -1.6427  0.4022 -0.2547
 1442TIP3   OH225816   3.651   2.539   3.920 -0.0153 -0.8441 -0.3014
 1442TIP3    H125817   3.561   2.506   3.920 -0.8718  1.3916  0.3562
 1442TIP3    H225818   3.651   2.608   3.854  0.8154  0.1660  0.7355
 1443TIP3   OH225819   0.522   0.120  16.346 -0.3214  0.2497  0.8898
 1443TIP3    H125820   0.445   0.139  16.293 -0.0953 -2.8401 -0.6771
 1443TIP3    H225821   0.595   0.159  16.298 -0.3429 -1.0456 -0.2409
 1444TIP3   OH225822   1.831   3.584  15.378 -0.0348  0.0611  0.6490
 1444TIP3    H125823   1.927   3.586  15.382  0.0541 -0.3036 -1.1877
 1444TIP3    H225824   1.805   3.674  15.393  0.6497  0.3678  0.0380
 1445TIP3   OH225825   2.994   1.553   1.874 -0.6703 -0.3257  0.3453
 1445TIP3    H125826   2.994   1.459   1.852 -1.0762 -0.1364 -0.4978
 1445TIP3    H225827   2.902   1.577   1.877 -0.5365  0.3404 -0.7618
 1446TIP3   OH225828   0.542   6.045  16.740 -0.3102 -0.0363 -0.3571
 1446TIP3    H125829   0.520   6.098  16.817 -0.7246  0.0754 -0.5474
 1446TIP3    H225830   0.467   6.057  16.682  0.5034  0.7943 -1.2578
 1447TIP3   OH225831   4.664   1.288  11.916  0.0607 -0.2246 -0.6105
 1447TIP3    H125832   4.740   1.244  11.878 -0.1754 -0.2448 -1.0704
 1447TIP3    H225833   4.591   1.263  11.859 -0.7733 -2.2680  1.3200
 1448TIP3   OH225834   4.122   3.770  11.451 -0.0496  0.9096  0.4122
 1448TIP3    H125835   4.030   3.751  11.471  0.7493 -1.1352  2.2994
 1448TIP3    H225836   4.128   3.760  11.356 -1.0979 -2.2816  0.6186
 1449TIP3   OH225837   4.709   2.570   4.504 -0.1449 -0.0196  0.7671
 1449TIP3    H125838   4.757   2.641   4.546 -1.0122  0.2131  1.3856
 1449TIP3    H225839   4.708   2.500   4.570  1.4896 -0.9599 -0.1714
 1450TIP3   OH225840   1.693   6.805   5.254 -0.3824 -0.2697 -0.4657
 1450TIP3    H125841   1.631   6.878   5.254 -2.4129 -1.9321 -0.3249
 1450TIP3    H225842   1.763   6.833   5.195 -1.3734  1.5794 -0.8182
 1451TIP3   OH225843   0.337   4.600  14.517  0.1002 -0.1163  0.2932
 1451TIP3    H125844   0.260   4.614  14.572  0.4067 -2.1423  1.2717
 1451TIP3    H225845   0.406   4.650  14.559 -0.1350 -0.1096  0.6731
 1452TIP3   OH225846   1.275   6.479   4.138 -0.3481  0.5620  0.4436
 1452TIP3    H125847   1.359   6.449   4.171 -1.1004 -0.4823  1.4281
 1452TIP3    H225848   1.288   6.573   4.120  1.5317  0.0324 -1.0978
 1453TIP3   OH225849   2.885   4.097   4.687  0.0661 -0.1901  0.0003
 1453TIP3    H125850   2.913   4.182   4.721  0.6726  0.8780 -2.9894
 1453TIP3    H225851   2.807   4.074   4.738 -0.0877  2.1509  0.8491
 1454TIP3   OH225852   6.751   2.429   2.564 -0.0804  0.8190  0.1619
 1454TIP3    H125853   6.759   2.369   2.490 -2.1493 -0.3298  0.8123
 1454TIP3    H225854   6.679   2.487   2.539  0.2007  1.3651  0.6288
 1455TIP3   OH225855   3.763   4.265   2.452  0.0964 -0.4493  0.1112
 1455TIP3    H125856   3.686   4.292   2.503 -0.1952 -0.0439 -0.5309
 1455TIP3    H225857   3.727   4.218   2.377  0.4977 -0.5804 -0.0002
 1456TIP3   OH225858   4.497   2.497   3.918  0.1754  0.4317  0.3195
 1456TIP3    H125859   4.485   2.457   3.832 -0.2824  1.2749 -0.0117
 1456TIP3    H225860   4.468   2.430   3.980 -2.0911  0.8078 -0.2875
 1457TIP3   OH225861   2.609   2.913  16.383  0.7861 -0.1828 -0.2458
 1457TIP3    H125862   2.692   2.866  16.386  1.7942  1.3889 -2.2378
 1457TIP3    H225863   2.610   2.957  16.298 -2.7170 -1.2685 -0.9259
 1458TIP3   OH225864   0.862   1.700  13.443  0.1684  0.2423 -0.0728
 1458TIP3    H125865   0.827   1.786  13.417 -0.0753 -0.3097 -1.6038
 1458TIP3    H225866   0.869   1.651  13.361  1.5943 -0.7386  0.6201
 1459TIP3   OH225867   5.712   5.778  15.469 -0.3790  0.0139 -0.3528
 1459TIP3    H125868   5.721   5.838  15.542 -2.1069  0.9749 -0.8940
 1459TIP3    H225869   5.687   5.833  15.395 -0.5654 -1.1742 -1.2007
 1460TIP3   OH225870   4.073   5.334   1.296 -0.3685 -0.3474  0.4926
 1460TIP3    H125871   4.034   5.274   1.232  1.0074 -0.8411  0.0951
 1460TIP3    H225872   4.092   5.279   1.372  1.5660 -0.6125 -0.1437
 1461TIP3   OH225873   2.268   3.366  14.661 -0.0471 -0.4167  0.5150
 1461TIP3    H125874   2.237   3.383  14.750 -1.2163  1.7412 -0.2534
 1461TIP3    H225875   2.286   3.453  14.625 -1.4763 -1.1117 -1.9981
 1462TIP3   OH225876   6.374   1.349  13.943 -0.5053  0.1867  0.6971
 1462TIP3    H125877   6.314   1.276  13.960  0.5610 -0.8157  0.2329
 1462TIP3    H225878   6.317   1.422  13.921 -1.6684 -0.0918  2.6257
 1463TIP3   OH225879   2.717   4.585  12.528  0.1513 -0.2911 -0.7870
 1463TIP3    H125880   2.707   4.618  12.439 -0.5679 -0.3300 -0.7170
 1463TIP3    H225881   2.789   4.637  12.565 -0.7806  0.9874 -0.7674
 1464TIP3   OH225882   6.101   5.346   5.778  0.2451 -0.4746 -0.1313
 1464TIP3    H125883   6.043   5.307   5.712  0.5201 -0.8126 -0.1690
 1464TIP3    H225884   6.137   5.424   5.734 -1.9668  1.0688  0.6705
 1465TIP3   OH225885   0.606   4.102  12.491 -0.6044  0.0472  0.2797
 1465TIP3    H125886   0.597   4.071  12.401  0.5561  0.9155 -0.1381
 1465TIP3    H225887   0.541   4.172  12.499  0.0301  0.6828 -0.1943
 1466TIP3   OH225888   2.346   6.116  15.912 -0.0278  0.4368  0.2378
 1466TIP3    H125889   2.311   6.099  16.000  0.5637 -0.3474  0.3309
 1466TIP3    H225890   2.312   6.202  15.889  0.8298  1.1960  1.7431
 1467TIP3   OH225891   3.299   1.175   6.562  0.3232  0.3795 -0.3182
 1467TIP3    H125892   3.376   1.226   6.539 -0.2490  1.3701 -0.1147
 1467TIP3    H225893   3.324   1.084   6.549  1.5422  0.6950 -0.1729
 1468TIP3   OH225894   0.269   0.837   3.146  0.4855  0.3374 -0.0928
 1468TIP3    H125895   0.262   0.764   3.208 -0.4674  0.7071  0.2368
 1468TIP3    H225896   0.219   0.808   3.070  2.7173 -0.6538 -1.2272
 1469TIP3   OH225897   4.804   5.440   3.869 -0.3569  0.5004  0.4928
 1469TIP3    H125898   4.726   5.394   3.898 -1.0018  0.7963 -0.6945
 1469TIP3    H225899   4.861   5.372   3.833 -0.2372  0.3301  1.0074
 1470TIP3   OH225900   0.948   0.040  14.564  0.3926  0.3841  0.1509
 1470TIP3    H125901   0.947   0.134  14.546 -0.6402 -0.0665 -2.4420
 1470TIP3    H225902   0.873   0.026  14.621 -0.8776  0.8502 -1.3432
 1471TIP3   OH225903   1.905   2.491   3.250  0.1232  0.2500  0.0779
 1471TIP3    H125904   1.836   2.545   3.290  0.3871  0.2630  0.5169
 1471TIP3    H225905   1.866   2.460   3.168  0.0979  1.4114 -0.3667
 1472TIP3   OH225906   3.810   6.018  13.380  0.6555 -0.6862  0.6332
 1472TIP3    H125907   3.805   6.018  13.475 -0.0582  0.4190  0.6018
 1472TIP3    H225908   3.860   6.096  13.358 -0.7121  0.0527  0.0437
 1473TIP3   OH225909   5.260   4.566  14.289  0.4389 -0.2731  0.0889
 1473TIP3    H125910   5.232   4.542  14.377  1.2250 -0.8062  0.1915
 1473TIP3    H225911   5.232   4.493  14.234  1.1387 -0.5598  0.1083
 1474TIP3   OH225912   2.361   6.476  15.222  0.0701  0.3195 -0.1040
 1474TIP3    H125913   2.387   6.392  15.185  1.6968  0.3707  0.8865
 1474TIP3    H225914   2.318   6.454  15.304  1.6207  0.4988  0.7771
 1475TIP3   OH225915   4.373   6.579   3.623 -0.0687 -0.4001 -0.2308
 1475TIP3    H125916   4.280   6.580   3.602 -0.8065 -0.3852  2.8107
 1475TIP3    H225917   4.379   6.524   3.702  2.5883 -1.0129 -0.8087
 1476TIP3   OH225918   2.490   4.472   3.608  0.2660  0.2059 -0.2924
 1476TIP3    H125919   2.451   4.418   3.540 -1.2485  0.3159  0.4689
 1476TIP3    H225920   2.439   4.452   3.687  0.3585  1.9580  0.2319
 1477TIP3   OH225921   3.224   0.092  15.589 -0.4018 -0.0752  0.2565
 1477TIP3    H125922   3.314   0.111  15.618 -0.9209  1.4745  0.9294
 1477TIP3    H225923   3.197   0.018  15.643 -0.2637  0.8403  1.6330
 1478TIP3   OH225924   4.836   2.754   4.646  0.3242  0.4128  0.3229
 1478TIP3    H125925   4.864   2.694   4.714  0.8825  0.6871  0.3370
 1478TIP3    H225926   4.916   2.799   4.619  0.0147  0.7025 -0.1213
 1479TIP3   OH225927   0.695   2.669   5.571 -0.2482  0.0118 -0.1222
 1479TIP3    H125928   0.762   2.601   5.581 -0.6795 -0.2634  0.9919
 1479TIP3    H225929   0.745   2.751   5.564  0.3960 -0.6143 -4.0745
 1480TIP3   OH225930   1.774   0.402   5.314  0.1536 -0.5129  0.0145
 1480TIP3    H125931   1.855   0.352   5.307  0.1129 -0.7136  0.9082
 1480TIP3    H225932   1.752   0.399   5.407 -0.1860  0.6518 -0.0213
 1481TIP3   OH225933   4.681   5.292  14.847 -0.0862 -0.5350 -0.7650
 1481TIP3    H125934   4.665   5.268  14.938  1.8330 -2.4690 -0.8988
 1481TIP3    H225935   4.734   5.371  14.852 -1.8517  0.6520 -0.2585
 1482TIP3   OH225936   0.647   4.245  11.445 -0.5747  1.0396  0.0633
 1482TIP3    H125937   0.577   4.221  11.505  1.6825 -1.9012  1.6451
 1482TIP3    H225938   0.606   4.248  11.359 -2.4505 -1.6315  0.8179
 1483TIP3   OH225939   1.300   5.085   2.929  0.2527  0.7010  0.0736
 1483TIP3    H125940   1.347   5.164   2.902 -1.0449  0.9821 -1.4441
 1483TIP3    H225941   1.212   5.096   2.894 -0.0283 -1.3012  0.0820
 1484TIP3   OH225942   5.238   1.385   2.650  0.1814  0.5549  0.4635
 1484TIP3    H125943   5.305   1.392   2.582  0.8965  0.4880  1.1367
 1484TIP3    H225944   5.276   1.323   2.713 -0.5023  0.5511  0.8763
 1485TIP3   OH225945   4.110   4.406   1.825  0.5301 -0.3238  0.1449
 1485TIP3    H125946   4.071   4.326   1.792 -1.1607 -0.1196  1.5485
 1485TIP3    H225947   4.163   4.379   1.899  2.3128 -0.4808 -1.1687
 1486TIP3   OH225948   6.312   1.479   5.999 -0.4592  0.0516  0.4720
 1486TIP3    H125949   6.371   1.435   6.060 -0.3984  0.9374  1.0665
 1486TIP3    H225950   6.240   1.417   5.986  1.0920 -1.5235 -1.1295
 1487TIP3   OH225951   6.657   2.851  13.280  0.6341  0.2570 -0.4476
 1487TIP3    H125952   6.657   2.770  13.229 -1.2325 -0.3548  0.4926
 1487TIP3    H225953   6.671   2.823  13.371  0.6931  1.0489 -0.2055
 1488TIP3   OH225954   1.156   5.164  15.387 -0.4147 -0.0994 -0.2612
 1488TIP3    H125955   1.085   5.129  15.440  0.1739  0.0035  0.6057
 1488TIP3    H225956   1.113   5.218  15.321 -1.0857  0.7194  0.8312
 1489TIP3   OH225957   3.724   4.947  11.979 -0.9404 -0.2389  0.2113
 1489TIP3    H125958   3.649   5.002  11.956  0.2118  1.2017 -0.1967
 1489TIP3    H225959   3.779   5.004  12.032  0.3048 -0.9816 -0.2755
 1490TIP3   OH225960   1.230   4.513   3.377  0.2278 -0.5910 -0.7092
 1490TIP3    H125961   1.209   4.510   3.283 -2.4379 -1.6402 -0.1170
 1490TIP3    H225962   1.156   4.470   3.420  2.0153 -1.2593  1.8136
 1491TIP3   OH225963   0.025   2.418  14.915 -0.6477  0.5413 -1.0303
 1491TIP3    H125964   0.015   2.499  14.966 -1.4571  0.4161 -0.9914
 1491TIP3    H225965   0.007   2.348  14.978 -1.5823  0.3831 -1.4778
 1492TIP3   OH225966   4.729   1.556   0.366  0.4651 -0.4655 -0.3090
 1492TIP3    H125967   4.732   1.559   0.462 -1.0610 -0.7229 -0.2409
 1492TIP3    H225968   4.706   1.465   0.346  0.4534 -0.3277 -0.9201
 1493TIP3   OH225969   4.860   5.547  16.786  0.5376  0.0258 -0.7970
 1493TIP3    H125970   4.764   5.552  16.777  0.5912 -0.8401 -1.9078
 1493TIP3    H225971   4.893   5.599  16.713  0.9313  1.1674  0.1638
 1494TIP3   OH225972   3.599   1.106   1.928  0.2574 -0.1104  0.3478
 1494TIP3    H125973   3.624   1.127   2.018  0.0134 -0.3765  0.4819
 1494TIP3    H225974   3.616   1.012   1.920  0.0287 -0.1404  0.2024
 1495TIP3   OH225975   3.597   1.284  14.765  0.2144  0.1719 -0.3961
 1495TIP3    H125976   3.537   1.221  14.725  1.7683 -1.7311  0.2184
 1495TIP3    H225977   3.634   1.332  14.691  0.3873 -0.8766 -0.9857
 1496TIP3   OH225978   2.108   1.882   0.492  0.0301 -0.3113  0.3201
 1496TIP3    H125979   2.019   1.869   0.460  0.7537 -2.4071 -0.9560
 1496TIP3    H225980   2.163   1.870   0.414  1.5944 -1.9436  1.6530
 1497TIP3   OH225981   1.836   1.207   5.615 -0.2435  0.2689 -0.6052
 1497TIP3    H125982   1.880   1.145   5.557 -1.4997 -1.3188  0.0969
 1497TIP3    H225983   1.902   1.273   5.635  1.0765 -0.7805 -1.4835
 1498TIP3   OH225984   4.398   6.508  11.018  0.3390 -0.1788 -0.5705
 1498TIP3    H125985   4.377   6.439  10.955  2.1381 -1.0569 -0.2481
 1498TIP3    H225986   4.478   6.477  11.062  0.1710  1.2876  0.8231
 1499TIP3   OH225987   4.134   2.293  12.839  0.2669  0.4979  0.2554
 1499TIP3    H125988   4.050   2.279  12.883  0.7453 -1.5352  0.5653
 1499TIP3    H225989   4.115   2.280  12.746  0.2481 -0.0136  0.3303
 1500TIP3   OH225990   5.727   6.647   1.840 -0.3694  0.5410  0.1068
 1500TIP3    H125991   5.637   6.667   1.814 -0.0023  1.9287 -0.1628
 1500TIP3    H225992   5.731   6.673   1.932 -0.3171  0.2557  0.1834
 1501TIP3   OH225993   4.058   5.140   5.782 -0.7230  0.2937 -0.1473
 1501TIP3    H125994   4.112   5.187   5.845  0.3540 -1.3861  0.2132
 1501TIP3    H225995   4.038   5.057   5.826 -3.2963  0.7292 -0.4128
 1502TIP3   OH225996   5.216   1.783  12.446  0.2567  0.6821 -0.3412
 1502TIP3    H125997   5.247   1.866  12.482  0.3218 -0.0726  1.3774
 1502TIP3    H225998   5.149   1.753  12.507  0.0216 -0.3905 -1.1045
 1503TIP3   OH225999   6.472   2.260  13.210 -0.3271  0.0054 -0.4055
 1503TIP3    H126000   6.514   2.337  13.171  0.4828  0.0631  0.5690
 1503TIP3    H226001   6.433   2.214  13.136  1.5853 -0.1304 -1.3585
 1504TIP3   OH226002   3.490   4.790   4.789  0.9741  0.0098  0.3623
 1504TIP3    H126003   3.466   4.763   4.877 -0.7418 -0.9020 -0.3629
 1504TIP3    H226004   3.448   4.874   4.776 -0.9701 -1.0610 -0.4981
 1505TIP3   OH226005   4.941   5.075   3.805  0.4943  0.2867  0.2646
 1505TIP3    H126006   4.935   5.042   3.895 -2.5626 -1.2615 -0.4514
 1505TIP3    H226007   4.853   5.105   3.785  0.6033 -1.5009 -3.0389
 1506TIP3   OH226008   3.922   0.070  16.533  0.0031 -0.0459  0.1354
 1506TIP3    H126009   3.995   0.029  16.486 -0.2627 -0.2531 -0.0998
 1506TIP3    H226010   3.951   0.160  16.549 -0.1089  0.1780 -0.8824
 1507TIP3   OH226011   4.684   3.818  10.328 -0.0761 -1.0704 -0.2708
 1507TIP3    H126012   4.716   3.775  10.407  1.2409  0.4047  0.0205
 1507TIP3    H226013   4.613   3.874  10.358  1.4636  0.6945  0.1391
 1508TIP3   OH226014   0.971   5.742   2.512  0.3463  0.5721  0.1637
 1508TIP3    H126015   0.877   5.743   2.529  0.0585  0.6381 -1.4223
 1508TIP3    H226016   1.010   5.770   2.595 -1.1016  2.2968  0.2851
 1509TIP3   OH226017   4.508   1.245  10.508  0.4881  0.5070  0.5218
 1509TIP3    H126018   4.503   1.340  10.515 -0.3466  0.4241  1.0853
 1509TIP3    H226019   4.462   1.224  10.426  1.9948  0.7011 -0.3982
 1510TIP3   OH226020   2.893   6.356  11.337  0.2606 -0.4259  0.1763
 1510TIP3    H126021   2.801   6.353  11.309  0.4929  0.9794 -0.8191
 1510TIP3    H226022   2.925   6.440  11.304  1.1522  0.3643  2.9218
 1511TIP3   OH226023   5.797   0.266   3.458  0.0283  0.4836  0.4955
 1511TIP3    H126024   5.892   0.260   3.459 -0.0111 -0.0273  1.7940
 1511TIP3    H226025   5.777   0.319   3.380  1.4088  1.3624  0.7157
 1512TIP3   OH226026   5.048   3.612  13.864 -0.0282  0.2368 -0.4620
 1512TIP3    H126027   5.090   3.679  13.810 -1.0875  0.5478 -0.9268
 1512TIP3    H226028   4.965   3.595  13.819 -0.4666 -0.2402  0.5194
 1513TIP3   OH226029   2.736   0.553  16.173 -0.3420  0.2461  0.1796
 1513TIP3    H126030   2.698   0.628  16.128 -1.2921 -0.2566  0.1298
 1513TIP3    H226031   2.753   0.488  16.104 -1.1895 -0.2709  0.4515
 1514TIP3   OH226032   1.019   5.025  13.691 -0.1860 -0.6529  0.2107
 1514TIP3    H126033   1.060   5.071  13.618  0.2164  1.6636  1.8440
 1514TIP3    H226034   1.085   4.961  13.719  1.4002  1.3820  1.2539
 1515TIP3   OH226035   1.976   1.803   0.852  0.2244  0.0227  0.1587
 1515TIP3    H126036   1.905   1.850   0.806  0.3898  0.3845  0.2683
 1515TIP3    H226037   2.056   1.839   0.814  0.3378 -1.2609 -0.8262
 1516TIP3   OH226038   0.682   5.558   0.696  0.0522  0.3254 -0.0582
 1516TIP3    H126039   0.716   5.477   0.734 -1.6824 -0.9072 -1.0258
 1516TIP3    H226040   0.622   5.593   0.762  0.1512  0.3470  0.0187
 1517TIP3   OH226041   6.146   1.227  11.438 -0.0590  0.1178  0.0010
 1517TIP3    H126042   6.143   1.147  11.386  2.4310 -0.2216  0.2855
 1517TIP3    H226043   6.085   1.213  11.510 -2.0494 -0.2079 -1.6940
 1518TIP3   OH226044   1.203   5.503  15.510  0.0261 -0.3823  0.0456
 1518TIP3    H126045   1.222   5.418  15.470  0.7039  0.1296 -0.7288
 1518TIP3    H226046   1.118   5.529  15.472  0.7857  0.2206 -1.2889
 1519TIP3   OH226047   1.352   4.464   2.586 -0.0526  0.3335  0.1913
 1519TIP3    H126048   1.380   4.554   2.604 -1.3108  0.7141  0.2935
 1519TIP3    H226049   1.391   4.443   2.501  0.8385  0.7125  0.4993
 1520TIP3   OH226050   4.771   4.140   4.031 -0.3000 -0.5224  0.0273
 1520TIP3    H126051   4.686   4.183   4.033 -1.4064 -2.6493 -0.2790
 1520TIP3    H226052   4.799   4.146   3.939  0.7101  1.6831  0.4385
 1521TIP3   OH226053   0.098   5.182  15.246 -0.6292 -0.0501 -0.0619
 1521TIP3    H126054   0.083   5.276  15.232 -0.5234  0.1717  1.2513
 1521TIP3    H226055   0.175   5.162  15.193  0.4213  1.0090  1.0367
 1522TIP3   OH226056   5.650   4.399  11.950  0.4155  0.2744  0.1293
 1522TIP3    H126057   5.588   4.383  11.879 -0.6651  2.1618  0.6276
 1522TIP3    H226058   5.648   4.318  12.001  3.5282 -2.3646 -3.6335
 1523TIP3   OH226059   1.022   6.597  12.216 -0.4776  0.6027 -0.0319
 1523TIP3    H126060   1.025   6.612  12.310  0.5023 -0.0540  0.0454
 1523TIP3    H226061   0.929   6.592  12.195 -0.7556  2.6387  0.6020
 1524TIP3   OH226062   3.026   1.702   0.372 -0.1801 -0.2768 -0.7332
 1524TIP3    H126063   2.993   1.612   0.369 -2.2610  0.3374  2.1796
 1524TIP3    H226064   3.111   1.695   0.416  0.0083 -0.8825 -1.1821
 1525TIP3   OH226065   0.044   4.502  16.840  1.1285  0.4827 -0.8335
 1525TIP3    H126066  -0.051   4.498  16.850  0.9530  0.0761 -2.5325
 1525TIP3    H226067   0.060   4.574  16.779  1.9289  0.6360 -0.4570
 1526TIP3   OH226068   2.644   0.825   1.432  0.2397  0.3560 -0.5415
 1526TIP3    H126069   2.580   0.813   1.502  0.6592  1.9312  0.1292
 1526TIP3    H226070   2.667   0.918   1.436  0.3277  0.4664 -2.7116
 1527TIP3   OH226071   4.029   1.320   5.004 -0.3002  0.8709  0.3955
 1527TIP3    H126072   4.092   1.315   5.076 -0.8797 -1.1567  0.7948
 1527TIP3    H226073   4.082   1.311   4.925 -0.1424 -1.4898  0.7541
 1528TIP3   OH226074   1.629   5.398   0.318  0.6336  0.2285  0.1172
 1528TIP3    H126075   1.622   5.487   0.284  0.2113 -0.0195 -0.4507
 1528TIP3    H226076   1.662   5.347   0.244 -0.5350 -0.3603 -0.0024
 1529TIP3   OH226077   6.582   0.050  12.495  0.1279  0.2644  0.1911
 1529TIP3    H126078   6.572   0.033  12.401 -0.6860  0.1993  0.2812
 1529TIP3    H226079   6.522  -0.013  12.537 -1.8166  2.3064  0.5988
 1530TIP3   OH226080   1.319   1.509  16.579 -0.5566  0.3586 -0.0041
 1530TIP3    H126081   1.336   1.440  16.514 -1.7019 -0.0128  0.0820
 1530TIP3    H226082   1.394   1.568  16.571  1.3036 -1.7704  1.0875
 1531TIP3   OH226083   0.563   2.767  13.967 -0.0448  0.0969  0.4728
 1531TIP3    H126084   0.581   2.814  14.048 -0.2777  2.3861 -0.7661
 1531TIP3    H226085   0.467   2.755  13.967 -0.1248  0.7430  0.1858
 1532TIP3   OH226086   2.308   1.872  13.420 -1.1123  0.4376 -0.0325
 1532TIP3    H126087   2.263   1.863  13.336  1.0877  0.2249 -1.2427
 1532TIP3    H226088   2.358   1.791  13.429 -0.9991  0.6423  1.3036
 1533TIP3   OH226089   1.826   4.401  15.277 -0.1946 -0.2378 -0.3365
 1533TIP3    H126090   1.791   4.484  15.311  0.4534 -0.5746  1.2076
 1533TIP3    H226091   1.917   4.401  15.305  0.7841  0.1183 -3.3462
 1534TIP3   OH226092   6.456   2.074   2.844  0.4442  0.2652 -0.2053
 1534TIP3    H126093   6.497   1.990   2.865 -0.1751  0.0096 -0.0113
 1534TIP3    H226094   6.530   2.131   2.823  0.8875 -0.2606 -0.1154
 1535TIP3   OH226095   0.971   0.460   1.922 -0.3149  0.3749 -0.2822
 1535TIP3    H126096   1.061   0.437   1.946 -0.9349 -1.9305  0.0093
 1535TIP3    H226097   0.981   0.533   1.861  1.7694 -0.0255 -0.4855
 1536TIP3   OH226098   2.606   4.587   3.854  0.6418  0.1302 -0.2380
 1536TIP3    H126099   2.551   4.646   3.803 -1.4601  0.5666  2.4324
 1536TIP3    H226100   2.563   4.502   3.848  0.5397  0.1212  0.5791
 1537TIP3   OH226101   3.211   5.974   3.040  0.2030  0.2269 -0.3263
 1537TIP3    H126102   3.127   5.961   3.083  1.3203 -1.1198  1.5540
 1537TIP3    H226103   3.276   5.955   3.108  2.0612 -1.5973 -2.5065
 1538TIP3   OH226104   4.575   0.731   4.067  0.1772  0.5323 -0.7059
 1538TIP3    H126105   4.614   0.819   4.066  2.0972 -0.2769 -0.1631
 1538TIP3    H226106   4.615   0.687   3.991 -0.9199  0.1947 -1.0914
 1539TIP3   OH226107   4.132   6.278   2.320  0.3015 -0.5197  0.4170
 1539TIP3    H126108   4.156   6.282   2.412  1.2714 -1.4289  0.2036
 1539TIP3    H226109   4.172   6.356   2.281 -1.0046  0.4506  0.9491
 1540TIP3   OH226110   4.921   4.386  15.293  0.3006 -0.6169 -0.5969
 1540TIP3    H126111   4.878   4.300  15.295 -0.1387 -0.3981 -0.6475
 1540TIP3    H226112   4.890   4.431  15.371 -0.8667  0.1697 -1.5139
 1541TIP3   OH226113   0.106   6.319   5.262 -0.3398  0.3861  0.5618
 1541TIP3    H126114   0.195   6.343   5.236  0.8832 -2.5467  1.7921
 1541TIP3    H226115   0.060   6.307   5.180  1.2948 -1.0723 -0.1860
 1542TIP3   OH226116   4.974   3.293  12.585  0.4227  0.3404  0.6667
 1542TIP3    H126117   4.938   3.323  12.669 -1.2708 -0.9004  0.4076
 1542TIP3    H226118   4.921   3.336  12.519 -0.1180 -0.9095  0.2698
 1543TIP3   OH226119   0.752   5.140   5.600  0.2242 -0.6368 -0.3477
 1543TIP3    H126120   0.815   5.140   5.529  0.0105 -0.7489 -0.5383
 1543TIP3    H226121   0.709   5.225   5.595 -0.5998 -1.0878 -1.0780
 1544TIP3   OH226122   4.182   0.828  15.704 -0.4824  0.5980 -0.4637
 1544TIP3    H126123   4.265   0.797  15.668 -0.5739  1.4019 -1.4126
 1544TIP3    H226124   4.190   0.817  15.798  0.7173  0.6965 -0.5550
 1545TIP3   OH226125   5.346   5.164   5.649  0.0236  0.2643  0.1305
 1545TIP3    H126126   5.392   5.186   5.569  1.2564 -0.8206  0.5321
 1545TIP3    H226127   5.253   5.168   5.626  0.2729  2.8411 -0.5855
 1546TIP3   OH226128   0.907   5.465   1.652  0.3292 -0.6250  0.5664
 1546TIP3    H126129   0.857   5.415   1.588  0.4096  0.8529 -0.6780
 1546TIP3    H226130   0.913   5.408   1.728 -1.3306 -1.6866 -0.0826
 1547TIP3   OH226131   0.940   0.080  15.822  0.1466 -0.3861  0.4662
 1547TIP3    H126132   0.845   0.073  15.831 -0.0478  0.1550 -0.9589
 1547TIP3    H226133   0.975   0.019  15.886 -1.1501 -0.1604  1.4166
 1548TIP3   OH226134   6.812   0.050  13.329 -0.2537 -0.0861 -0.1265
 1548TIP3    H126135   6.782   0.053  13.238 -0.8864  0.5597  0.0975
 1548TIP3    H226136   6.866  -0.029  13.334 -0.3551 -0.2184 -1.0188
 1549TIP3   OH226137   0.409   5.465  16.809  0.3254 -0.6261  0.6318
 1549TIP3    H126138   0.387   5.375  16.832  0.0697 -0.6404  0.3402
 1549TIP3    H226139   0.326   5.502  16.779  1.2849 -1.6156 -3.5288
 1550TIP3   OH226140   1.447   6.770  15.018 -0.5729 -0.8628 -0.7825
 1550TIP3    H126141   1.460   6.865  15.012 -2.0952 -0.5359  0.5743
 1550TIP3    H226142   1.528   6.737  15.056  0.0449 -0.1279 -1.4463
 1551TIP3   OH226143   6.125   4.055  15.710 -0.0692 -0.8251 -0.5524
 1551TIP3    H126144   6.072   3.996  15.764 -0.8694 -1.2156 -1.7520
 1551TIP3    H226145   6.212   4.017  15.711 -0.5374 -1.9324 -1.1514
 1552TIP3   OH226146   5.771   3.071   3.293  0.3477 -0.5450  0.4048
 1552TIP3    H126147   5.697   3.129   3.306 -0.0462 -1.2508  1.3751
 1552TIP3    H226148   5.787   3.072   3.199 -0.9854 -0.5095  0.1763
 1553TIP3   OH226149   4.337   2.062  15.985  0.0946  0.9936  0.1825
 1553TIP3    H126150   4.426   2.066  16.021  0.0124  1.5909  0.3282
 1553TIP3    H226151   4.297   2.145  16.012 -0.8286  0.3053  0.9329
 1554TIP3   OH226152   3.266   1.399   3.569  0.1486 -0.0522 -0.5125
 1554TIP3    H126153   3.308   1.482   3.547 -2.0053  0.8885 -1.2479
 1554TIP3    H226154   3.182   1.402   3.524 -1.8507 -0.7084  2.9698
 1555TIP3   OH226155   4.615   6.355  12.987  0.5787  0.0906  0.0908
 1555TIP3    H126156   4.666   6.411  13.046 -0.9227  1.1305  0.4493
 1555TIP3    H226157   4.547   6.318  13.042  0.4207 -0.5881 -0.5590
 1556TIP3   OH226158   3.783   0.275   2.786  0.5540  0.2158  0.2797
 1556TIP3    H126159   3.707   0.305   2.737  0.3659  0.7447  0.8999
 1556TIP3    H226160   3.842   0.351   2.788  0.6212  0.1498  0.7597
 1557TIP3   OH226161   2.175   3.575  12.324 -0.4129 -0.1502 -0.3676
 1557TIP3    H126162   2.251   3.633  12.313 -0.7516  0.7739  1.9770
 1557TIP3    H226163   2.212   3.488  12.335  0.3142  0.2646  0.5306
 1558TIP3   OH226164   3.945   2.139  14.872  0.2930 -0.4470 -0.0817
 1558TIP3    H126165   3.872   2.137  14.934  0.6477  0.3547  0.3689
 1558TIP3    H226166   3.909   2.104  14.791 -0.4648 -0.4997  0.2764
 1559TIP3   OH226167   1.050   4.841   0.879 -0.2781  0.3275 -0.2158
 1559TIP3    H126168   1.052   4.821   0.785 -1.8683  2.3434 -0.7286
 1559TIP3    H226169   1.124   4.900   0.892  0.4753 -0.6564 -0.0201
 1560TIP3   OH226170   3.344   4.546   2.392 -0.2608  0.2171  0.1970
 1560TIP3    H126171   3.439   4.555   2.382  0.1280 -2.7185  0.7125
 1560TIP3    H226172   3.310   4.546   2.302  0.0916  2.1984  0.0386
 1561TIP3   OH226173   5.450   3.043  14.948 -0.1485  0.1705 -0.1043
 1561TIP3    H126174   5.364   3.044  14.907 -0.1940 -0.0094 -0.0147
 1561TIP3    H226175   5.465   3.133  14.975 -0.6680  0.0349  0.6350
 1562TIP3   OH226176   5.193   2.670   4.590  0.4034  0.5886  0.0659
 1562TIP3    H126177   5.252   2.672   4.666 -0.1337  1.3466  0.4724
 1562TIP3    H226178   5.152   2.757   4.590 -2.9191 -0.9125  1.5636
 1563TIP3   OH226179   4.928   0.498   0.154 -0.0767 -0.2687 -0.4468
 1563TIP3    H126180   5.015   0.472   0.123 -0.2360 -1.4474  0.0690
 1563TIP3    H226181   4.868   0.468   0.085  0.0181  1.6881 -1.4229
 1564TIP3   OH226182   4.405   1.587  12.754  0.2582 -0.1516 -0.1418
 1564TIP3    H126183   4.366   1.501  12.734 -0.9829  0.8841 -2.3594
 1564TIP3    H226184   4.500   1.572  12.746  0.0893 -1.4633  0.1711
 1565TIP3   OH226185   0.362   2.279  14.772 -0.9117  0.1172 -0.5815
 1565TIP3    H126186   0.280   2.238  14.801 -0.5724  0.3067  0.6754
 1565TIP3    H226187   0.341   2.316  14.686 -1.6642 -1.3164 -1.0370
 1566TIP3   OH226188   0.308   6.698  11.481  0.7399 -0.3577  0.0860
 1566TIP3    H126189   0.259   6.618  11.462  1.5902 -0.8943  0.1123
 1566TIP3    H226190   0.317   6.741  11.396  0.8252 -0.6029 -0.0294
 1567TIP3   OH226191   4.657   6.199   2.085 -0.1090 -0.0046  0.2141
 1567TIP3    H126192   4.604   6.243   2.018 -1.9104 -1.3252  0.7187
 1567TIP3    H226193   4.683   6.116   2.044  0.0611 -0.1460  0.6028
 1568TIP3   OH226194   6.529   4.808   5.227  0.1802  0.0679  0.2580
 1568TIP3    H126195   6.449   4.758   5.208  1.3113 -1.8377  0.3855
 1568TIP3    H226196   6.508   4.857   5.306 -0.4153 -1.5254  1.1168
 1569TIP3   OH226197   3.952   3.321  11.976  0.7356 -0.0590  0.3979
 1569TIP3    H126198   3.883   3.337  11.912  1.5509  0.8173 -0.2781
 1569TIP3    H226199   4.033   3.317  11.925  1.5419  1.7808  1.4401
 1570TIP3   OH226200   5.722   0.834   1.056 -0.4504  0.8596  0.5250
 1570TIP3    H126201   5.736   0.753   1.106  0.5916  1.7208  1.6509
 1570TIP3    H226202   5.627   0.842   1.051 -0.5655 -0.3042  0.6242
 1571TIP3   OH226203   3.316   4.175  16.952  0.6529  0.0042  0.6632
 1571TIP3    H126204   3.390   4.219  16.993  1.3750  0.6375 -1.2219
 1571TIP3    H226205   3.356   4.106  16.899 -0.0737  0.3421 -0.3545
 1572TIP3   OH226206   1.719   5.874  14.234 -0.0174 -0.0854  0.5779
 1572TIP3    H126207   1.792   5.883  14.173  0.7062 -1.6187  1.2000
 1572TIP3    H226208   1.645   5.849  14.179  0.0158  1.0297  0.0058
 1573TIP3   OH226209   2.349   2.745   5.377 -0.3994  0.0026  0.1008
 1573TIP3    H126210   2.322   2.746   5.286 -0.0179 -0.0633 -0.0141
 1573TIP3    H226211   2.268   2.754   5.427 -0.5057  1.2052 -0.2727
 1574TIP3   OH226212   2.707   3.894   5.347 -0.4628  0.1256  0.3292
 1574TIP3    H126213   2.679   3.985   5.344 -0.0181  0.2782  0.6698
 1574TIP3    H226214   2.799   3.898   5.375 -0.3548 -0.4081  0.0618
 1575TIP3   OH226215   6.671   5.139   2.790 -0.4316  0.0569  0.1523
 1575TIP3    H126216   6.599   5.123   2.852 -0.1382  0.5144  0.6123
 1575TIP3    H226217   6.644   5.216   2.741 -0.1997  0.2967  0.4037
 1576TIP3   OH226218   0.062   6.003  14.846  0.4970  0.3527 -0.3092
 1576TIP3    H126219  -0.022   5.973  14.881  0.1058 -0.0981 -1.6100
 1576TIP3    H226220   0.070   5.960  14.760  1.4578  1.3967 -0.7636
 1577TIP3   OH226221   0.054   0.772   4.639 -0.6621 -0.1736 -0.0067
 1577TIP3    H126222   0.056   0.801   4.731 -0.5094  1.0720 -0.3913
 1577TIP3    H226223   0.022   0.682   4.643  0.9818 -0.7296  1.4220
 1578TIP3   OH226224   5.667   3.000   4.940  0.6141 -0.1081  0.0162
 1578TIP3    H126225   5.659   2.988   5.035  1.3291 -2.1723 -0.1569
 1578TIP3    H226226   5.621   3.082   4.923  0.7959  0.4920  2.1933
 1579TIP3   OH226227   2.419   1.454   5.496  0.1819 -0.0863 -0.2423
 1579TIP3    H126228   2.464   1.428   5.415  0.6937 -0.7381  0.2419
 1579TIP3    H226229   2.416   1.373   5.548  1.1415  0.6429  0.9817
 1580TIP3   OH226230   6.347   3.910  17.011 -0.1468  0.3407  0.2396
 1580TIP3    H126231   6.382   3.941  17.094  0.7107  1.1024 -0.3866
 1580TIP3    H226232   6.354   3.986  16.953 -0.7014 -0.1920 -0.5291
 1581TIP3   OH226233   4.395   5.999  12.716  0.3037  0.1177  0.5701
 1581TIP3    H126234   4.464   6.059  12.747 -0.7874  0.9069  1.5017
 1581TIP3    H226235   4.326   6.057  12.684 -1.0701 -0.6215  2.1422
 1582TIP3   OH226236   4.859   4.823   5.300 -0.6761  0.8439 -0.0892
 1582TIP3    H126237   4.942   4.805   5.345  0.7296  3.0474 -1.6826
 1582TIP3    H226238   4.875   4.797   5.210 -2.1671  0.1463 -0.1663
 1583TIP3   OH226239   5.859   6.792   0.803  0.1085  0.0485 -0.4174
 1583TIP3    H126240   5.953   6.783   0.787 -0.0283 -2.4470 -0.0386
 1583TIP3    H226241   5.837   6.717   0.859 -2.2444  0.1740 -1.1216
 1584TIP3   OH226242   3.903   2.960  15.031  0.3276 -0.2598 -0.0710
 1584TIP3    H126243   3.815   2.956  15.067  0.8573 -1.0788  1.1691
 1584TIP3    H226244   3.939   2.872  15.045  0.8321 -0.3623 -1.8911
 1585TIP3   OH226245   4.349   5.701  16.125 -0.1471  0.3660  0.3923
 1585TIP3    H126246   4.261   5.696  16.160 -1.1279 -0.3722 -2.0675
 1585TIP3    H226247   4.362   5.794  16.105 -0.4494  0.4371  0.5307
 1586TIP3   OH226248   4.821   6.629   2.756  0.2643 -0.1568  0.2765
 1586TIP3    H126249   4.836   6.721   2.775 -1.2183 -0.2822  2.2789
 1586TIP3    H226250   4.812   6.588   2.842 -2.5333 -1.5419 -0.6036
 1587TIP3   OH226251   5.130   3.690   5.677  0.0655 -0.1481  0.1288
 1587TIP3    H126252   5.187   3.755   5.719 -2.3124  1.7441  0.5479
 1587TIP3    H226253   5.178   3.662   5.599  1.4845  1.5670  0.3626
 1588TIP3   OH226254   4.542   0.367   1.590  0.2787 -0.1860  0.5236
 1588TIP3    H126255   4.608   0.315   1.546 -0.0329  0.9190 -1.2960
 1588TIP3    H226256   4.590   0.440   1.628  0.3188 -0.2478  0.5911
 1589TIP3   OH226257   5.487   3.756  16.473 -0.4111  0.2492  0.5856
 1589TIP3    H126258   5.525   3.679  16.515 -0.1031 -0.1495 -0.4009
 1589TIP3    H226259   5.552   3.825  16.486  0.0089 -0.0583  0.1612
 1590TIP3   OH226260   2.472   0.152   4.514 -0.2549  0.2426 -0.0665
 1590TIP3    H126261   2.487   0.227   4.572 -1.3844  0.1344  0.3942
 1590TIP3    H226262   2.555   0.138   4.469  0.0737  1.5228  0.1413
 1591TIP3   OH226263   4.106   0.070  17.285 -0.3895  0.5094 -0.0639
 1591TIP3    H126264   4.130   0.077  17.193  1.7393  1.5098  0.5376
 1591TIP3    H226265   4.016   0.101  17.289 -0.9553 -0.8226 -2.0072
 1592TIP3   OH226266   4.935   3.321   6.578 -0.4865  0.5465  0.0970
 1592TIP3    H126267   5.004   3.342   6.641 -0.9718  3.0986 -0.1585
 1592TIP3    H226268   4.860   3.296   6.631  0.2910 -1.2015  0.4015
 1593TIP3   OH226269   5.770   2.987  10.936 -0.5224 -0.0883 -0.4148
 1593TIP3    H126270   5.848   2.993  10.881  0.6197 -4.0662  0.6223
 1593TIP3    H226271   5.775   3.063  10.994  2.9746 -0.6739  0.1209
 1594TIP3   OH226272   6.285   6.569  17.003  0.3679  0.6150  0.4809
 1594TIP3    H126273   6.319   6.644  16.955 -0.4879  1.1474  0.6984
 1594TIP3    H226274   6.198   6.554  16.967  0.9793 -1.0454 -0.4039
 1595TIP3   OH226275   4.768   3.342   2.216 -0.2735 -0.1328 -0.3420
 1595TIP3    H126276   4.751   3.268   2.273  2.4035 -1.3774 -1.1070
 1595TIP3    H226277   4.741   3.312   2.129 -1.0019  0.5119 -0.3526
 1596TIP3   OH226278   4.742   0.514   5.743 -0.1913 -0.2123  0.1045
 1596TIP3    H126279   4.814   0.492   5.802  1.1616  0.3184 -1.3031
 1596TIP3    H226280   4.668   0.462   5.774  1.0835 -1.5336  0.9531
 1597TIP3   OH226281   0.404   0.443  15.527 -0.6310  0.1845 -0.2053
 1597TIP3    H126282   0.452   0.379  15.474  0.8799  0.9579  0.1999
 1597TIP3    H226283   0.467   0.513  15.543 -1.3809  0.4359  1.7674
 1598TIP3   OH226284   6.389   4.501   0.096 -0.3646  0.1689 -0.2064
 1598TIP3    H126285   6.340   4.567   0.048 -0.7311 -1.8171 -2.6385
 1598TIP3    H226286   6.342   4.420   0.081  1.1616 -0.9997  1.1505
 1599TIP3   OH226287   4.477   6.386  14.938  0.5220 -0.6154 -0.2334
 1599TIP3    H126288   4.439   6.353  15.020 -2.2367  0.8446 -0.8749
 1599TIP3    H226289   4.530   6.461  14.965 -1.8785  1.0244  0.0637
 1600TIP3   OH226290   5.335   2.983   2.021 -0.8487  0.1428  0.1325
 1600TIP3    H126291   5.269   2.958   1.957 -1.4968  0.0653  0.8337
 1600TIP3    H226292   5.351   3.076   2.005 -2.1414  0.4961  0.8832
 1601TIP3   OH226293   5.168   3.660   6.506  0.2267  0.3962 -0.4476
 1601TIP3    H126294   5.122   3.732   6.464  1.5201  1.2154 -0.4867
 1601TIP3    H226295   5.153   3.674   6.600 -0.0500  0.3493 -0.4841
 1602TIP3   OH226296   5.800   1.006  13.356 -0.3301 -0.4237  0.0101
 1602TIP3    H126297   5.850   0.967  13.428 -0.3714 -0.2318  0.1439
 1602TIP3    H226298   5.774   1.092  13.390 -0.6643 -0.4854 -0.0991
 1603TIP3   OH226299   1.768   5.271  14.515  0.0143 -0.0979 -0.0428
 1603TIP3    H126300   1.826   5.236  14.447  2.1566  2.0212  0.6068
 1603TIP3    H226301   1.802   5.234  14.596 -1.7191 -1.5766  0.0285
 1604TIP3   OH226302   2.925   4.571   1.002 -0.0652  0.1192  0.8501
 1604TIP3    H126303   2.896   4.522   1.079  1.2307 -0.8363  0.7354
 1604TIP3    H226304   3.010   4.533   0.980  0.3561  1.5492 -0.0194
 1605TIP3   OH226305   6.625   3.069  16.813 -0.6650  0.1359 -0.1942
 1605TIP3    H126306   6.603   3.140  16.872 -0.2289  1.0350 -1.0911
 1605TIP3    H226307   6.552   3.007  16.821 -0.5014  0.1328  1.4273
 1606TIP3   OH226308   6.099   4.422   1.695 -0.0783 -0.1609 -0.1739
 1606TIP3    H126309   6.194   4.408   1.698  0.2144  1.7602  0.7783
 1606TIP3    H226310   6.082   4.481   1.769 -1.4950  2.3325 -2.4276
 1607TIP3   OH226311   0.522   0.368   5.969  0.2651 -0.1496 -0.2660
 1607TIP3    H126312   0.453   0.303   5.957 -2.9015  2.3331  3.3140
 1607TIP3    H226313   0.521   0.420   5.889 -0.4765 -1.4958 -1.1408
 1608TIP3   OH226314   1.355   0.916   0.580  0.1733 -0.1289 -0.3639
 1608TIP3    H126315   1.433   0.885   0.626  0.0464 -1.2218 -0.8828
 1608TIP3    H226316   1.367   0.886   0.490 -1.3709 -1.2566 -0.2101
 1609TIP3   OH226317   1.699   0.289  13.017  0.3256 -0.0003  0.4246
 1609TIP3    H126318   1.736   0.255  13.099 -2.9448 -1.6108  1.3008
 1609TIP3    H226319   1.714   0.220  12.953  3.6594  1.6086 -0.6524
 1610TIP3   OH226320   5.705   4.083  15.917  0.7563  0.6683  0.4330
 1610TIP3    H126321   5.746   4.142  15.980  0.7892  2.2846 -1.0493
 1610TIP3    H226322   5.623   4.127  15.893 -0.1033 -0.7698  0.6480
 1611TIP3   OH226323   6.477   1.929  14.381 -0.5877 -0.5145 -0.4445
 1611TIP3    H126324   6.535   1.944  14.306 -1.6748 -0.6746 -1.3237
 1611TIP3    H226325   6.413   1.866  14.349 -2.2027  0.8628  0.0145
 1612TIP3   OH226326   5.143   3.752  14.830  0.2231 -0.5154 -0.3336
 1612TIP3    H126327   5.239   3.748  14.828  0.1876 -1.5049  0.0098
 1612TIP3    H226328   5.116   3.670  14.871 -0.7459  0.1225  0.3249
 1613TIP3   OH226329   4.237   3.176  12.909 -0.4357  0.3586  0.3172
 1613TIP3    H126330   4.307   3.228  12.948  1.2833  0.4014 -2.6470
 1613TIP3    H226331   4.270   3.086  12.909  0.2982  0.5797 -2.3681
 1614TIP3   OH226332   3.536   1.797  12.769  0.2199  0.3080 -0.2006
 1614TIP3    H126333   3.464   1.801  12.832  0.1138 -0.0293 -0.3000
 1614TIP3    H226334   3.545   1.887  12.737 -2.2050 -0.2008 -2.4815
 1615TIP3   OH226335   2.895   6.386   3.456 -0.1053  0.0673 -0.2950
 1615TIP3    H126336   2.885   6.353   3.546 -1.2997  1.5781  0.1402
 1615TIP3    H226337   2.956   6.325   3.415 -0.7390 -1.5439  1.0892
 1616TIP3   OH226338   2.283   5.285   2.077  0.1886  0.2548 -0.2822
 1616TIP3    H126339   2.377   5.267   2.081  0.0262 -0.5717 -0.1479
 1616TIP3    H226340   2.250   5.224   2.011 -0.4139 -0.1544  0.3966
 1617TIP3   OH226341   5.046   0.057   3.261  0.3357 -0.6244 -0.1268
 1617TIP3    H126342   5.003   0.103   3.189  0.5246  0.8253  0.6611
 1617TIP3    H226343   4.974   0.033   3.320  0.3730 -0.1172  0.1299
 1618TIP3   OH226344   0.550   4.131   1.942  0.0675 -0.2943 -0.3027
 1618TIP3    H126345   0.481   4.167   1.887 -2.0225  0.4267  2.6909
 1618TIP3    H226346   0.536   4.036   1.938 -1.1526 -0.1513  0.3208
 1619TIP3   OH226347   2.233   1.340  12.164  0.1626  0.2617  0.1077
 1619TIP3    H126348   2.209   1.415  12.218 -0.6774 -0.1039  0.2597
 1619TIP3    H226349   2.322   1.359  12.133  0.3009  0.8860  0.8871
 1620TIP3   OH226350   3.422   1.517   1.931 -0.0356  0.0076  0.2778
 1620TIP3    H126351   3.465   1.524   1.845  0.7068 -1.7583  0.4850
 1620TIP3    H226352   3.347   1.577   1.925  1.4320  1.8024 -0.7104
 1621TIP3   OH226353   3.079   4.828   2.040  0.9688 -0.1475 -0.0849
 1621TIP3    H126354   3.153   4.843   2.099  0.7535  0.4987  0.0309
 1621TIP3    H226355   3.036   4.749   2.074  2.2304 -1.1518 -0.7973
 1622TIP3   OH226356   0.464   6.720   1.419 -0.1344  0.1464 -0.1958
 1622TIP3    H126357   0.432   6.683   1.336  0.8300 -0.6689 -0.2084
 1622TIP3    H226358   0.559   6.719   1.410  0.0447 -1.7199  1.6866
 1623TIP3   OH226359   5.771   0.266  14.429 -0.0470 -0.6503  0.3705
 1623TIP3    H126360   5.790   0.298  14.517 -0.9285  2.9628 -0.6743
 1623TIP3    H226361   5.848   0.288  14.377 -0.9812  0.5617 -0.5443
 1624TIP3   OH226362   0.328   5.499  13.691  0.4820 -0.6470 -0.3262
 1624TIP3    H126363   0.372   5.584  13.693  1.9863 -1.4425  1.5791
 1624TIP3    H226364   0.344   5.466  13.603  0.5418  0.6964 -0.8279
 1625TIP3   OH226365   2.037   1.348   0.109  0.1778 -0.5655 -0.4692
 1625TIP3    H126366   2.050   1.319   0.019  1.4244 -2.9719  0.4290
 1625TIP3    H226367   1.982   1.279   0.148 -0.1305  0.3207  0.6855
 1626TIP3   OH226368   5.065   2.108  15.746 -0.3294  0.7459  0.8574
 1626TIP3    H126369   5.115   2.134  15.668 -0.0289  1.3417  1.2417
 1626TIP3    H226370   5.131   2.100  15.814 -0.4580 -0.8195  0.7960
 1627TIP3   OH226371   1.139   2.426  17.170 -0.1921 -0.1033 -0.2152
 1627TIP3    H126372   1.140   2.518  17.144  0.4841 -0.1483 -0.3661
 1627TIP3    H226373   1.066   2.419  17.232  0.1277  0.6631  0.2559
 1628TIP3   OH226374   6.516   5.520  16.352 -0.5171 -0.1238 -0.1763
 1628TIP3    H126375   6.422   5.531  16.346 -0.4552 -0.7098 -2.4745
 1628TIP3    H226376   6.553   5.591  16.298  0.2585 -1.6259 -1.6673
 1629TIP3   OH226377   6.121   0.843  11.655  0.7574  0.6799 -0.6877
 1629TIP3    H126378   6.137   0.867  11.747  1.9255  1.3329 -1.0580
 1629TIP3    H226379   6.094   0.751  11.659  0.6605  0.7457  0.3260
 1630TIP3   OH226380   2.437   4.691   2.933 -0.4130 -0.0388 -0.0570
 1630TIP3    H126381   2.372   4.759   2.912 -1.7543 -0.7505  1.6602
 1630TIP3    H226382   2.476   4.721   3.016  0.7752 -0.1076 -0.5873
 1631TIP3   OH226383   3.341   0.752  14.841  0.1171 -0.3633  0.1302
 1631TIP3    H126384   3.402   0.680  14.828  1.8408 -0.5589  7.2921
 1631TIP3    H226385   3.258   0.709  14.862 -0.7483 -0.1032 -2.5597
 1632TIP3   OH226386   0.103   4.683  14.325  1.0274 -0.5501 -0.8180
 1632TIP3    H126387   0.087   4.654  14.415  0.4688  1.5323 -0.2282
 1632TIP3    H226388   0.016   4.684  14.284  1.2355 -1.1353 -1.2943
 1633TIP3   OH226389   1.937   4.527  15.861  0.0315 -0.0601 -0.0657
 1633TIP3    H126390   1.890   4.548  15.781 -2.0859  1.3671  1.4823
 1633TIP3    H226391   2.029   4.542  15.840 -0.3367 -1.1538 -2.6352
 1634TIP3   OH226392   1.337   6.530  14.931  0.7421  0.2215  0.1529
 1634TIP3    H126393   1.394   6.503  14.859 -0.7572 -0.9475 -0.6253
 1634TIP3    H226394   1.363   6.620  14.950  1.7654  0.2394 -1.2470
 1635TIP3   OH226395   3.747   2.759  15.703  0.1108 -0.2557 -0.0739
 1635TIP3    H126396   3.806   2.694  15.665  1.5068  0.6051  0.6090
 1635TIP3    H226397   3.749   2.832  15.641  0.2673  0.0352  0.2749
 1636TIP3   OH226398   3.880   0.268   2.050  0.2991  0.0752 -0.1844
 1636TIP3    H126399   3.927   0.245   2.129  0.8344 -1.6729 -0.9969
 1636TIP3    H226400   3.917   0.212   1.982 -1.1545  0.5181 -1.3797
 1637TIP3   OH226401   6.227   3.813   4.237  0.0248 -0.0597 -0.1945
 1637TIP3    H126402   6.233   3.723   4.206  2.2319 -0.0858  0.2525
 1637TIP3    H226403   6.311   3.853   4.214  0.4054  0.8916  2.6219
 1638TIP3   OH226404   2.102   6.515  13.452 -0.1332 -0.1508  0.4138
 1638TIP3    H126405   2.051   6.511  13.372 -3.0420  0.3729  2.1812
 1638TIP3    H226406   2.159   6.592  13.440 -0.8987  0.2221 -0.9054
 1639TIP3   OH226407   0.460   5.480   1.740 -0.1055 -0.2309  0.1034
 1639TIP3    H126408   0.457   5.575   1.735 -0.6000 -0.0775  2.8536
 1639TIP3    H226409   0.452   5.451   1.649 -1.6749  2.2961 -0.5970
 1640TIP3   OH226410   0.353   1.600   1.216 -0.1023 -0.0396  0.1198
 1640TIP3    H126411   0.285   1.656   1.253 -0.2503  0.7197 -1.2651
 1640TIP3    H226412   0.365   1.632   1.127  2.1185 -0.1260  0.3596
 1641TIP3   OH226413   6.085   2.492   1.663  0.0340  0.4724  0.0762
 1641TIP3    H126414   6.128   2.546   1.597 -0.7394  1.9132  0.7478
 1641TIP3    H226415   5.992   2.513   1.655 -0.2425 -0.5318  0.5467
 1642TIP3   OH226416   4.114   2.082  13.713  0.0049 -0.6049 -1.0597
 1642TIP3    H126417   4.136   2.091  13.806  1.2883 -1.1738 -1.3031
 1642TIP3    H226418   4.058   2.157  13.694  0.7688  0.2002 -0.1422
 1643TIP3   OH226419   5.491   2.103  13.418  0.5594  0.0070 -0.6087
 1643TIP3    H126420   5.544   2.024  13.428  0.8512  0.3333  0.4018
 1643TIP3    H226421   5.478   2.136  13.507  0.6336  1.2300 -1.0384
 1644TIP3   OH226422   6.738   3.021  13.814  0.2688  1.1039 -0.2669
 1644TIP3    H126423   6.807   3.066  13.863  0.2296  0.8777  0.0016
 1644TIP3    H226424   6.774   2.934  13.796  0.1386  1.0580 -0.3105
 1645TIP3   OH226425   2.928   5.964   4.218 -0.5687 -0.0980 -0.5763
 1645TIP3    H126426   2.938   6.054   4.188  2.4477  0.2766  1.3623
 1645TIP3    H226427   2.964   5.910   4.147  1.9071  0.5213  0.1496
 1646TIP3   OH226428   4.472   1.777  12.399 -0.6599  0.4577 -0.6465
 1646TIP3    H126429   4.428   1.822  12.327 -0.3981  0.3470 -0.8743
 1646TIP3    H226430   4.533   1.717  12.357 -0.0634  0.8312 -0.3273
 1647TIP3   OH226431   0.372   6.081   4.700  0.5538 -0.6207  0.4595
 1647TIP3    H126432   0.351   5.988   4.692  1.9518 -1.0331  1.2429
 1647TIP3    H226433   0.322   6.111   4.776 -1.5632 -0.1840 -1.0586
 1648TIP3   OH226434   2.158   4.863   0.931  0.1154  0.6325 -0.6935
 1648TIP3    H126435   2.239   4.878   0.981 -0.8653 -0.9700  1.4895
 1648TIP3    H226436   2.134   4.949   0.898  2.8217  1.1001 -1.5952
 1649TIP3   OH226437   2.691   2.250  13.526 -0.1005 -0.0060  0.3533
 1649TIP3    H126438   2.631   2.228  13.454 -0.0962 -0.6841  0.5473
 1649TIP3    H226439   2.771   2.278  13.483  0.4410 -1.8786  0.0653
 1650TIP3   OH226440   0.949   5.462  13.568  0.5504 -0.4282  0.6017
 1650TIP3    H126441   0.997   5.454  13.650  1.1957 -0.4908  0.2169
 1650TIP3    H226442   0.953   5.554  13.546 -0.6103 -0.2119  1.2275
 1651TIP3   OH226443   1.285   0.138  17.275 -0.2893 -0.0088  0.1825
 1651TIP3    H126444   1.297   0.131  17.180  0.4477 -0.5404  0.3167
 1651TIP3    H226445   1.367   0.105  17.312 -0.5877  0.1717  1.0066
 1652TIP3   OH226446   0.877   5.935   5.234  0.3300  0.1359  0.6982
 1652TIP3    H126447   0.943   5.991   5.194 -1.0147  0.9830 -0.3855
 1652TIP3    H226448   0.813   5.919   5.165  0.1969 -1.9901  1.2674
 1653TIP3   OH226449   3.273   5.704   0.404  0.3752  0.4501  0.3307
 1653TIP3    H126450   3.186   5.697   0.364  0.0581  1.5745  0.8034
 1653TIP3    H226451   3.331   5.728   0.332  0.2863 -0.2070  0.0314
 1654TIP3   OH226452   6.419   5.791  13.651 -0.3739 -0.5494 -0.0109
 1654TIP3    H126453   6.463   5.807  13.734  2.8972  0.7489 -1.8574
 1654TIP3    H226454   6.435   5.698  13.633  2.7320  0.1091 -1.1252
 1655TIP3   OH226455   0.011   6.655   3.418  0.1182  0.6318  0.2178
 1655TIP3    H126456   0.059   6.683   3.496  1.7107  0.1612 -0.5802
 1655TIP3    H226457  -0.002   6.736   3.368  0.2581  0.7256  0.3324
 1656TIP3   OH226458   6.002   4.657   3.784 -0.0908  0.4278  0.3808
 1656TIP3    H126459   6.014   4.634   3.692  0.0409 -0.4493  0.6089
 1656TIP3    H226460   6.027   4.578   3.832  0.7173  1.1701  1.2117
 1657TIP3   OH226461   3.087   0.649   1.249  0.1855 -0.5040 -0.6188
 1657TIP3    H126462   3.130   0.735   1.250 -0.0095 -0.4188  0.1586
 1657TIP3    H226463   3.078   0.625   1.341  1.8365 -2.1577 -0.8507
 1658TIP3   OH226464   0.955   4.125  16.655 -0.0102 -0.0646 -0.1951
 1658TIP3    H126465   0.907   4.153  16.733 -1.9066  0.5839 -1.5816
 1658TIP3    H226466   0.888   4.105  16.590  1.5545 -0.1367 -1.8505
 1659TIP3   OH226467   4.325   2.909  11.439  0.1736 -0.1865 -0.5353
 1659TIP3    H126468   4.416   2.891  11.416  0.0160 -1.6160 -0.0892
 1659TIP3    H226469   4.330   2.986  11.497  1.1007 -0.3020 -0.4497
 1660TIP3   OH226470   3.896   1.709   0.745  0.1402 -0.4357 -0.3254
 1660TIP3    H126471   3.897   1.662   0.829  0.6739 -2.2485 -1.3150
 1660TIP3    H226472   3.936   1.794   0.765  0.3093 -0.8655  1.2426
 1661TIP3   OH226473   3.514   0.142   3.216  0.3906  0.1972  0.0182
 1661TIP3    H126474   3.476   0.059   3.190 -1.0745  0.8061  0.1879
 1661TIP3    H226475   3.565   0.121   3.294 -0.1069 -0.5121  0.1599
 1662TIP3   OH226476   3.392   5.609   4.869  0.2870  0.7898 -0.3056
 1662TIP3    H126477   3.424   5.667   4.938  0.5767 -1.1312  1.2278
 1662TIP3    H226478   3.442   5.528   4.880  0.3949  0.4513 -2.8472
 1663TIP3   OH226479   6.385   3.871  16.513  0.2319 -0.2239  0.0667
 1663TIP3    H126480   6.480   3.870  16.529  0.6303  0.6194 -2.0730
 1663TIP3    H226481   6.365   3.963  16.496 -0.3180 -0.8683 -3.0120
 1664TIP3   OH226482   6.731   4.371  12.487  0.3715  0.3103  0.1161
 1664TIP3    H126483   6.719   4.409  12.574 -0.4100 -0.6573  0.4414
 1664TIP3    H226484   6.684   4.288  12.491 -0.4350  0.6696 -1.5133
 1665TIP3   OH226485   1.961   6.489  15.986 -0.0609 -0.0174  0.1767
 1665TIP3    H126486   2.025   6.535  16.040  0.9471 -0.4942 -0.5955
 1665TIP3    H226487   1.905   6.558  15.951  1.0833  0.5856 -0.5083
 1666TIP3   OH226488   1.484   5.330  17.129 -0.4247  0.2784  0.1221
 1666TIP3    H126489   1.495   5.398  17.063 -0.7529  0.9449  0.7418
 1666TIP3    H226490   1.498   5.248  17.082 -0.1054  0.7697 -0.6516
 1667TIP3   OH226491   0.918   0.913   4.991 -0.3475  0.1394 -0.1739
 1667TIP3    H126492   0.879   0.922   4.904 -1.3734  0.6506  0.3350
 1667TIP3    H226493   1.012   0.920   4.976 -0.4913 -0.2949 -1.3094
 1668TIP3   OH226494   3.991   6.070   6.628 -0.2909 -0.4193 -0.1813
 1668TIP3    H126495   3.941   6.120   6.693  1.0273 -0.5810  0.9851
 1668TIP3    H226496   4.080   6.067   6.663  0.7379  0.5191 -2.6156
 1669TIP3   OH226497   5.049   1.017   2.846  0.4377  0.2412 -0.1469
 1669TIP3    H126498   5.061   1.079   2.918  0.0351 -0.1893  0.2907
 1669TIP3    H226499   5.029   1.072   2.770  1.3215  0.7293 -0.0410
 1670TIP3   OH226500   2.667   6.296  11.166 -0.2268 -0.5006  0.0623
 1670TIP3    H126501   2.662   6.327  11.076  0.9974  0.9545  0.4796
 1670TIP3    H226502   2.712   6.212  11.161 -0.2523 -0.4673 -0.6902
 1671TIP3   OH226503   2.593   1.319   6.211  0.0494  0.7191  0.2090
 1671TIP3    H126504   2.650   1.396   6.206  0.2218  0.7124  1.6857
 1671TIP3    H226505   2.592   1.296   6.304 -1.2234 -0.1505 -0.0002
 1672TIP3   OH226506   5.863   6.606   1.614  0.2383  0.0972  0.1592
 1672TIP3    H126507   5.820   6.639   1.693 -0.9723  0.0857 -0.4824
 1672TIP3    H226508   5.830   6.517   1.604 -0.3525  0.4226 -0.8826
 1673TIP3   OH226509   2.647   4.708   1.865  0.4093  0.0450 -0.4817
 1673TIP3    H126510   2.565   4.758   1.862  0.4053  0.0220 -0.7504
 1673TIP3    H226511   2.656   4.683   1.957 -0.3641 -0.7466 -0.6062
 1674TIP3   OH226512   4.857   1.298   3.785 -0.0424  0.0517 -0.3439
 1674TIP3    H126513   4.850   1.321   3.692  0.4970  1.2410 -0.1039
 1674TIP3    H226514   4.767   1.292   3.816 -0.2687 -2.1330 -1.3609
 1675TIP3   OH226515   0.355   6.566  16.243  0.0913  0.4908 -0.0796
 1675TIP3    H126516   0.442   6.537  16.215 -0.3588 -3.3665  2.2383
 1675TIP3    H226517   0.300   6.555  16.165  0.6688 -1.7548 -0.1956
 1676TIP3   OH226518   2.575   2.917   0.594 -0.8598  0.2168  0.3064
 1676TIP3    H126519   2.482   2.940   0.589 -1.0033 -0.1325  1.4280
 1676TIP3    H226520   2.593   2.874   0.510 -1.2709  1.8777 -0.6630
 1677TIP3   OH226521   5.132   4.164   5.173  0.0800 -0.0929 -0.5283
 1677TIP3    H126522   5.067   4.139   5.107  0.2336 -1.1730 -0.2895
 1677TIP3    H226523   5.089   4.146   5.256  0.3303  0.1133 -0.3547
 1678TIP3   OH226524   0.833   3.209   1.953 -0.3714 -0.4261 -0.3910
 1678TIP3    H126525   0.782   3.130   1.969 -0.6196 -0.2310 -0.2043
 1678TIP3    H226526   0.888   3.219   2.030 -1.0822  0.1443  0.0544
 1679TIP3   OH226527   1.096   2.123   4.644 -0.5962  0.2309 -0.0317
 1679TIP3    H126528   1.129   2.204   4.683 -0.4454  0.5750 -0.8715
 1679TIP3    H226529   1.144   2.053   4.689  0.2971  0.6692 -0.3051
 1680TIP3   OH226530   6.034   4.237   3.419  0.5077  0.0938 -0.1353
 1680TIP3    H126531   6.079   4.309   3.374 -0.2294  0.6335 -0.0341
 1680TIP3    H226532   5.971   4.205   3.354  0.8090 -0.4377 -0.1666
 1681TIP3   OH226533   4.836   1.834   0.884  0.0633 -0.5627  0.0406
 1681TIP3    H126534   4.852   1.761   0.824  1.6643 -1.4192  1.4959
 1681TIP3    H226535   4.813   1.907   0.826 -0.3857 -1.8888 -1.4902
 1682TIP3   OH226536   5.243   6.178   0.645  0.2942  0.7323  0.3140
 1682TIP3    H126537   5.221   6.239   0.574 -2.5830 -0.3139  0.2590
 1682TIP3    H226538   5.256   6.234   0.721 -3.5092  1.4355  0.5612
 1683TIP3   OH226539   1.727   1.832  12.841 -0.1218 -0.7684 -0.2143
 1683TIP3    H126540   1.670   1.858  12.914  0.4548 -1.4605  0.4888
 1683TIP3    H226541   1.767   1.914  12.812 -1.2812 -0.3158 -0.5525
 1684TIP3   OH226542   0.943   3.621   2.631 -0.4381  0.3236 -0.6652
 1684TIP3    H126543   1.038   3.608   2.627 -0.4534  0.4480 -1.4346
 1684TIP3    H226544   0.923   3.678   2.557 -0.5765  3.4465  1.6380
 1685TIP3   OH226545   2.476   0.832  15.063  0.2317  0.0585  0.5173
 1685TIP3    H126546   2.500   0.924  15.051 -2.1178  0.6865  0.3182
 1685TIP3    H226547   2.428   0.831  15.146 -0.0913 -0.9030  0.3196
 1686TIP3   OH226548   4.212   4.904  11.368 -0.2270 -0.1930  0.0864
 1686TIP3    H126549   4.217   4.913  11.463  1.6218 -0.0267 -0.0112
 1686TIP3    H226550   4.231   4.992  11.335  3.3574 -1.1384 -0.5150
 1687TIP3   OH226551   4.906   0.677  14.489  0.1286  0.3251  0.3295
 1687TIP3    H126552   4.984   0.674  14.545  0.4121  2.7632  0.1176
 1687TIP3    H226553   4.937   0.649  14.403  0.3205 -0.6333  0.6985
 1688TIP3   OH226554   6.601   4.837  14.031  0.9363  0.7194  0.0160
 1688TIP3    H126555   6.553   4.911  13.992  2.9167  1.9488 -0.1605
 1688TIP3    H226556   6.650   4.876  14.103  2.4719 -0.3273 -0.4540
 1689TIP3   OH226557   6.732   6.584   4.492 -0.3934 -0.2969 -0.0902
 1689TIP3    H126558   6.802   6.606   4.430  1.1214  0.2650  1.7743
 1689TIP3    H226559   6.755   6.631   4.572 -1.9579 -1.5456  1.1347
 1690TIP3   OH226560   4.274   5.168  11.332 -0.5234 -0.0957 -0.4051
 1690TIP3    H126561   4.322   5.244  11.364  1.1926 -0.7551 -1.2919
 1690TIP3    H226562   4.265   5.184  11.238 -2.3727  0.1680 -0.2051
 1691TIP3   OH226563   5.693   6.647   3.603 -0.0712 -0.3660  0.3245
 1691TIP3    H126564   5.633   6.653   3.529  0.5323 -0.6179 -0.1955
 1691TIP3    H226565   5.717   6.737   3.622 -0.8587 -0.2432  0.7391
 1692TIP3   OH226566   1.909   5.397   6.401  0.1574 -0.2745  0.0101
 1692TIP3    H126567   1.955   5.472   6.364 -1.5095  1.1035  0.6379
 1692TIP3    H226568   1.816   5.418   6.392 -0.3686 -2.5319 -0.3271
 1693TIP3   OH226569   1.397   6.549  13.653  0.1524  0.7029 -1.0716
 1693TIP3    H126570   1.467   6.504  13.700  0.4551  2.1923 -0.0525
 1693TIP3    H226571   1.346   6.592  13.722  0.8174  3.2139 -2.0936
 1694TIP3   OH226572   3.216   1.844   1.633  0.1140 -0.0801 -0.1787
 1694TIP3    H126573   3.139   1.894   1.658  0.2475 -0.6694  1.4347
 1694TIP3    H226574   3.255   1.894   1.561  0.4665  2.3608  1.6577
 1695TIP3   OH226575   1.649   0.556  12.450 -0.1244  0.7596 -0.2060
 1695TIP3    H126576   1.682   0.627  12.505 -0.2760  0.2993  0.4739
 1695TIP3    H226577   1.572   0.523  12.496  1.5807 -1.7241  0.9469
 1696TIP3   OH226578   1.558   0.179  13.398  0.2417  0.3744 -0.6457
 1696TIP3    H126579   1.508   0.198  13.319  0.7160  1.0195 -0.7981
 1696TIP3    H226580   1.645   0.216  13.380  0.5308 -0.0201 -0.0688
 1697TIP3   OH226581   0.281   5.471   0.278 -0.0172 -0.1502 -0.1895
 1697TIP3    H126582   0.375   5.486   0.289  0.0806 -0.9137 -0.0101
 1697TIP3    H226583   0.256   5.529   0.206  0.7380 -0.4938 -0.7270
 1698TIP3   OH226584   1.492   5.727  15.314 -0.7727 -0.2257 -0.1627
 1698TIP3    H126585   1.465   5.815  15.341 -1.5933 -0.9247  1.3562
 1698TIP3    H226586   1.443   5.710  15.234 -0.6901  0.6643 -0.4006
 1699TIP3   OH226587   3.999   3.343   3.238 -0.2621  0.1417  0.1021
 1699TIP3    H126588   4.082   3.312   3.274  0.0246  0.9787  0.1510
 1699TIP3    H226589   3.950   3.374   3.314  0.2558  1.7048 -0.1898
 1700TIP3   OH226590   0.672   5.101  16.002 -0.0399  0.5926  0.3647
 1700TIP3    H126591   0.579   5.098  16.025 -0.0944 -0.6337  0.0130
 1700TIP3    H226592   0.676   5.065  15.914  0.9203 -0.5352  0.8589
 1701TIP3   OH226593   0.201   3.349  13.040  0.0495 -0.7285 -0.1447
 1701TIP3    H126594   0.293   3.368  13.021  0.1991 -2.1317 -0.8749
 1701TIP3    H226595   0.175   3.417  13.102  1.8308 -0.8246  0.7573
 1702TIP3   OH226596   0.045   1.273  16.178 -0.0163 -0.2208 -0.5821
 1702TIP3    H126597   0.092   1.219  16.115  0.7330  0.1250 -0.3200
 1702TIP3    H226598  -0.019   1.321  16.125  1.4538  1.0202 -1.2956
 1703TIP3   OH226599   5.855   2.725  16.574  0.3343 -0.6013 -0.5526
 1703TIP3    H126600   5.789   2.743  16.642 -0.1773 -0.2963 -1.1205
 1703TIP3    H226601   5.860   2.629  16.571  0.5496 -0.6111  0.0989
 1704TIP3   OH226602   1.664   2.762   5.195 -0.0612  0.3750  0.1626
 1704TIP3    H126603   1.662   2.726   5.106 -1.5084  0.6848  0.0557
 1704TIP3    H226604   1.751   2.803   5.202 -0.1991  0.9835 -1.3693
 1705TIP3   OH226605   2.169   5.011   6.502  0.1360 -0.2476 -0.3454
 1705TIP3    H126606   2.166   5.089   6.447  2.0646  0.1663  0.0989
 1705TIP3    H226607   2.158   5.044   6.591 -1.2927 -0.7304 -0.3397
 1706TIP3   OH226608   6.082   0.377   0.350 -0.3526 -0.0474 -0.6923
 1706TIP3    H126609   6.149   0.446   0.353 -1.0875  0.6678 -0.4720
 1706TIP3    H226610   6.100   0.323   0.426  0.9441 -0.7796 -1.5073
 1707TIP3   OH226611   1.968   6.606  11.027  0.4213  0.0670  0.3105
 1707TIP3    H126612   1.902   6.653  10.976  0.2949  1.5905  1.8372
 1707TIP3    H226613   1.971   6.519  10.988  0.1263  1.1093 -2.1204
 1708TIP3   OH226614   4.873   6.502  16.677  0.1934  0.2785  0.7398
 1708TIP3    H126615   4.953   6.452  16.693  0.3660  0.3570  0.1269
 1708TIP3    H226616   4.902   6.577  16.625 -0.4044 -0.1139 -0.1778
 1709TIP3   OH226617   1.481   1.011  17.269 -0.1194 -0.3127  0.5058
 1709TIP3    H126618   1.547   1.046  17.329 -0.5355  1.0584  0.1806
 1709TIP3    H226619   1.517   1.029  17.182 -1.1599  0.9331  0.3228
 1710TIP3   OH226620   0.593   5.099  13.334 -0.0521  0.3346 -0.3059
 1710TIP3    H126621   0.632   5.183  13.358  1.1987 -0.5291  0.7606
 1710TIP3    H226622   0.528   5.082  13.403  2.3978 -1.3666  1.6988
 1711TIP3   OH226623   4.643   2.470  14.231 -0.5413  0.2806  0.0406
 1711TIP3    H126624   4.676   2.510  14.151 -0.8336  1.1237  0.3400
 1711TIP3    H226625   4.717   2.418  14.264  0.1117  1.2112  0.0768
 1712TIP3   OH226626   1.969   4.881   3.075  0.5440  0.0357 -0.1215
 1712TIP3    H126627   1.975   4.813   3.008 -1.8670  0.1601 -0.4924
 1712TIP3    H226628   1.889   4.929   3.054  1.0895  1.6694  1.3831
 1713TIP3   OH226629   0.466   6.746  16.037  0.3068 -0.2351 -0.4414
 1713TIP3    H126630   0.420   6.704  16.110 -0.5414 -0.1106 -0.8944
 1713TIP3    H226631   0.498   6.673  15.985  1.4377 -0.3307  0.3650
 1714TIP3   OH226632   4.818   6.127  14.488 -0.3031 -0.4016  0.6876
 1714TIP3    H126633   4.800   6.204  14.543  1.4399 -0.1817  0.9827
 1714TIP3    H226634   4.901   6.146  14.447 -1.3120 -0.8325 -1.6180
 1715TIP3   OH226635   4.751   5.249  15.518 -0.4261  0.4559  0.0834
 1715TIP3    H126636   4.727   5.156  15.509  1.9474 -0.1170 -0.8053
 1715TIP3    H226637   4.675   5.289  15.560 -1.2377 -2.0222  1.1236
 1716TIP3   OH226638   1.900   5.813   4.631 -0.1141 -0.2505  0.0938
 1716TIP3    H126639   1.953   5.767   4.697  0.6004 -0.4524 -0.6121
 1716TIP3    H226640   1.811   5.810   4.666  0.2377 -0.4628  0.9960
 1717TIP3   OH226641   6.764   0.573  14.646  0.6163 -0.1828  0.0594
 1717TIP3    H126642   6.739   0.603  14.558  0.9158 -0.0496  0.0162
 1717TIP3    H226643   6.683   0.541  14.685  0.2763  0.7371  0.1216
 1718TIP3   OH226644   1.395   3.856  13.443 -0.7496  0.7935 -0.6304
 1718TIP3    H126645   1.329   3.876  13.377 -2.0048  0.0751  0.3826
 1718TIP3    H226646   1.345   3.838  13.523  0.6852  0.5379  0.2400
 1719TIP3   OH226647   4.164   6.322  12.914  0.1880  0.0333 -0.3349
 1719TIP3    H126648   4.152   6.243  12.966  2.7240  0.6146  1.2326
 1719TIP3    H226649   4.151   6.394  12.975 -0.1963  0.7973 -1.2993
 1720TIP3   OH226650   4.051   5.404   3.484 -0.0149  0.6400  0.0985
 1720TIP3    H126651   3.971   5.364   3.449  0.6410  0.6722 -1.4536
 1720TIP3    H226652   4.024   5.441   3.568 -1.1310 -1.2446  0.6114
 1721TIP3   OH226653   4.226   1.555   4.265 -0.0295 -0.2853  0.1728
 1721TIP3    H126654   4.210   1.642   4.229  1.9200  0.4166  0.9627
 1721TIP3    H226655   4.295   1.518   4.210 -1.9835 -2.0138 -1.1986
 1722TIP3   OH226656   2.856   5.451   4.694  0.2855  0.6658 -0.5277
 1722TIP3    H126657   2.893   5.374   4.737 -0.5098  0.0416 -0.9549
 1722TIP3    H226658   2.822   5.505   4.766  0.3394  0.3586 -0.2718
 1723TIP3   OH226659   1.700   2.081   4.007  0.4919 -0.0674 -0.4493
 1723TIP3    H126660   1.683   2.000   4.055 -0.7329  0.8435  0.7011
 1723TIP3    H226661   1.626   2.088   3.947  0.5785  0.2192 -0.5219
 1724TIP3   OH226662   2.671   3.993   4.848  0.1574  0.1143 -0.4568
 1724TIP3    H126663   2.590   3.953   4.881  1.0783 -1.7277 -0.3669
 1724TIP3    H226664   2.670   4.082   4.884 -2.1765  0.3588 -1.0710
 1725TIP3   OH226665   0.638   0.456  15.711  0.0148 -0.7309  0.3577
 1725TIP3    H126666   0.727   0.435  15.682 -0.2257  0.9685 -1.7090
 1725TIP3    H226667   0.649   0.498  15.796  1.1493 -0.9172  0.3033
 1726TIP3   OH226668   1.248   3.715  16.587  0.0723 -0.6565 -0.2055
 1726TIP3    H126669   1.253   3.810  16.576  0.4937 -0.4930  1.3904
 1726TIP3    H226670   1.325   3.682  16.541  1.6104  0.0073  1.8163
 1727TIP3   OH226671   4.183   2.810  12.445 -0.7798  0.2982  0.3602
 1727TIP3    H126672   4.220   2.876  12.386  0.0644  0.9561  1.6217
 1727TIP3    H226673   4.240   2.811  12.522 -1.9440 -0.4834  1.2465
 1728TIP3   OH226674   2.999   3.305   0.973  0.4819  0.3017  0.6412
 1728TIP3    H126675   2.934   3.258   1.025 -2.0651  2.9383 -0.0320
 1728TIP3    H226676   3.016   3.249   0.897 -3.3874  0.9504 -0.7686
 1729TIP3   OH226677   4.782   6.328  12.298 -0.2937 -0.2786  0.0502
 1729TIP3    H126678   4.792   6.423  12.310 -0.1890 -0.2092 -0.5752
 1729TIP3    H226679   4.800   6.291  12.385  0.2530  0.2327  0.1571
 1730TIP3   OH226680   1.135   2.259   5.615  0.5626 -0.2861 -0.5007
 1730TIP3    H126681   1.165   2.217   5.534  2.5460 -1.7653  0.9716
 1730TIP3    H226682   1.045   2.228   5.627  1.4450 -2.8705 -0.2952
 1731TIP3   OH226683   1.921   6.047  13.284  0.0830 -0.8700 -0.1729
 1731TIP3    H126684   1.870   6.052  13.203 -0.4647 -0.6261  0.1851
 1731TIP3    H226685   2.004   6.089  13.263 -0.3390 -0.1313 -0.3911
 1732TIP3   OH226686   2.614   2.294   5.247 -0.1974  0.1520 -0.7737
 1732TIP3    H126687   2.632   2.386   5.231 -0.3134  0.2180 -0.5102
 1732TIP3    H226688   2.696   2.259   5.283  0.0450  0.0167 -1.4407
 1733TIP3   OH226689   1.130   6.697  12.481  0.3272  0.2004 -0.0579
 1733TIP3    H126690   1.124   6.721  12.389  1.8071  0.9905  0.0400
 1733TIP3    H226691   1.138   6.780  12.527  0.9289 -0.2586  0.6731
 1734TIP3   OH226692   0.888   1.981   2.781 -0.2430 -0.3584  0.1398
 1734TIP3    H126693   0.798   1.946   2.776 -0.0711 -0.6710 -0.8532
 1734TIP3    H226694   0.927   1.936   2.855 -0.2570 -1.7763 -0.6883
 1735TIP3   OH226695   0.933   3.661  16.095 -0.0881  0.1414  0.0065
 1735TIP3    H126696   0.977   3.726  16.149  0.4913 -0.7624  0.6362
 1735TIP3    H226697   0.967   3.577  16.125 -0.8264 -0.4624 -0.7940
 1736TIP3   OH226698   0.844   6.218  13.691 -0.1625 -0.3692 -0.4682
 1736TIP3    H126699   0.845   6.164  13.770 -2.2079 -1.0141 -0.8352
 1736TIP3    H226700   0.931   6.208  13.653  0.2815 -1.4128  0.8021
 1737TIP3   OH226701   3.174   0.604  16.416 -0.0372  0.8451  0.0358
 1737TIP3    H126702   3.256   0.559  16.434  0.7414  1.1020 -2.6488
 1737TIP3    H226703   3.196   0.697  16.418  0.6007  0.8842 -4.0514
 1738TIP3   OH226704   2.760   0.599  17.135  0.6259 -0.1640 -0.1800
 1738TIP3    H126705   2.680   0.652  17.129  0.4229 -0.5792 -1.2627
 1738TIP3    H226706   2.824   0.647  17.082  0.1785 -1.4577 -1.9225
 1739TIP3   OH226707   6.006   1.227  14.696  0.5414  0.3371 -0.0085
 1739TIP3    H126708   6.010   1.311  14.650 -1.3124  1.1798  1.3380
 1739TIP3    H226709   5.960   1.169  14.635  0.9325  0.5644 -0.5296
 1740TIP3   OH226710   3.695   0.079   3.574  0.2593 -0.2573  0.5753
 1740TIP3    H126711   3.772   0.042   3.619 -0.8994 -2.0184  1.1661
 1740TIP3    H226712   3.655   0.004   3.531  0.4051  1.1335 -2.0356
 1741TIP3   OH226713   4.147   6.591   4.656  0.0578 -0.4372  0.9906
 1741TIP3    H126714   4.177   6.572   4.567 -0.9804 -0.5654  0.6598
 1741TIP3    H226715   4.225   6.622   4.701 -0.0406  2.8703 -0.8771
 1742TIP3   OH226716   5.210   1.890   3.619 -0.7476  0.1479  0.3578
 1742TIP3    H126717   5.256   1.808   3.604  0.3750  0.8677 -0.2120
 1742TIP3    H226718   5.262   1.936   3.685  0.4635  1.8002 -1.6665
 1743TIP3   OH226719   1.650   4.616  15.390 -0.5192  0.7349  0.4703
 1743TIP3    H126720   1.619   4.693  15.343 -0.5263  1.5210  1.7409
 1743TIP3    H226721   1.659   4.645  15.481  0.5173 -0.4641  0.7650
 1744TIP3   OH226722   3.757   0.420   5.619  0.6090 -0.5154 -0.6368
 1744TIP3    H126723   3.820   0.402   5.549 -0.4485 -0.9239 -1.5140
 1744TIP3    H226724   3.809   0.426   5.699  1.8065 -0.3290 -1.4236
 1745TIP3   OH226725   2.034   5.618   3.762 -0.4123  0.3654  0.1068
 1745TIP3    H126726   1.960   5.635   3.703  0.5532  1.0847 -0.9127
 1745TIP3    H226727   2.041   5.523   3.766 -1.0804  0.3008 -0.1703
 1746TIP3   OH226728   1.900   0.376  15.730  0.4960  0.2861  0.5169
 1746TIP3    H126729   1.891   0.403  15.638 -4.0969 -1.8592  0.2059
 1746TIP3    H226730   1.968   0.309  15.728  1.9317  1.7229 -0.9436
 1747TIP3   OH226731   3.311   1.001  14.329 -0.0619 -0.2864 -0.6119
 1747TIP3    H126732   3.230   1.035  14.292 -0.8511 -1.9083 -0.3937
 1747TIP3    H226733   3.297   0.907  14.338  1.8601 -0.6043 -0.6153
 1748TIP3   OH226734   4.344   1.667  11.940  0.3680 -0.2873  0.0166
 1748TIP3    H126735   4.337   1.733  12.009  0.9871  1.1395 -1.2795
 1748TIP3    H226736   4.433   1.632  11.949  0.8412  0.6867 -0.7425
 1749TIP3   OH226737   3.380   1.066  12.180  0.0168 -0.0175  0.0666
 1749TIP3    H126738   3.428   1.137  12.223 -0.2593  0.5384 -0.5337
 1749TIP3    H226739   3.433   0.988  12.195  0.6374  0.4280  0.2004
 1750TIP3   OH226740   2.664   3.116  12.005  0.1208  0.3267  0.1426
 1750TIP3    H126741   2.583   3.099  12.052  0.0628 -2.1360 -0.7429
 1750TIP3    H226742   2.650   3.076  11.919  1.4586  1.7989 -0.7827
 1751TIP3   OH226743   3.188   6.554   2.149 -0.0897 -0.2157 -0.3702
 1751TIP3    H126744   3.104   6.582   2.186  0.6295 -0.6223  1.6786
 1751TIP3    H226745   3.247   6.628   2.166 -0.1177  0.2300 -2.1573
 1752TIP3   OH226746   2.748   6.041   2.462  0.1598 -0.5510  0.2753
 1752TIP3    H126747   2.685   5.983   2.506 -1.0472 -0.9099 -1.8604
 1752TIP3    H226748   2.817   5.983   2.430  0.2502 -0.4833  0.3461
 1753TIP3   OH226749   4.910   4.989   3.180 -0.0492 -0.0181  0.0032
 1753TIP3    H126750   4.973   5.015   3.247 -2.1723  1.5956  1.4467
 1753TIP3    H226751   4.854   5.066   3.169 -0.7015 -0.8252 -2.4809
 1754TIP3   OH226752   5.568   0.521  16.118 -0.0170 -0.6813 -0.3500
 1754TIP3    H126753   5.483   0.519  16.162 -0.2410 -0.1207 -0.7646
 1754TIP3    H226754   5.631   0.499  16.188 -0.2978  0.9303  0.4335
 1755TIP3   OH226755   0.900   4.529  13.325 -0.4325 -0.0279 -0.1770
 1755TIP3    H126756   0.915   4.568  13.412 -0.3789 -0.6854  0.1099
 1755TIP3    H226757   0.806   4.510  13.324 -0.3238 -0.5740 -0.0321
 1756TIP3   OH226758   1.473   6.350  11.228 -0.1095 -0.3714 -0.4194
 1756TIP3    H126759   1.467   6.256  11.214 -0.5490 -0.7043  1.8481
 1756TIP3    H226760   1.560   6.363  11.266 -0.8987 -0.1694  1.3713
 1757TIP3   OH226761   4.876   2.411   5.396 -0.3812 -0.2921 -0.1210
 1757TIP3    H126762   4.814   2.429   5.467 -0.3466 -0.0795 -0.1445
 1757TIP3    H226763   4.866   2.485   5.337 -0.5700 -0.5797 -0.4499
 1758TIP3   OH226764   3.141   6.795   3.222  0.4504  0.0819  0.2470
 1758TIP3    H126765   3.179   6.820   3.307  0.1920  0.6468  0.1967
 1758TIP3    H226766   3.075   6.730   3.244  0.6408 -0.0437  0.4474
 1759TIP3   OH226767   5.348   0.608   5.568  0.0895 -0.1018  0.3778
 1759TIP3    H126768   5.423   0.551   5.586 -0.4753 -0.8581  0.3591
 1759TIP3    H226769   5.284   0.584   5.634 -0.7478 -0.5800 -0.6036
 1760TIP3   OH226770   0.377   2.568  13.825 -0.0057  0.5580  0.8337
 1760TIP3    H126771   0.364   2.571  13.920  0.1933 -1.6660  0.9505
 1760TIP3    H226772   0.471   2.563  13.814 -0.0670 -0.0711  0.5626
 1761TIP3   OH226773   0.257   3.304   6.088  0.5585 -0.2305 -0.0610
 1761TIP3    H126774   0.209   3.340   6.163  0.7830 -1.1456  0.5155
 1761TIP3    H226775   0.347   3.296   6.118  0.3646 -2.0441  0.0807
 1762TIP3   OH226776   5.637   5.058   1.122  0.0348  0.5938  0.4794
 1762TIP3    H126777   5.560   5.050   1.179 -3.0948  1.2194 -3.4364
 1762TIP3    H226778   5.647   5.152   1.106  1.0204  0.4526  0.1937
 1763TIP3   OH226779   2.034   1.474  14.596  0.1865 -0.4636  0.1779
 1763TIP3    H126780   2.088   1.490  14.519  0.2531 -0.0090  0.3157
 1763TIP3    H226781   1.958   1.427  14.563 -0.8317  1.6028 -0.5403
 1764TIP3   OH226782   6.225   4.385  16.990  0.1600  0.6622  0.4696
 1764TIP3    H126783   6.247   4.425  16.905 -0.2173 -2.2799 -1.0829
 1764TIP3    H226784   6.137   4.417  17.010  0.4752  1.8213  0.0486
 1765TIP3   OH226785   1.926   3.142   4.971 -0.2852  0.5337  0.2152
 1765TIP3    H126786   1.884   3.061   4.940 -2.0165  1.9080 -1.1776
 1765TIP3    H226787   1.974   3.174   4.894 -0.3190  1.2806  0.5085
 1766TIP3   OH226788   2.980   2.112   4.608  0.1168 -0.0978 -0.0483
 1766TIP3    H126789   2.966   2.021   4.633  1.5070 -0.3184 -0.0043
 1766TIP3    H226790   2.949   2.163   4.683 -2.8276 -0.4128 -1.0190
 1767TIP3   OH226791   6.706   1.659   4.296 -0.2151 -0.0628  0.4082
 1767TIP3    H126792   6.626   1.612   4.319  0.4417 -0.6390  1.5840
 1767TIP3    H226793   6.767   1.591   4.267 -0.9687  0.6332 -3.0425
 1768TIP3   OH226794   0.636   1.056   2.438 -0.1828  0.2378 -0.1070
 1768TIP3    H126795   0.630   1.137   2.388 -0.3167 -0.0571 -0.5700
 1768TIP3    H226796   0.691   0.999   2.384 -0.3781 -0.1002  0.0521
 1769TIP3   OH226797   6.034   1.215  13.320 -0.1219  0.4011  0.0580
 1769TIP3    H126798   5.952   1.205  13.272  0.0591 -1.7076  0.1085
 1769TIP3    H226799   6.007   1.229  13.411 -0.4340 -0.5341  0.1129
 1770TIP3   OH226800   5.545   4.001   4.985  0.5296  0.0775 -0.1470
 1770TIP3    H126801   5.504   3.916   4.975  0.2169  0.2691 -0.5170
 1770TIP3    H226802   5.492   4.047   5.049  0.7067 -0.0106  0.0628
 1771TIP3   OH226803   5.766   4.412   2.636 -0.3053 -0.2569 -0.0269
 1771TIP3    H126804   5.796   4.398   2.547 -1.1049 -0.1482 -0.3175
 1771TIP3    H226805   5.680   4.454   2.626 -0.1625  0.2470  0.7891
 1772TIP3   OH226806   3.291   3.395  13.527 -0.0648  0.1280  0.5054
 1772TIP3    H126807   3.342   3.476  13.534  0.2179 -0.1927  2.3560
 1772TIP3    H226808   3.351   3.331  13.490  0.1270  0.4125  0.3243
 1773TIP3   OH226809   2.226   2.101  16.553 -0.0301  0.0281 -0.4359
 1773TIP3    H126810   2.261   2.063  16.472  1.0788 -1.7044  0.8309
 1773TIP3    H226811   2.243   2.195  16.545  1.8876 -0.3807 -1.3369
 1774TIP3   OH226812   0.221   2.300  15.882  0.0651  0.3938 -0.9359
 1774TIP3    H126813   0.144   2.293  15.826  0.6756 -0.1949 -1.7118
 1774TIP3    H226814   0.198   2.250  15.961  0.2927 -1.2871 -1.8977
 1775TIP3   OH226815   2.967   5.051  15.421 -0.5648 -0.1334 -0.1241
 1775TIP3    H126816   2.917   5.119  15.376  1.9153  1.2850 -0.7969
 1775TIP3    H226817   2.954   4.973  15.367 -1.7895  0.2834 -0.4607
 1776TIP3   OH226818   4.282   1.989  11.154 -0.0211  0.5196 -0.2019
 1776TIP3    H126819   4.207   2.044  11.131 -0.5795 -0.4413 -0.7011
 1776TIP3    H226820   4.284   1.922  11.087  1.2264  0.4621 -0.1263
 1777TIP3   OH226821   1.986   4.890   5.787 -0.6994 -0.0696 -0.6309
 1777TIP3    H126822   1.920   4.823   5.770  0.6293 -0.9438 -2.5697
 1777TIP3    H226823   2.063   4.841   5.818 -0.8953  0.9200  1.4810
 1778TIP3   OH226824   0.064   5.654  14.893  0.2558 -0.4801  0.1014
 1778TIP3    H126825   0.115   5.652  14.812 -0.8643 -0.4331 -0.6093
 1778TIP3    H226826  -0.025   5.674  14.865  0.1075  0.8256  1.4743
 1779TIP3   OH226827   5.041   3.955   6.686 -0.5540  0.8091 -0.0148
 1779TIP3    H126828   4.967   3.906   6.720  0.0747 -1.1278 -1.3592
 1779TIP3    H226829   5.097   3.971   6.762 -0.2449 -1.4931  0.2668
 1780TIP3   OH226830   4.006   6.149  16.136 -0.1320 -0.1429 -0.0081
 1780TIP3    H126831   3.999   6.136  16.230 -0.7969  3.0848  0.4688
 1780TIP3    H226832   3.964   6.072  16.097 -0.7629 -1.0196  2.3405
 1781TIP3   OH226833   2.224   3.191   2.623  0.0900 -0.7572 -0.4908
 1781TIP3    H126834   2.269   3.198   2.708  0.8450 -1.2628 -0.8478
 1781TIP3    H226835   2.141   3.147   2.643  0.4609 -1.2777 -0.0849
 1782TIP3   OH226836   5.344   3.577   4.395 -0.0715  0.0664  0.6202
 1782TIP3    H126837   5.372   3.668   4.384  0.1182  0.0141  0.6590
 1782TIP3    H226838   5.422   3.525   4.372 -0.9299 -0.1591 -1.9703
 1783TIP3   OH226839   1.958   6.057  17.256  0.3876  1.0428  0.3408
 1783TIP3    H126840   2.012   6.123  17.301  2.1332  1.3934 -2.1739
 1783TIP3    H226841   1.920   6.103  17.182  2.0420 -0.8773 -1.7521
 1784TIP3   OH226842   0.262   4.816  14.987  0.0387 -0.0819 -0.1282
 1784TIP3    H126843   0.310   4.733  14.994  1.4784  0.6089 -1.3307
 1784TIP3    H226844   0.174   4.795  15.016  1.2233 -1.2371  2.9019
 1785TIP3   OH226845   4.902   3.743  13.062  0.1623 -0.2681 -0.0022
 1785TIP3    H126846   4.958   3.806  13.016  2.0099 -1.7377  0.2053
 1785TIP3    H226847   4.877   3.788  13.143 -0.4431  1.0804 -0.9240
 1786TIP3   OH226848   4.886   4.765  14.036 -0.1298  0.8714  0.4091
 1786TIP3    H126849   4.900   4.670  14.043  0.2534  0.8584 -0.4947
 1786TIP3    H226850   4.961   4.803  14.083  0.8636  0.7491 -1.0557
 1787TIP3   OH226851   2.279   3.313   0.431  0.1219 -0.3034  0.0496
 1787TIP3    H126852   2.292   3.242   0.368  1.0514  1.1758 -1.4657
 1787TIP3    H226853   2.273   3.392   0.378 -1.1457  0.7450  1.6934
 1788TIP3   OH226854   3.947   6.640   3.723  0.2619 -0.2876 -0.2224
 1788TIP3    H126855   3.997   6.605   3.797 -0.0200 -0.7371 -0.2441
 1788TIP3    H226856   3.970   6.733   3.721  0.8317 -0.4196 -0.0177
 1789TIP3   OH226857   6.050   2.743   2.684 -0.4746 -0.2990 -0.6869
 1789TIP3    H126858   6.126   2.792   2.714  1.1927 -2.9531 -0.4536
 1789TIP3    H226859   6.021   2.694   2.761 -0.7022 -1.4395 -1.4819
 1790TIP3   OH226860   4.116   0.418  13.429 -0.1073 -0.2928 -0.8658
 1790TIP3    H126861   4.078   0.333  13.405 -1.5471  0.4759 -1.3106
 1790TIP3    H226862   4.091   0.477  13.358  0.0153  0.7576 -0.0467
 1791TIP3   OH226863   5.595   5.600  16.578 -0.5358  0.3572 -0.4873
 1791TIP3    H126864   5.602   5.504  16.574  2.4413  0.5236 -0.0943
 1791TIP3    H226865   5.611   5.621  16.670 -0.0702  1.3072 -0.7834
 1792TIP3   OH226866   4.098   0.469   3.885 -0.3577  0.2673  0.2173
 1792TIP3    H126867   4.044   0.427   3.817  1.9784 -0.7665 -1.0684
 1792TIP3    H226868   4.056   0.444   3.967 -1.7846 -0.5918 -0.7459
 1793TIP3   OH226869   5.526   1.093  16.509  0.4898 -0.1265  0.1776
 1793TIP3    H126870   5.489   1.173  16.546 -0.0411 -0.0095 -0.5690
 1793TIP3    H226871   5.513   1.027  16.577 -1.5662 -0.1979 -0.2322
 1794TIP3   OH226872   3.458   5.842  12.785  0.4005  0.3850 -0.3261
 1794TIP3    H126873   3.379   5.803  12.822  1.0566 -0.8988 -0.2765
 1794TIP3    H226874   3.530   5.797  12.829  1.1736  0.0605 -1.9030
 1795TIP3   OH226875   6.450   5.690   2.825  0.3073  0.3842  0.2846
 1795TIP3    H126876   6.482   5.745   2.754 -0.4290 -1.2129 -1.3173
 1795TIP3    H226877   6.496   5.722   2.903  1.7634  1.5910 -1.0443
 1796TIP3   OH226878   4.007   4.381  12.186 -0.2849  0.0437  0.1232
 1796TIP3    H126879   3.994   4.293  12.152 -1.4773 -0.3251  1.4615
 1796TIP3    H226880   4.064   4.369  12.262 -0.6168  0.3933  0.4302
 1797TIP3   OH226881   5.581   4.178  12.744  0.4158 -0.2281 -0.0206
 1797TIP3    H126882   5.592   4.101  12.688  0.2182  0.1020 -0.5186
 1797TIP3    H226883   5.634   4.246  12.701 -0.6883  0.3616 -0.4621
 1798TIP3   OH226884   1.960   5.726  11.978  0.4809  0.3102  0.6723
 1798TIP3    H126885   1.874   5.758  12.004 -0.2320 -0.6277 -0.4708
 1798TIP3    H226886   1.977   5.652  12.036  1.4316  1.7574  2.2624
 1799TIP3   OH226887   3.671   5.630  11.079  0.1217  0.4425  0.2204
 1799TIP3    H126888   3.608   5.598  11.015 -0.8309  0.3777  1.1720
 1799TIP3    H226889   3.739   5.562  11.083 -0.5484 -0.2209  0.3377
 1800TIP3   OH226890   5.119   0.695   2.219 -0.2091  0.5978  0.7382
 1800TIP3    H126891   5.186   0.762   2.207  0.1672 -0.2424 -2.1483
 1800TIP3    H226892   5.053   0.715   2.153 -0.6633 -1.1748  0.6333
 1801TIP3   OH226893   2.384   4.563  16.300  0.0325 -0.3260  0.4309
 1801TIP3    H126894   2.411   4.581  16.210 -0.6860  0.7447  0.4027
 1801TIP3    H226895   2.294   4.597  16.304 -0.2975 -1.2819  1.2701
 1802TIP3   OH226896   1.624   5.541   4.530  0.0003  0.6063  0.1474
 1802TIP3    H126897   1.554   5.554   4.467  0.4631  2.6343  0.0239
 1802TIP3    H226898   1.630   5.446   4.540 -0.4060  0.2655 -2.4831
 1803TIP3   OH226899   1.998   2.967  15.520 -0.5088 -0.1523 -0.4496
 1803TIP3    H126900   1.906   2.981  15.496  0.0887  1.1520 -2.0784
 1803TIP3    H226901   2.043   3.045  15.488  1.2985 -1.1302 -0.3566
 1804TIP3   OH226902   3.874   1.128  13.531  0.7032 -0.4269  0.6326
 1804TIP3    H126903   3.789   1.130  13.575 -0.6213  0.1919 -1.8113
 1804TIP3    H226904   3.937   1.152  13.599 -1.2724  0.7973  2.1022
 1805TIP3   OH226905   6.463   3.734  15.714  0.1635 -0.1649  0.1618
 1805TIP3    H126906   6.455   3.695  15.626  0.7003 -1.7853  0.7992
 1805TIP3    H226907   6.536   3.796  15.706 -0.9715  1.0399 -0.9868
 1806TIP3   OH226908   4.405   0.990  16.479 -0.0872  0.5784  0.2253
 1806TIP3    H126909   4.315   1.004  16.510  0.1372 -0.3884  1.3195
 1806TIP3    H226910   4.399   0.912  16.424  0.1024  0.4839  0.3413
 1807TIP3   OH226911   2.202   4.305  15.961 -0.3580  0.2136 -0.0650
 1807TIP3    H126912   2.162   4.335  16.042  0.7528 -0.8681  0.9016
 1807TIP3    H226913   2.290   4.340  15.962  0.5020 -1.8724  0.4239
 1808TIP3   OH226914   4.480   1.910   0.818  0.1507 -0.1706 -0.6457
 1808TIP3    H126915   4.414   1.952   0.874 -0.9708  0.0698 -2.0877
 1808TIP3    H226916   4.520   1.983   0.770 -0.1728 -0.5158 -1.4596
 1809TIP3   OH226917   4.138   4.313  12.429 -0.2102 -0.1652  0.0905
 1809TIP3    H126918   4.228   4.296  12.458 -0.0841 -0.3470 -0.3935
 1809TIP3    H226919   4.120   4.403  12.456  0.4452  0.1880 -0.6252
 1810TIP3   OH226920   3.779   6.475   5.263 -0.2544 -0.0617 -0.3760
 1810TIP3    H126921   3.795   6.558   5.308 -0.5083 -0.0197 -0.3642
 1810TIP3    H226922   3.716   6.497   5.194  0.3347 -0.0673 -0.9272
 1811TIP3   OH226923   6.179   1.625   5.780  0.0490 -0.0461 -0.5716
 1811TIP3    H126924   6.237   1.627   5.857  0.5695  0.6118 -0.9745
 1811TIP3    H226925   6.094   1.600   5.815  0.4427 -0.4426  0.1196
 1812TIP3   OH226926   4.424   4.601  15.134 -0.3365 -0.1447 -0.6899
 1812TIP3    H126927   4.376   4.660  15.191  0.0418 -0.0868 -0.4319
 1812TIP3    H226928   4.467   4.658  15.070 -0.9631 -0.2260 -1.1920
 1813TIP3   OH226929   5.584   5.910  13.148  0.1867 -0.3865  0.3874
 1813TIP3    H126930   5.592   6.004  13.133 -1.2703 -0.2039  0.7678
 1813TIP3    H226931   5.496   5.888  13.120  0.5941 -1.6891  0.0943
 1814TIP3   OH226932   5.067   0.326   4.301 -0.3157 -0.4276  0.1489
 1814TIP3    H126933   5.053   0.409   4.347  1.4507 -1.2101  2.2136
 1814TIP3    H226934   5.085   0.351   4.211 -3.2388  1.1987 -0.0689
 1815TIP3   OH226935   0.392   1.988   3.356 -0.0098 -0.0314  0.6558
 1815TIP3    H126936   0.379   1.895   3.373  1.7643 -0.4086  0.0529
 1815TIP3    H226937   0.371   1.999   3.264 -0.8176  0.2802  0.8779
 1816TIP3   OH226938   3.402   4.627   2.747  0.0599  0.1359  0.1149
 1816TIP3    H126939   3.320   4.620   2.698  0.5483  0.2430 -0.7196
 1816TIP3    H226940   3.410   4.543   2.793 -0.1191 -0.1771 -0.4263
 1817TIP3   OH226941   4.804   0.834   1.411  0.3379 -0.0910  0.4974
 1817TIP3    H126942   4.850   0.753   1.428  0.2253 -0.5366 -1.2538
 1817TIP3    H226943   4.713   0.808   1.397  0.2778  0.3434  0.0429
 1818TIP3   OH226944   3.081   5.888   5.632  0.0763 -0.2378  0.1603
 1818TIP3    H126945   3.076   5.811   5.575  1.0432  1.7167 -2.6731
 1818TIP3    H226946   2.993   5.896   5.669 -0.4834 -1.7476 -0.7688
 1819TIP3   OH226947   4.682   5.638   6.429 -0.0509 -0.2431  0.1106
 1819TIP3    H126948   4.620   5.701   6.466  0.7243  1.7445 -1.8587
 1819TIP3    H226949   4.766   5.661   6.469  0.0485 -0.6753  0.1479
 1820TIP3   OH226950   1.831   3.627   1.981  0.4062 -0.1140 -0.0837
 1820TIP3    H126951   1.788   3.673   2.054  2.4439 -0.3296  1.3021
 1820TIP3    H226952   1.913   3.675   1.968  0.1389 -0.2049 -2.1280
 1821TIP3   OH226953   6.149   5.882  15.501 -0.4398 -0.4684 -0.1492
 1821TIP3    H126954   6.123   5.880  15.409  1.5535  0.2254 -0.7449
 1821TIP3    H226955   6.214   5.952  15.506  0.4088 -1.3633  1.5201
 1822TIP3   OH226956   2.247   5.122  11.597 -0.3378 -0.3028  0.2373
 1822TIP3    H126957   2.179   5.085  11.653 -0.1242 -0.0852  0.6384
 1822TIP3    H226958   2.200   5.174  11.533 -0.6244 -1.0287 -0.1495
 1823TIP3   OH226959   5.551   3.914  11.427 -0.0164  0.0012 -0.3401
 1823TIP3    H126960   5.471   3.903  11.377  0.1292  1.2872 -0.8813
 1823TIP3    H226961   5.605   3.972  11.373  0.9409 -0.2004  0.3912
 1824TIP3   OH226962   0.259   3.474  13.859 -0.3286  0.0346  0.5498
 1824TIP3    H126963   0.230   3.495  13.948 -0.8087  0.1172  0.3765
 1824TIP3    H226964   0.323   3.404  13.871 -2.3367 -1.8186  0.7904
 1825TIP3   OH226965   5.098   2.318   0.069 -0.0325 -0.0484  0.5598
 1825TIP3    H126966   5.160   2.339   0.139 -0.3809  0.3893  0.7364
 1825TIP3    H226967   5.036   2.258   0.110 -0.7484  0.8989  0.8738
 1826TIP3   OH226968   4.767   6.759   5.699 -0.2014 -1.6560  0.3761
 1826TIP3    H126969   4.825   6.759   5.622  0.9889 -2.7033  1.2471
 1826TIP3    H226970   4.756   6.666   5.720 -2.3890 -1.4796  0.1048
 1827TIP3   OH226971   1.194   0.780  13.569 -0.5098  0.0487 -0.4962
 1827TIP3    H126972   1.255   0.721  13.613 -0.0401 -0.9831 -2.4794
 1827TIP3    H226973   1.195   0.859  13.623 -0.0065 -1.1848  1.3647
 1828TIP3   OH226974   1.554   6.331  15.539  0.2931  0.2879  0.5409
 1828TIP3    H126975   1.552   6.422  15.566  1.1320  0.6668 -0.6373
 1828TIP3    H226976   1.464   6.311  15.514  0.7261  1.8003 -2.4097
 1829TIP3   OH226977   6.287   3.754   3.914 -0.1177  0.1332  0.8562
 1829TIP3    H126978   6.211   3.695   3.915 -1.1941  1.5142  0.9669
 1829TIP3    H226979   6.250   3.840   3.895  1.3236  0.9732  1.8491
 1830TIP3   OH226980   2.210   3.359  14.983 -0.0402  0.5884  0.4049
 1830TIP3    H126981   2.267   3.290  14.950  0.7702  0.4952  1.9744
 1830TIP3    H226982   2.256   3.394  15.059 -1.5757  1.2282  1.0593
 1831TIP3   OH226983   2.924   2.350   2.744  0.1603 -0.0531  0.4011
 1831TIP3    H126984   2.994   2.397   2.698 -0.6132  0.2666 -0.4650
 1831TIP3    H226985   2.922   2.389   2.831  0.0876  0.9508 -0.0408
 1832TIP3   OH226986   1.591   3.015  14.501  0.1052 -0.0378  0.3131
 1832TIP3    H126987   1.544   2.934  14.476  0.8270 -0.0441 -1.0729
 1832TIP3    H226988   1.598   3.064  14.419  2.6475 -0.1009  0.4580
 1833TIP3   OH226989   5.724   4.604   4.414 -0.1250 -0.0930 -0.5444
 1833TIP3    H126990   5.789   4.635   4.477 -0.2520 -0.5629 -0.1759
 1833TIP3    H226991   5.640   4.623   4.455 -0.2145 -0.0744 -0.7344
 1834TIP3   OH226992   6.066   4.895   0.144 -0.3072  0.0160  0.0182
 1834TIP3    H126993   6.092   4.951   0.070 -2.8774 -0.3647 -1.2473
 1834TIP3    H226994   5.972   4.884   0.133  0.1062 -4.6772  0.1699
 1835TIP3   OH226995   6.193   1.545  13.071 -0.3539 -0.1827  0.5228
 1835TIP3    H126996   6.225   1.492  12.998 -0.8213 -1.0796  0.9628
 1835TIP3    H226997   6.220   1.498  13.150  0.9791  1.2715  0.9616
 1836TIP3   OH226998   3.657   5.898   3.299  0.3910 -0.0162  0.0716
 1836TIP3    H126999   3.631   5.913   3.208  0.3088 -0.7860 -0.0342
 1836TIP3    H227000   3.656   5.803   3.309  0.9582  0.0404  0.7152
 1837TIP3   OH227001   2.541   0.421   1.563 -0.2778  1.0126 -0.2305
 1837TIP3    H127002   2.592   0.457   1.490 -0.4289  0.6384 -0.5236
 1837TIP3    H227003   2.568   0.330   1.568 -0.7431  0.8717 -0.2353
 1838TIP3   OH227004   6.223   2.677   0.961 -0.1259 -0.2197  0.2467
 1838TIP3    H127005   6.219   2.608   1.027  1.0046 -0.4543  0.0871
 1838TIP3    H227006   6.143   2.668   0.911 -1.5597  0.6768  2.3030
 1839TIP3   OH227007   1.705   4.208   6.188  0.1957 -0.2755  0.3530
 1839TIP3    H127008   1.615   4.231   6.163  0.4828 -0.7244 -1.1197
 1839TIP3    H227009   1.723   4.263   6.265 -1.4775 -0.4897  0.9130
 1840TIP3   OH227010   0.630   0.485  11.509 -0.2179 -0.0416 -0.3082
 1840TIP3    H127011   0.717   0.502  11.544 -1.1019  1.0970  1.4069
 1840TIP3    H227012   0.575   0.552  11.549 -2.1999 -1.7723 -0.0635
 1841TIP3   OH227013   5.703   1.893  15.001 -0.6092  0.4464 -0.1460
 1841TIP3    H127014   5.665   1.814  15.041 -0.0692 -0.5379 -1.5185
 1841TIP3    H227015   5.652   1.965  15.037 -0.9852 -0.5142  1.2975
 1842TIP3   OH227016   0.365   6.365  14.285 -0.2169 -0.8278 -0.0192
 1842TIP3    H127017   0.295   6.303  14.263 -0.8799  0.1848 -0.8060
 1842TIP3    H227018   0.423   6.316  14.344  0.3079 -2.8440 -2.1225
 1843TIP3   OH227019   0.684   3.955  12.954 -0.3611 -0.1039 -0.3191
 1843TIP3    H127020   0.638   4.024  12.906 -0.2958 -1.4460 -2.3480
 1843TIP3    H227021   0.773   3.956  12.919  0.1299 -0.0698  0.8866
 1844TIP3   OH227022   3.620   4.581  11.430  0.1504 -0.1611 -0.3989
 1844TIP3    H127023   3.548   4.612  11.374  2.7681  2.5676 -2.4183
 1844TIP3    H227024   3.585   4.503  11.474 -3.7509  0.6618 -1.8830
 1845TIP3   OH227025   5.651   6.043  11.175  0.2296 -0.9438  0.1047
 1845TIP3    H127026   5.735   6.061  11.134 -1.0992  0.9151 -1.8895
 1845TIP3    H227027   5.614   5.970  11.125 -0.9835  0.7189 -1.4721
 1846TIP3   OH227028   3.150   4.107   1.668 -0.2693  0.4640  0.3646
 1846TIP3    H127029   3.076   4.069   1.620  0.1977 -0.1597  0.1245
 1846TIP3    H227030   3.119   4.115   1.758 -0.4025 -0.4404  0.4043
 1847TIP3   OH227031   0.524   2.598   1.691 -0.4749  0.1100 -0.3292
 1847TIP3    H127032   0.492   2.554   1.612  1.7688 -0.3329 -1.0157
 1847TIP3    H227033   0.610   2.631   1.667 -0.8038  2.1440  1.1807
 1848TIP3   OH227034   4.634   1.217  14.871 -0.1738  0.2650  0.9494
 1848TIP3    H127035   4.666   1.229  14.781 -1.1182 -0.3044  0.5305
 1848TIP3    H227036   4.660   1.127  14.893 -1.7397 -0.3098  0.4911
 1849TIP3   OH227037   2.087   4.317  14.826  0.2677  0.0983  0.4782
 1849TIP3    H127038   2.146   4.380  14.786 -0.5455  1.0780  0.8081
 1849TIP3    H227039   2.004   4.363  14.834 -0.4459 -1.1441  0.3618
 1850TIP3   OH227040   2.624   3.589   3.568 -0.4853 -0.3336  0.4021
 1850TIP3    H127041   2.650   3.640   3.644  0.2232  0.2160 -0.1916
 1850TIP3    H227042   2.636   3.649   3.494  0.8958 -1.5335 -0.3647
 1851TIP3   OH227043   5.128   4.551  11.881  0.2136  0.2726 -0.0887
 1851TIP3    H127044   5.059   4.616  11.895  0.0257  0.0740 -0.0958
 1851TIP3    H227045   5.082   4.469  11.864  0.4156 -0.4010  2.3729
 1852TIP3   OH227046   0.518   4.764   3.855  0.0957 -0.0151 -0.0143
 1852TIP3    H127047   0.609   4.740   3.833 -0.6542 -0.8073 -2.4825
 1852TIP3    H227048   0.517   4.859   3.851  1.4487  0.1561  2.7881
 1853TIP3   OH227049   5.837   1.601  11.067  0.2117 -0.3097 -0.4776
 1853TIP3    H127050   5.911   1.658  11.090  0.1893 -0.7888  0.8493
 1853TIP3    H227051   5.870   1.546  10.996  1.5450 -1.3124  0.8713
 1854TIP3   OH227052   2.002   4.019   3.838 -0.0400  0.3698 -0.1878
 1854TIP3    H127053   1.916   4.046   3.804 -0.2227  1.4534  1.0812
 1854TIP3    H227054   2.062   4.030   3.764 -0.5630  1.9574 -0.3962
 1855TIP3   OH227055   2.489   2.272   2.366  0.0710 -0.3607 -0.3755
 1855TIP3    H127056   2.533   2.357   2.372 -0.0460 -0.1892 -1.7494
 1855TIP3    H227057   2.483   2.255   2.272  2.7410 -3.2648 -0.1082
 1856TIP3   OH227058   3.646   2.238   5.836  0.4088  0.2286  0.1379
 1856TIP3    H127059   3.620   2.329   5.824  0.2371  0.1968  0.2771
 1856TIP3    H227060   3.628   2.197   5.751  0.7847  0.3963 -0.0256
 1857TIP3   OH227061   4.329   6.525   1.920  0.3795  0.3025  0.0447
 1857TIP3    H127062   4.423   6.536   1.929  0.1131  1.7323  1.3860
 1857TIP3    H227063   4.302   6.593   1.858  0.0863  0.7358  0.6292
 1858TIP3   OH227064   6.007   6.425  12.185 -0.1225 -0.1840 -0.5644
 1858TIP3    H127065   5.930   6.443  12.239  0.1325  1.6372 -0.7764
 1858TIP3    H227066   6.070   6.493  12.210  0.9100 -0.8362 -1.3671
 1859TIP3   OH227067   5.795   2.810   0.381  0.7407 -0.2618 -0.1397
 1859TIP3    H127068   5.701   2.829   0.379  0.5307 -1.1471  0.6387
 1859TIP3    H227069   5.836   2.895   0.388 -0.0717  0.0702  0.7623
 1860TIP3   OH227070   3.797   3.155  12.155  0.4009 -0.1347  0.1925
 1860TIP3    H127071   3.829   3.214  12.086 -0.8834  2.6577  1.8841
 1860TIP3    H227072   3.721   3.200  12.191 -2.0761 -3.9781  0.0431
 1861TIP3   OH227073   0.828   1.223   0.084  0.3607 -0.4378 -0.2166
 1861TIP3    H127074   0.887   1.152   0.108  1.6327  0.3584 -0.9660
 1861TIP3    H227075   0.780   1.190   0.008  1.3275 -0.3113 -0.8919
 1862TIP3   OH227076   3.980   4.096  12.483  0.0257  0.4227  0.1094
 1862TIP3    H127077   4.029   4.176  12.467  0.4847 -0.1756 -1.5867
 1862TIP3    H227078   4.035   4.045  12.543  0.2803  0.8520  0.2393
 1863TIP3   OH227079   4.122   4.600   3.642  0.2194 -0.3164 -0.5655
 1863TIP3    H127080   4.140   4.513   3.607  0.4595 -0.4146 -0.1914
 1863TIP3    H227081   4.150   4.660   3.572  1.1359 -0.5000 -0.3634
 1864TIP3   OH227082   3.095   5.753   3.814  0.3286  0.2058 -0.5011
 1864TIP3    H127083   3.002   5.731   3.817  0.2054  0.1703 -3.3449
 1864TIP3    H227084   3.140   5.671   3.832 -0.1726 -0.1141 -0.7007
 1865TIP3   OH227085   1.826   1.730   3.444  0.1538  0.6073 -0.1268
 1865TIP3    H127086   1.892   1.746   3.376  1.4084 -1.4197  0.5935
 1865TIP3    H227087   1.787   1.646   3.421  1.0911 -0.4503  2.0507
 1866TIP3   OH227088   4.462   3.165   0.804  0.7638 -0.0227 -0.6106
 1866TIP3    H127089   4.437   3.205   0.888 -0.1653 -1.4185 -0.2069
 1866TIP3    H227090   4.454   3.236   0.740  0.2369  0.7278  0.2869
 1867TIP3   OH227091   2.903   4.820  11.681  0.9159 -0.2356 -0.0877
 1867TIP3    H127092   2.885   4.892  11.740  1.1898 -0.8994  0.8177
 1867TIP3    H227093   2.889   4.741  11.734 -0.9314 -0.8940 -1.4803
 1868TIP3   OH227094   1.609   2.805   1.633 -0.0674 -0.3336 -0.1152
 1868TIP3    H127095   1.696   2.839   1.652 -0.1857  0.1487 -0.4094
 1868TIP3    H227096   1.554   2.883   1.624 -0.6561 -0.6527  0.6723
 1869TIP3   OH227097   2.722   4.375  13.193 -0.8667  0.7511  0.2498
 1869TIP3    H127098   2.785   4.432  13.149 -1.4397  0.2166 -1.2962
 1869TIP3    H227099   2.672   4.434  13.250 -0.0335  1.4356  0.2767
 1870TIP3   OH227100   4.159   0.391   5.362 -0.0308 -0.1898 -0.3165
 1870TIP3    H127101   4.115   0.460   5.411  0.4137 -0.8176  1.0032
 1870TIP3    H227102   4.248   0.390   5.398  0.8320  0.5210 -2.3704
 1871TIP3   OH227103   4.971   1.180  11.095 -0.2937  1.2844  0.3890
 1871TIP3    H127104   4.880   1.207  11.111  0.2624  1.6804  3.1419
 1871TIP3    H227105   4.968   1.084  11.095 -0.7549  1.2998  0.2521
 1872TIP3   OH227106   2.096   4.241  14.327  0.0818  0.7413 -0.4701
 1872TIP3    H127107   2.024   4.184  14.354  0.3569  1.1201  1.1096
 1872TIP3    H227108   2.149   4.187  14.270  0.3789 -0.6204  1.0646
 1873TIP3   OH227109   6.184   4.936  13.520 -0.5685 -0.2187  0.1030
 1873TIP3    H127110   6.186   4.896  13.607 -2.4859  0.3011  0.4129
 1873TIP3    H227111   6.217   5.025  13.534  0.1847 -0.4837  0.0740
 1874TIP3   OH227112   5.318   5.720   4.571 -0.6715 -0.3083 -0.4802
 1874TIP3    H127113   5.391   5.752   4.624 -0.8779 -0.7374  0.0658
 1874TIP3    H227114   5.343   5.741   4.481 -1.2170  2.2570 -0.0787
 1875TIP3   OH227115   3.084   5.630   4.141  0.1143 -0.5329 -0.1055
 1875TIP3    H127116   3.080   5.536   4.127 -0.6635 -0.2646 -1.8298
 1875TIP3    H227117   3.027   5.667   4.074 -0.3025  1.1250  1.1028
 1876TIP3   OH227118   0.081   3.531   3.529 -0.1619 -0.0644 -0.1829
 1876TIP3    H127119   0.042   3.449   3.562 -1.6799  0.3932 -0.8187
 1876TIP3    H227120   0.120   3.571   3.607 -0.0332 -1.0440  0.2689
 1877TIP3   OH227121   3.614   3.002  14.784  0.5608 -0.3356  0.5127
 1877TIP3    H127122   3.605   3.089  14.822  0.8542 -0.2846  0.4677
 1877TIP3    H227123   3.697   3.005  14.736  0.6294 -0.6724  0.6061
 1878TIP3   OH227124   6.002   4.225   6.230  0.6075 -0.1546 -0.0699
 1878TIP3    H127125   5.945   4.297   6.256 -0.7679 -1.5206  0.8112
 1878TIP3    H227126   6.088   4.249   6.264  0.2336  1.1973 -0.0460
 1879TIP3   OH227127   5.520   1.886   3.508  0.1525  0.1278 -0.3541
 1879TIP3    H127128   5.472   1.911   3.429 -0.7658  1.7330  0.6805
 1879TIP3    H227129   5.565   1.965   3.535  1.1132 -0.6278  0.2862
 1880TIP3   OH227130   0.557   4.619  13.830  0.1439 -0.5300  1.0046
 1880TIP3    H127131   0.646   4.629  13.866 -0.3710 -0.4199  2.2893
 1880TIP3    H227132   0.513   4.561  13.893 -1.4133  1.3149  1.6685
 1881TIP3   OH227133   4.022   5.480   1.959  0.9608 -0.6740  0.1566
 1881TIP3    H127134   4.064   5.434   1.887  2.2984 -0.6149  0.8861
 1881TIP3    H227135   3.993   5.411   2.018  0.5986 -0.6848 -0.0299
 1882TIP3   OH227136   4.494   6.021   4.842  0.1886 -0.6086 -0.2504
 1882TIP3    H127137   4.499   5.927   4.827 -0.7535 -0.9287  1.3256
 1882TIP3    H227138   4.447   6.030   4.926  0.9079  1.2271 -0.0124
 1883TIP3   OH227139   4.052   0.383  11.782 -0.4300  0.0590  0.0390
 1883TIP3    H127140   4.065   0.410  11.872 -0.7802  1.3326 -0.2815
 1883TIP3    H227141   4.043   0.465  11.733 -0.4362 -0.6168 -1.1184
 1884TIP3   OH227142   2.746   5.426  12.840  0.2453 -0.0470  0.0993
 1884TIP3    H127143   2.721   5.449  12.751 -3.4753 -0.0129  1.0612
 1884TIP3    H227144   2.822   5.369  12.830 -1.1881 -1.4746 -3.1743
 1885TIP3   OH227145   6.242   1.590   4.320  0.0410  0.6508  0.5940
 1885TIP3    H127146   6.195   1.612   4.401 -0.2513  1.5460  0.1820
 1885TIP3    H227147   6.193   1.515   4.285 -0.2875  0.7401  0.8527
 1886TIP3   OH227148   0.262   4.710   2.572  0.4421 -0.5855 -0.2501
 1886TIP3    H127149   0.341   4.680   2.527  1.1628 -0.2289  0.7427
 1886TIP3    H227150   0.240   4.638   2.631  1.1403  0.0597  0.8394
 1887TIP3   OH227151   1.412   2.243  13.450  0.4714 -0.1636 -0.0644
 1887TIP3    H127152   1.464   2.228  13.529 -0.1061  0.3482  0.4143
 1887TIP3    H227153   1.348   2.309  13.475 -1.8859 -2.4198  0.0250
 1888TIP3   OH227154   4.498   2.221  10.200 -0.4456  0.3972  0.4069
 1888TIP3    H127155   4.505   2.229  10.295  0.4311 -1.2327  0.4935
 1888TIP3    H227156   4.589   2.221  10.169 -0.5375 -2.9495 -0.0560
 1889TIP3   OH227157   3.144   6.372   3.227  0.0078 -0.1956  0.3548
 1889TIP3    H127158   3.103   6.377   3.141  0.0280 -0.4431  0.3322
 1889TIP3    H227159   3.208   6.302   3.220 -0.8424 -1.0336  0.9313
 1890TIP3   OH227160   5.956   5.057  12.498  0.2234 -0.4735  0.3475
 1890TIP3    H127161   5.900   5.095  12.566 -1.4330 -1.2213 -0.5953
 1890TIP3    H227162   5.908   5.070  12.417  1.9026 -0.1833 -0.6260
 1891TIP3   OH227163   1.335   4.719   2.827  0.8205  0.3431  0.3080
 1891TIP3    H127164   1.416   4.669   2.813  0.7900  0.7178 -1.3542
 1891TIP3    H227165   1.362   4.810   2.814  0.5117  0.6264  1.6064
 1892TIP3   OH227166   4.341   6.431   2.846  0.3730  0.4814 -0.5107
 1892TIP3    H127167   4.353   6.524   2.827 -2.1714  1.0847  0.6260
 1892TIP3    H227168   4.247   6.422   2.862  0.6447 -2.2273 -0.2804
 1893TIP3   OH227169   4.226   2.851  11.057 -0.7639  0.2578 -0.0181
 1893TIP3    H127170   4.304   2.811  11.096  0.6304  2.3865 -0.4966
 1893TIP3    H227171   4.182   2.894  11.131  0.7065  2.4381 -0.3565
 1894TIP3   OH227172   1.190   5.560   2.452  0.2240  0.0812 -0.0662
 1894TIP3    H127173   1.236   5.620   2.510 -0.0464 -1.1048  1.4000
 1894TIP3    H227174   1.105   5.601   2.437  0.6202  0.8165 -0.3508
 1895TIP3   OH227175   2.937   3.354  14.719  0.2278  0.3565 -0.1505
 1895TIP3    H127176   2.991   3.387  14.791  0.3547 -2.2839  1.0006
 1895TIP3    H227177   2.978   3.390  14.640  1.2108  1.7301  0.9613
 1896TIP3   OH227178   2.489   3.552  12.992  0.7043 -0.4401 -0.3072
 1896TIP3    H127179   2.517   3.507  12.912 -1.6035 -0.0131 -1.4131
 1896TIP3    H227180   2.451   3.482  13.046  1.7375 -0.6354  0.1677
 1897TIP3   OH227181   5.299   6.194  16.128 -0.0259  0.0248 -0.3335
 1897TIP3    H127182   5.237   6.140  16.079  0.2324 -2.3187  1.8050
 1897TIP3    H227183   5.244   6.248  16.185 -0.1619 -0.3826 -0.0803
 1898TIP3   OH227184   1.495   3.069   1.978  0.5088  0.0924 -0.4254
 1898TIP3    H127185   1.578   3.080   2.024  0.1400  1.4740 -0.0579
 1898TIP3    H227186   1.455   2.991   2.018  1.6260 -0.5714 -0.6058
 1899TIP3   OH227187   1.885   5.057   6.679 -0.1423  0.1044 -0.3570
 1899TIP3    H127188   1.972   5.097   6.682  0.0205 -0.3043  1.0456
 1899TIP3    H227189   1.900   4.969   6.646 -0.1647  0.3582 -1.0558
 1900TIP3   OH227190   1.349   0.279  15.814 -0.4671  0.0389  0.0764
 1900TIP3    H127191   1.427   0.318  15.854  0.8152  0.1933 -2.4496
 1900TIP3    H227192   1.281   0.345  15.825  0.6092  1.2700 -0.4842
 1901TIP3   OH227193   6.713   4.887   3.592 -0.2878  0.5591 -0.4282
 1901TIP3    H127194   6.746   4.929   3.512  2.7487  1.4033  1.1729
 1901TIP3    H227195   6.669   4.957   3.640 -0.5512  0.4719 -0.5421
 1902TIP3   OH227196   6.233   6.132   2.362 -0.6952 -0.1787  0.5702
 1902TIP3    H127197   6.234   6.097   2.273 -0.2693  0.5315  0.2952
 1902TIP3    H227198   6.325   6.136   2.387 -0.8168 -0.4352  1.0733
 1903TIP3   OH227199   4.829   5.683   5.282  0.4327 -0.4283  0.6409
 1903TIP3    H127200   4.753   5.685   5.224  0.2001 -0.6525  0.9356
 1903TIP3    H227201   4.899   5.646   5.228  0.2422 -0.5443  0.4704
 1904TIP3   OH227202   2.686   2.788  11.952  0.4683  0.5059  0.3760
 1904TIP3    H127203   2.644   2.782  11.866  1.0637  0.5296  0.0782
 1904TIP3    H227204   2.614   2.778  12.015 -0.0188  0.8091 -0.1258
 1905TIP3   OH227205   5.364   3.020  16.835  0.3945 -0.4054  0.3886
 1905TIP3    H127206   5.424   2.994  16.906  1.3365 -0.8478 -0.5659
 1905TIP3    H227207   5.369   3.116  16.834  0.4511 -0.4021  0.8635
 1906TIP3   OH227208   0.768   1.824  15.718  0.2160 -0.4060  0.4045
 1906TIP3    H127209   0.785   1.836  15.812  1.8893 -1.5944  0.2510
 1906TIP3    H227210   0.801   1.737  15.698  3.0679  1.1529 -2.0372
 1907TIP3   OH227211   1.824   3.916   0.482 -0.1327 -0.6710 -0.1812
 1907TIP3    H127212   1.804   3.998   0.528  0.6640  0.1010 -1.1814
 1907TIP3    H227213   1.818   3.939   0.389  2.7542 -1.0466 -0.5136
 1908TIP3   OH227214   0.145   3.366   3.301  0.4982  0.3352 -0.1384
 1908TIP3    H127215   0.172   3.301   3.367  0.5528 -0.2161 -0.6987
 1908TIP3    H227216   0.124   3.444   3.352 -1.2637 -0.6566  0.7329
 1909TIP3   OH227217   4.016   6.429  17.225  0.1649  0.0482  0.4012
 1909TIP3    H127218   4.094   6.484  17.226 -0.1767  0.5885 -0.7680
 1909TIP3    H227219   3.955   6.476  17.167  0.1678 -1.9827 -1.2700
 1910TIP3   OH227220   2.470   5.725  12.203  0.0037 -0.2074  0.4627
 1910TIP3    H127221   2.552   5.687  12.170  0.4084  0.6355  0.4852
 1910TIP3    H227222   2.434   5.773  12.128 -0.5663 -0.7195  0.3990
 1911TIP3   OH227223   3.852   0.417  12.262  0.1919  0.1001  0.4132
 1911TIP3    H127224   3.844   0.330  12.223  0.4452 -0.3474  1.3452
 1911TIP3    H227225   3.776   0.466  12.228 -0.7028 -0.8993  0.9579
 1912TIP3   OH227226   0.029   5.589   3.314 -0.0098 -0.7988 -0.2104
 1912TIP3    H127227   0.053   5.594   3.221  0.1414 -1.3812 -0.2043
 1912TIP3    H227228   0.026   5.495   3.333 -2.2760 -0.7642 -0.2013
 1913TIP3   OH227229   3.689   6.660   4.579  0.0514 -0.2558 -0.2901
 1913TIP3    H127230   3.595   6.640   4.586  0.5617 -2.5372  0.6827
 1913TIP3    H227231   3.732   6.584   4.618  2.3694  0.0932 -2.0590
 1914TIP3   OH227232   3.861   5.708  16.423  0.1900  0.5698 -0.4718
 1914TIP3    H127233   3.773   5.721  16.458  0.3058 -1.2982  0.5785
 1914TIP3    H227234   3.914   5.683  16.500  1.9018  2.8047 -0.8637
 1915TIP3   OH227235   6.163   3.178   6.342  0.1229 -0.3051  0.2592
 1915TIP3    H127236   6.145   3.088   6.370  0.8554 -0.4592  0.2558
 1915TIP3    H227237   6.237   3.206   6.397  0.1460  0.1603 -0.0029
 1916TIP3   OH227238   3.189   0.887  11.661 -0.2000 -0.7748  0.1469
 1916TIP3    H127239   3.241   0.809  11.641 -1.1226 -1.2076 -0.6087
 1916TIP3    H227240   3.193   0.939  11.581 -0.6949 -0.6816  0.1816
 1917TIP3   OH227241   0.841   2.330  11.713 -0.0740 -0.1774 -0.1438
 1917TIP3    H127242   0.852   2.271  11.788  3.4687  0.2418 -0.2561
 1917TIP3    H227243   0.875   2.280  11.639 -0.2225  0.7727 -0.8599
 1918TIP3   OH227244   3.355   3.882   1.069  0.7591  0.2127  0.3356
 1918TIP3    H127245   3.340   3.946   1.139  0.9780  0.7341 -0.0915
 1918TIP3    H227246   3.288   3.815   1.082 -0.2946  1.2005 -0.0077
 1919TIP3   OH227247   3.881   5.415   3.108 -1.3191 -0.2643  0.5358
 1919TIP3    H127248   3.853   5.353   3.175 -0.7971 -0.1659  0.8476
 1919TIP3    H227249   3.844   5.380   3.027 -1.0744 -0.9696  0.7145
 1920TIP3   OH227250   6.670   2.466   3.872  0.3701 -0.3859  0.0960
 1920TIP3    H127251   6.616   2.464   3.793  1.4601 -1.2089 -0.6387
 1920TIP3    H227252   6.679   2.559   3.894  3.2317  0.1247 -2.9482
 1921TIP3   OH227253   5.770   3.891   1.068  0.0370  0.0496  0.7830
 1921TIP3    H127254   5.766   3.796   1.058  0.7819  0.1458 -0.6381
 1921TIP3    H227255   5.862   3.909   1.088 -0.1144  0.4690  1.1219
 1922TIP3   OH227256   2.035   3.127  11.893  0.0868  0.1442  0.1318
 1922TIP3    H127257   1.980   3.057  11.929 -1.4223  0.8566 -0.7899
 1922TIP3    H227258   2.107   3.134  11.956  0.4322 -2.4276  0.1033
 1923TIP3   OH227259   3.941   3.278  11.597  0.0582 -0.1192 -0.0228
 1923TIP3    H127260   3.873   3.215  11.574 -0.6593  0.2228  1.1182
 1923TIP3    H227261   4.018   3.249  11.548 -0.4886 -1.3935 -0.1579
 1924TIP3   OH227262   3.039   3.635   4.832  0.2826  0.0330  0.0822
 1924TIP3    H127263   2.944   3.627   4.825  0.1897  0.9473  0.2505
 1924TIP3    H227264   3.052   3.714   4.885  1.1508  0.7523 -1.1847
 1925TIP3   OH227265   2.976   6.685   2.815 -0.3367  0.0949 -0.0533
 1925TIP3    H127266   2.958   6.687   2.721 -2.5327 -2.8550  0.2349
 1925TIP3    H227267   2.911   6.744   2.854 -0.4495  0.1006 -0.2510
 1926TIP3   OH227268   1.653   5.576  13.847  0.2707 -0.0074 -0.2560
 1926TIP3    H127269   1.656   5.655  13.793 -0.3408  0.5734  0.5384
 1926TIP3    H227270   1.560   5.554  13.852  0.1210  1.0618  2.1355
 1927TIP3   OH227271   4.498   2.868  15.543 -0.0176  0.4433 -0.0400
 1927TIP3    H127272   4.558   2.795  15.556  0.0677  0.4146 -0.5617
 1927TIP3    H227273   4.434   2.859  15.613 -0.6511 -0.7900 -0.7511
 1928TIP3   OH227274   4.568   0.319  13.862  0.5087 -0.2633  0.2042
 1928TIP3    H127275   4.562   0.233  13.821 -0.0088 -0.2574  0.2596
 1928TIP3    H227276   4.599   0.378  13.792 -0.2858 -0.2686 -0.1528
 1929TIP3   OH227277   0.694   4.394   4.527 -0.5011  0.3368 -0.0380
 1929TIP3    H127278   0.789   4.401   4.528 -0.3110 -1.2072 -2.3473
 1929TIP3    H227279   0.677   4.301   4.544 -1.5860  0.5812  0.2360
 1930TIP3   OH227280   5.404   5.328  16.972  0.1313  0.1052  0.0844
 1930TIP3    H127281   5.334   5.373  16.926 -0.6758 -0.3764  0.8173
 1930TIP3    H227282   5.470   5.310  16.905 -0.6225  0.2232 -0.6869
 1931TIP3   OH227283   1.161   6.710   5.699 -0.1203  0.7719  0.1179
 1931TIP3    H127284   1.105   6.634   5.685 -0.4117  1.6015 -3.7248
 1931TIP3    H227285   1.101   6.781   5.723 -0.2607  0.6418  0.1530
 1932TIP3   OH227286   6.233   5.703  13.384  0.2967  0.5473  0.7351
 1932TIP3    H127287   6.239   5.798  13.378  0.2000  0.4866 -0.4709
 1932TIP3    H227288   6.320   5.672  13.360 -0.0734  0.2895 -0.3102
 1933TIP3   OH227289   1.180   2.660   3.747 -0.2666 -0.1606  0.1252
 1933TIP3    H127290   1.190   2.743   3.700 -0.1212 -0.5236 -0.4883
 1933TIP3    H227291   1.266   2.643   3.784 -0.7217  0.8004  1.6580
 1934TIP3   OH227292   0.442   0.042   1.858 -0.6767 -0.0769 -0.3180
 1934TIP3    H127293   0.371   0.066   1.919  0.1281  2.2183 -0.2181
 1934TIP3    H227294   0.402   0.050   1.771 -0.7261  0.6496 -0.2373
 1935TIP3   OH227295   5.949   5.431  15.435  0.2828  0.0639 -0.4057
 1935TIP3    H127296   6.039   5.399  15.445  0.3526  0.3839  0.0182
 1935TIP3    H227297   5.899   5.355  15.408  0.8456  0.0784 -1.5230
 1936TIP3   OH227298   3.216   0.896   1.209  0.0184  0.1635 -0.4094
 1936TIP3    H127299   3.226   0.940   1.125  1.6375  0.1878 -0.2061
 1936TIP3    H227300   3.264   0.951   1.271 -1.3689  0.2772  0.5845
 1937TIP3   OH227301   2.962   3.324   4.942 -0.4605  0.0989  0.5844
 1937TIP3    H127302   2.898   3.387   4.973  0.7933  1.3460  0.7150
 1937TIP3    H227303   3.002   3.290   5.022 -1.7223 -1.5281  0.5541
 1938TIP3   OH227304   5.864   5.529  15.005 -0.1956  0.3982  0.6879
 1938TIP3    H127305   5.868   5.579  15.087  1.0366 -0.7046  1.3238
 1938TIP3    H227306   5.771   5.508  14.994 -0.2975  0.0620  2.1228
 1939TIP3   OH227307   6.238   4.455   3.598  0.0692 -0.2608  0.1287
 1939TIP3    H127308   6.299   4.505   3.653  0.1844 -1.4617  1.1148
 1939TIP3    H227309   6.256   4.364   3.620  0.5294 -0.8005 -2.3571
 1940TIP3   OH227310   2.897   3.702  13.535  0.1801  0.3186  0.5189
 1940TIP3    H127311   2.936   3.727  13.619  0.9302 -0.0250  0.2797
 1940TIP3    H227312   2.966   3.718  13.471 -0.1497 -0.0922  0.0575
 1941TIP3   OH227313   0.999   2.521   6.687  0.6549 -0.6511 -0.3294
 1941TIP3    H127314   1.056   2.450   6.656  0.1658 -1.5568  0.7919
 1941TIP3    H227315   0.911   2.491   6.667  0.5309  0.4598 -1.4743
 1942TIP3   OH227316   6.758   2.783   3.649 -0.2126  0.3089  0.2460
 1942TIP3    H127317   6.824   2.834   3.695  0.9411 -0.1110 -0.9220
 1942TIP3    H227318   6.807   2.734   3.584 -1.6984  0.1004 -0.7275
 1943TIP3   OH227319   5.702   6.459   5.334 -0.4601 -0.6250 -0.3913
 1943TIP3    H127320   5.680   6.404   5.409 -1.2578  0.9233  0.5502
 1943TIP3    H227321   5.676   6.408   5.258  0.2084 -2.1605  0.3850
 1944TIP3   OH227322   4.796   0.440   3.650  0.0272 -0.6203  0.2574
 1944TIP3    H127323   4.726   0.421   3.586 -1.6541  0.3979  1.7604
 1944TIP3    H227324   4.800   0.361   3.704  0.7815 -1.0895 -0.4583
 1945TIP3   OH227325   0.502   5.263   5.012  0.5780  0.1415  0.2291
 1945TIP3    H127326   0.432   5.328   5.015  0.0556 -0.3610 -0.7562
 1945TIP3    H227327   0.468   5.188   5.061  0.7481  0.2057  0.4443
 1946TIP3   OH227328   4.034   1.398  13.463 -0.4733 -0.3330 -0.0260
 1946TIP3    H127329   4.045   1.405  13.558 -0.4575 -1.0634  0.0282
 1946TIP3    H227330   4.107   1.449  13.427 -0.5178  0.0018  0.3500
 1947TIP3   OH227331   2.306   3.304   6.087  0.3976 -0.0501  0.4731
 1947TIP3    H127332   2.368   3.311   6.160  0.5317  0.2679  0.3290
 1947TIP3    H227333   2.236   3.365   6.111  0.9682  0.8861 -0.1878
 1948TIP3   OH227334   6.366   3.276  14.382 -0.1396 -0.2758 -0.0411
 1948TIP3    H127335   6.450   3.254  14.422  1.1925  0.0832 -2.5335
 1948TIP3    H227336   6.316   3.318  14.451  1.8518 -0.2384  1.4057
 1949TIP3   OH227337   3.145   6.584   0.982  0.1499 -0.5128  0.8370
 1949TIP3    H127338   3.219   6.531   0.954 -0.4909  0.2770 -2.5618
 1949TIP3    H227339   3.183   6.669   1.003 -0.0144  0.7020 -3.3956
 1950TIP3   OH227340   5.849   2.094  12.049 -0.6528 -0.1530 -0.4576
 1950TIP3    H127341   5.923   2.034  12.060 -0.3039 -0.2987 -3.2772
 1950TIP3    H227342   5.884   2.180  12.073  0.0862 -0.4114 -0.6007
 1951TIP3   OH227343   1.114   3.574  16.406 -0.2950 -0.0764  0.4721
 1951TIP3    H127344   1.144   3.594  16.494 -0.8098  0.7944  0.4537
 1951TIP3    H227345   1.141   3.649  16.353  0.0842 -0.6284 -0.1265
 1952TIP3   OH227346   1.733   2.596  17.168  0.5627 -0.2290 -0.0283
 1952TIP3    H127347   1.684   2.634  17.095 -0.0316  0.1576  0.5778
 1952TIP3    H227348   1.821   2.581  17.132  0.7412  1.4949 -0.3466
 1953TIP3   OH227349   3.246   4.080  15.374  0.6450 -0.0271  0.0731
 1953TIP3    H127350   3.257   4.173  15.398 -2.4007  0.8745 -1.7019
 1953TIP3    H227351   3.211   4.039  15.453  0.7507  0.6254  0.4634
 1954TIP3   OH227352   4.592   6.261   4.928  0.1173 -0.4176  0.5693
 1954TIP3    H127353   4.508   6.307   4.921  0.6265  0.4816  0.1642
 1954TIP3    H227354   4.573   6.171   4.903 -0.5948 -0.0613 -0.1919
 1955TIP3   OH227355   6.257   6.548  13.967 -0.0754  0.2907 -0.1185
 1955TIP3    H127356   6.341   6.539  13.923  0.9654 -3.4867  2.4018
 1955TIP3    H227357   6.196   6.500  13.911 -0.0676  0.8702 -0.6362
 1956TIP3   OH227358   1.484   3.016  11.411  0.3046 -0.4542 -0.1828
 1956TIP3    H127359   1.480   3.110  11.427  0.4790 -0.3052 -0.9816
 1956TIP3    H227360   1.436   3.004  11.329 -0.5056 -1.1857  0.3898
 1957TIP3   OH227361   1.040   0.738   2.288 -0.1923 -0.0615 -0.0730
 1957TIP3    H127362   1.033   0.646   2.316  0.0572 -0.2772 -0.7159
 1957TIP3    H227363   1.134   0.752   2.275 -0.1958  0.3980  0.3959
 1958TIP3   OH227364   4.022   5.168  17.281 -0.3944  0.2341 -0.6403
 1958TIP3    H127365   4.047   5.215  17.201 -0.6095 -0.8371 -1.3529
 1958TIP3    H227366   4.016   5.076  17.254  0.4902 -0.2707  0.8391
 1959TIP3   OH227367   0.481   5.639  12.648  0.0638 -0.3378 -0.3000
 1959TIP3    H127368   0.463   5.719  12.698  2.3777 -0.1519  0.2708
 1959TIP3    H227369   0.412   5.578  12.676 -0.1846  0.6098  1.2282
 1960TIP3   OH227370   1.569   2.809   4.769 -0.6262  0.3066  0.2713
 1960TIP3    H127371   1.652   2.792   4.725 -0.4118  0.3574  0.6482
 1960TIP3    H227372   1.534   2.887   4.726  0.2266  1.1561  1.0782
 1961TIP3   OH227373   6.108   5.915  16.822 -0.0887 -0.4950  0.1287
 1961TIP3    H127374   6.091   5.851  16.753 -0.1539  0.6100 -0.8896
 1961TIP3    H227375   6.201   5.904  16.842  0.0997 -0.3097 -0.6471
 1962TIP3   OH227376   0.188   2.824   6.177 -0.5669  0.0072 -0.0767
 1962TIP3    H127377   0.201   2.913   6.211  0.7900 -0.7113  1.3579
 1962TIP3    H227378   0.123   2.785   6.235 -1.1389  0.0418 -0.6894
 1963TIP3   OH227379   2.809   5.433   4.431  0.1067 -0.2489 -0.1059
 1963TIP3    H127380   2.874   5.365   4.412  1.6758  1.1249  0.3005
 1963TIP3    H227381   2.823   5.455   4.523 -1.8976 -0.9318  0.3952
 1964TIP3   OH227382   2.834   1.843  12.527  0.4532  0.4280  0.1805
 1964TIP3    H127383   2.798   1.761  12.491 -1.4537  0.3634  2.1723
 1964TIP3    H227384   2.831   1.904  12.454 -1.6143 -0.2286 -0.3040
 1965TIP3   OH227385   5.168   3.436   6.097 -0.3462  0.0719  0.4227
 1965TIP3    H127386   5.092   3.449   6.153 -0.2984  2.5850 -0.0227
 1965TIP3    H227387   5.131   3.408   6.013 -0.7552  0.6563  0.4022
 1966TIP3   OH227388   4.100   0.946   5.483 -0.3397  0.1234  0.1436
 1966TIP3    H127389   4.103   0.992   5.399  0.3376  0.2345  0.2264
 1966TIP3    H227390   4.132   0.858   5.464 -1.1661 -0.1692  0.0844
 1967TIP3   OH227391   6.218   5.327   3.254  0.1959  0.1078  0.4205
 1967TIP3    H127392   6.148   5.271   3.221 -0.9079  1.2759  0.7086
 1967TIP3    H227393   6.223   5.307   3.347  0.5329 -0.2852  0.3164
 1968TIP3   OH227394   5.867   1.118   3.146  0.3260  0.4288 -0.4030
 1968TIP3    H127395   5.940   1.142   3.203 -1.1660  2.1864  0.8097
 1968TIP3    H227396   5.840   1.201   3.107  0.3032 -0.5285 -2.4707
 1969TIP3   OH227397   6.350   3.146   2.284  0.2627 -0.3853  0.0085
 1969TIP3    H127398   6.335   3.083   2.355  1.4222  0.7123  1.2681
 1969TIP3    H227399   6.287   3.216   2.302  1.1143  0.2772  0.4437
 1970TIP3   OH227400   6.751   1.736   5.489  0.1809 -0.2601  0.3360
 1970TIP3    H127401   6.787   1.825   5.494  0.3120 -0.2560 -0.5747
 1970TIP3    H227402   6.762   1.700   5.577  2.6350 -0.3570  0.0161
 1971TIP3   OH227403   5.776   5.308   5.218  0.2121 -0.1404  0.3033
 1971TIP3    H127404   5.872   5.311   5.215  0.2899 -1.3559  1.2162
 1971TIP3    H227405   5.754   5.219   5.193 -0.7514  0.4254 -0.9373
 1972TIP3   OH227406   3.005   6.623  12.983 -0.2503  0.2144 -0.5395
 1972TIP3    H127407   3.014   6.697  13.043  0.1529 -0.0677 -0.2534
 1972TIP3    H227408   3.095   6.602  12.958 -0.4597  0.9746 -2.0267
 1973TIP3   OH227409   6.246   3.393  14.603 -0.0818 -0.3579  0.2053
 1973TIP3    H127410   6.255   3.477  14.649  0.9813 -0.4461  0.1634
 1973TIP3    H227411   6.194   3.339  14.662  0.2779 -0.0773  0.7911
 1974TIP3   OH227412   1.100   3.437  13.017 -0.4873 -0.0247 -0.5529
 1974TIP3    H127413   1.119   3.367  13.080 -0.5711  0.3164 -0.1383
 1974TIP3    H227414   1.167   3.428  12.950  0.8290  0.8286  0.6130
 1975TIP3   OH227415   4.943   1.371  16.520  0.6452 -0.2495 -0.0886
 1975TIP3    H127416   4.937   1.308  16.448  0.3854 -1.7092  1.1692
 1975TIP3    H227417   5.032   1.362  16.552  0.6519  0.1326 -0.0102
 1976TIP3   OH227418   0.197   6.498   4.770 -0.3984 -0.3953 -0.4890
 1976TIP3    H127419   0.220   6.462   4.684  0.7721 -1.0859  0.1038
 1976TIP3    H227420   0.270   6.474   4.826  0.0977  2.3493  0.0883
 1977TIP3   OH227421   5.100   3.080  11.210 -0.0177 -0.3315 -0.7577
 1977TIP3    H127422   5.184   3.037  11.197 -0.3763 -1.0712 -0.6508
 1977TIP3    H227423   5.066   3.045  11.292  0.2662  1.1205 -0.0061
 1978TIP3   OH227424   4.365   3.209   5.546  0.2232  0.5049  0.1760
 1978TIP3    H127425   4.406   3.221   5.631 -3.2920 -0.0914  2.0390
 1978TIP3    H227426   4.382   3.291   5.500  0.9026  1.4192  2.0122
 1979TIP3   OH227427   0.609   2.144   5.494  0.3169  0.1441  0.0552
 1979TIP3    H127428   0.646   2.201   5.561 -1.0750  0.1193  0.8367
 1979TIP3    H227429   0.605   2.199   5.416 -0.5538  0.9663  0.6771
 1980TIP3   OH227430   0.130   4.510  11.288  0.4730 -0.1752 -0.2069
 1980TIP3    H127431   0.100   4.433  11.338 -1.8962  1.0165  0.2650
 1980TIP3    H227432   0.118   4.485  11.197 -1.1286 -0.0635 -0.0411
 1981TIP3   OH227433   5.261   0.548   3.925 -0.0041  0.3575  0.0249
 1981TIP3    H127434   5.345   0.592   3.941  0.8797 -0.6269 -1.7454
 1981TIP3    H227435   5.227   0.590   3.846 -0.3337 -0.4561 -0.2638
 1982TIP3   OH227436   5.386   3.033  12.564  0.0908  0.2857  1.2187
 1982TIP3    H127437   5.407   3.006  12.475  0.6626  0.9042  1.1661
 1982TIP3    H227438   5.290   3.035  12.566  0.0941  1.9369  0.1240
 1983TIP3   OH227439   4.439   0.680  14.981 -0.5042  0.8935 -0.0193
 1983TIP3    H127440   4.520   0.630  14.969 -0.0700  1.0311  2.1488
 1983TIP3    H227441   4.461   0.747  15.045 -2.0628  1.6038 -0.2006
 1984TIP3   OH227442   5.766   6.406   3.482 -0.2625 -0.1073 -0.7783
 1984TIP3    H127443   5.729   6.407   3.393 -1.4075 -0.3755 -0.3146
 1984TIP3    H227444   5.740   6.490   3.520  0.9798  0.3843 -0.9880
 1985TIP3   OH227445   1.836   3.126   1.438  0.5000 -0.2552 -0.1392
 1985TIP3    H127446   1.748   3.119   1.474  0.2665  0.4487 -0.5654
 1985TIP3    H227447   1.837   3.210   1.391  0.6420 -1.3686 -2.1868
 1986TIP3   OH227448   5.691   4.285  13.601  0.6259 -0.0505 -0.6819
 1986TIP3    H127449   5.617   4.271  13.542 -1.3464  2.9216  0.9915
 1986TIP3    H227450   5.715   4.377  13.589  1.6286  0.0067  1.4869
 1987TIP3   OH227451   6.139   3.949   3.808  0.1539 -0.2605 -0.0497
 1987TIP3    H127452   6.170   3.988   3.726  1.6252  2.0567  1.5126
 1987TIP3    H227453   6.044   3.950   3.801  0.2362  0.9189 -1.2975
 1988TIP3   OH227454   4.767   0.998  13.637  0.1150 -0.5671  0.0458
 1988TIP3    H127455   4.761   1.065  13.569 -1.8489 -0.7070  0.0337
 1988TIP3    H227456   4.823   1.037  13.704  1.3331 -0.0793 -1.2465
 1989TIP3   OH227457   0.191   1.047   6.197  0.1701 -0.0964  0.0923
 1989TIP3    H127458   0.209   1.092   6.279  2.7666 -1.6002  0.4006
 1989TIP3    H227459   0.171   0.957   6.223 -1.5102  0.0179 -0.7607
 1990TIP3   OH227460   0.800   3.832  16.755  0.5691  0.7570  0.0265
 1990TIP3    H127461   0.842   3.749  16.731  1.3660  0.9843  0.6056
 1990TIP3    H227462   0.792   3.880  16.673 -1.3984 -0.5609 -0.5744
 1991TIP3   OH227463   4.925   4.290  14.218  0.2263  0.0405  0.0495
 1991TIP3    H127464   4.907   4.337  14.137 -1.7232 -1.8271 -0.6665
 1991TIP3    H227465   4.864   4.327  14.282 -1.0409 -1.1920 -0.4150
 1992TIP3   OH227466   0.126   1.966  13.043  0.1095  0.1402 -0.0326
 1992TIP3    H127467   0.185   2.041  13.036 -0.1769  0.2630 -1.2757
 1992TIP3    H227468   0.049   2.000  13.087  0.5995  0.1939  0.8039
 1993TIP3   OH227469   0.217   5.869   1.340 -1.0281  0.6327  0.1511
 1993TIP3    H127470   0.259   5.816   1.272 -0.4871 -0.4761  1.3114
 1993TIP3    H227471   0.238   5.959   1.316  0.1233  0.2054 -0.5355
 1994TIP3   OH227472   0.046   6.804  15.358 -0.6525  0.1411 -0.3462
 1994TIP3    H127473   0.020   6.738  15.422  0.1882 -1.0611 -1.2036
 1994TIP3    H227474   0.112   6.857  15.402 -0.7449 -0.1063  0.0878
 1995TIP3   OH227475   3.687   6.472  13.947 -0.7051 -0.8008 -0.4679
 1995TIP3    H127476   3.623   6.476  14.018  0.5920 -0.2911  0.7014
 1995TIP3    H227477   3.641   6.508  13.872 -1.4199  0.6724  0.6439
 1996TIP3   OH227478   0.490   1.426   5.777 -0.2577  0.1470  0.1654
 1996TIP3    H127479   0.471   1.388   5.691  0.8819  1.7834 -0.8276
 1996TIP3    H227480   0.518   1.351   5.830 -3.3426 -1.2857 -0.1145
 1997TIP3   OH227481   1.933   3.770  14.790 -0.4626 -0.3704  0.2011
 1997TIP3    H127482   1.918   3.860  14.818 -1.9030 -0.2035 -1.0829
 1997TIP3    H227483   1.904   3.716  14.864  0.7253  0.2170  1.1043
 1998TIP3   OH227484   6.309   5.289  17.147 -0.3301  0.7543  0.6420
 1998TIP3    H127485   6.278   5.356  17.086 -1.2392  0.2672  0.5636
 1998TIP3    H227486   6.288   5.324  17.233 -1.6641  0.1583  0.5684
 1999TIP3   OH227487   6.294   6.391   2.107  0.0298  0.0961  0.2009
 1999TIP3    H127488   6.272   6.422   2.195  2.3899  0.5026  0.6884
 1999TIP3    H227489   6.299   6.296   2.115  0.0371  0.1190  0.4624
 2000TIP3   OH227490   4.822   2.846   1.899  0.2969  0.3562  0.1911
 2000TIP3    H127491   4.853   2.779   1.838  2.0577  0.5677  0.8277
 2000TIP3    H227492   4.773   2.798   1.965  1.2603 -0.2794  0.4536
 2001TIP3   OH227493   6.464   4.431  12.881 -0.3556 -0.0884 -0.1229
 2001TIP3    H127494   6.496   4.520  12.865 -0.9993  0.3837  1.1939
 2001TIP3    H227495   6.490   4.412  12.971 -0.4697 -1.1308 -0.3069
 2002TIP3   OH227496   0.199   5.919   6.026  0.8074  0.1489 -0.2490
 2002TIP3    H127497   0.226   5.873   6.106  0.9003 -1.0885 -0.9757
 2002TIP3    H227498   0.161   5.850   5.971 -2.1460  1.5068 -0.0074
 2003TIP3   OH227499   1.838   1.243  12.259  0.5462 -0.3483 -0.5579
 2003TIP3    H127500   1.806   1.257  12.170  0.2434 -3.3865 -0.9729
 2003TIP3    H227501   1.817   1.325  12.305 -0.6147  0.7009 -2.8696
 2004TIP3   OH227502   4.536   1.629   0.811  0.6015 -0.2319  0.1535
 2004TIP3    H127503   4.515   1.722   0.809  1.9588  0.0814 -0.1487
 2004TIP3    H227504   4.569   1.609   0.723  0.4673 -0.9622  0.2610
 2005TIP3   OH227505   1.531   3.190  16.346 -0.5037  0.1472 -0.4429
 2005TIP3    H127506   1.601   3.151  16.295 -0.8835  0.7677 -1.4462
 2005TIP3    H227507   1.471   3.228  16.281 -0.8967  1.0917  0.4473
 2006TIP3   OH227508   3.046   1.356   3.409  0.5781  0.1153 -0.1351
 2006TIP3    H127509   3.086   1.285   3.359  1.6939  0.1602  0.6753
 2006TIP3    H227510   2.959   1.323   3.431  0.8867 -0.7920 -0.2289
 2007TIP3   OH227511   6.531   3.420   3.635  0.0007 -0.1237  0.5831
 2007TIP3    H127512   6.457   3.390   3.583  0.3003  0.3889 -0.1445
 2007TIP3    H227513   6.517   3.514   3.646  0.2733 -0.1167  0.8896
 2008TIP3   OH227514   3.405   2.185  16.114  0.4556  0.3410 -0.2182
 2008TIP3    H127515   3.316   2.218  16.108  0.6201  1.2698  1.8072
 2008TIP3    H227516   3.396   2.098  16.153  0.4399  0.5626  0.2808
 2009TIP3   OH227517   1.685   6.788  13.694 -0.4268  0.0902 -0.4413
 2009TIP3    H127518   1.611   6.734  13.667 -0.0727 -0.8651  0.4951
 2009TIP3    H227519   1.648   6.846  13.762 -0.9792  1.5430 -1.9433
 2010TIP3   OH227520   5.975   6.129   3.736  0.0793  0.1954  0.3381
 2010TIP3    H127521   5.979   6.174   3.651 -0.9359 -3.1049 -1.5100
 2010TIP3    H227522   5.887   6.147   3.769 -0.6027 -1.0295 -0.7675
 2011TIP3   OH227523   4.766   4.572  16.057 -0.2948  0.0794  0.3754
 2011TIP3    H127524   4.833   4.624  16.101 -1.9330  2.6790 -0.0425
 2011TIP3    H227525   4.690   4.576  16.115 -1.6817  1.4956 -1.4495
 2012TIP3   OH227526   3.180   2.144   2.739 -0.4400 -0.5331  0.1192
 2012TIP3    H127527   3.242   2.216   2.726  0.2695 -1.3580 -1.3376
 2012TIP3    H227528   3.125   2.146   2.661 -0.8130 -1.1839  0.3649
 2013TIP3   OH227529   3.824   5.806  15.074  0.0512 -0.3523 -0.6761
 2013TIP3    H127530   3.773   5.866  15.128 -1.8667 -1.2183 -1.4407
 2013TIP3    H227531   3.776   5.723  15.079 -0.1137 -0.4791 -3.5737
 2014TIP3   OH227532   4.419   0.462   4.143 -0.0916 -0.4269 -0.4719
 2014TIP3    H127533   4.409   0.430   4.053  1.3114 -0.1561 -0.7355
 2014TIP3    H227534   4.449   0.553   4.132  0.1534 -0.4192  0.2657
 2015TIP3   OH227535   5.957   0.943   2.951 -1.0088  0.2811  0.7063
 2015TIP3    H127536   5.929   0.993   3.027 -0.8739 -0.6462  1.3703
 2015TIP3    H227537   5.961   0.852   2.981 -0.1700  0.0083 -0.1727
 2016TIP3   OH227538   2.608   6.564  12.107 -0.1839  0.2702 -0.5519
 2016TIP3    H127539   2.572   6.493  12.161 -0.4615  1.6304  1.0780
 2016TIP3    H227540   2.531   6.602  12.064 -0.2859  0.8849  0.1633
 2017TIP3   OH227541   4.248   0.825  11.296  0.2896 -0.0326 -0.5376
 2017TIP3    H127542   4.209   0.758  11.352  1.3204 -0.4887 -0.3454
 2017TIP3    H227543   4.271   0.896  11.355  0.1898  0.0279 -0.5731
 2018TIP3   OH227544   2.520   5.266  12.894  0.3272 -0.2455  0.0807
 2018TIP3    H127545   2.569   5.185  12.911  0.1212  0.3164  3.8187
 2018TIP3    H227546   2.586   5.328  12.862  1.5483 -0.3777  2.2440
 2019TIP3   OH227547   5.838   5.635  15.276  0.4629  0.2200 -0.1816
 2019TIP3    H127548   5.787   5.661  15.352  1.2058  1.3241 -0.0612
 2019TIP3    H227549   5.903   5.573  15.310 -1.6003 -2.2531 -0.5446
 2020TIP3   OH227550   3.866   0.457  17.138 -0.1737 -1.1934 -0.0428
 2020TIP3    H127551   3.928   0.389  17.166  0.6110 -1.2758 -1.8840
 2020TIP3    H227552   3.797   0.409  17.092  0.7347 -0.6927 -1.9535
 2021TIP3   OH227553   6.266   3.027   4.551 -0.0867 -0.2432  0.5805
 2021TIP3    H127554   6.341   3.001   4.497  0.3437  0.1673  0.9810
 2021TIP3    H227555   6.265   2.963   4.623 -0.3331 -0.4621  0.3814
 2022TIP3   OH227556   2.483   0.716   1.211 -0.1349 -0.2479  0.2096
 2022TIP3    H127557   2.435   0.755   1.284 -1.6811  2.2068 -2.0191
 2022TIP3    H227558   2.551   0.780   1.190 -0.2341 -0.5403 -1.0273
 2023TIP3   OH227559   4.343   0.203  11.408  0.2158 -0.2934  0.2634
 2023TIP3    H127560   4.348   0.216  11.313 -0.8091  0.5617  0.3225
 2023TIP3    H227561   4.361   0.290  11.445  0.2187 -0.5395  0.8483
 2024TIP3   OH227562   0.005   4.217   0.484  0.5440  0.0630  0.5149
 2024TIP3    H127563  -0.028   4.255   0.402 -3.1225 -2.1115  0.8460
 2024TIP3    H227564   0.061   4.145   0.457  0.2892  0.0909 -0.0922
 2025TIP3   OH227565   2.389   1.764   3.811 -0.4113 -0.1045  0.1401
 2025TIP3    H127566   2.423   1.683   3.850  2.0350  0.4082 -0.8219
 2025TIP3    H227567   2.314   1.736   3.758  0.2791 -1.7001 -0.0065
 2026TIP3   OH227568   5.161   5.147   3.063  0.2254  1.0290 -0.3702
 2026TIP3    H127569   5.123   5.061   3.045  0.1988  0.7607  0.9027
 2026TIP3    H227570   5.219   5.132   3.138  3.5132  1.2336 -2.7576
 2027TIP3   OH227571   4.234   6.216  13.480  0.0198  0.6357  0.0431
 2027TIP3    H127572   4.318   6.249  13.510  0.7663 -1.1342 -0.0630
 2027TIP3    H227573   4.171   6.250  13.543  0.9377  1.1783  0.6776
 2028TIP3   OH227574   0.386   3.241  10.883  0.2061  0.5239 -0.5181
 2028TIP3    H127575   0.468   3.259  10.838 -0.0366 -0.6255 -1.4396
 2028TIP3    H227576   0.334   3.191  10.820 -0.8684  0.5167  0.3586
 2029TIP3   OH227577   6.154   6.293  13.231  0.4971 -0.2928  0.2237
 2029TIP3    H127578   6.103   6.217  13.258  1.2532 -0.7957  0.2457
 2029TIP3    H227579   6.099   6.368  13.254  0.9609 -0.7116  2.8543
 2030TIP3   OH227580   1.236   3.539  13.287  0.1596  0.0440 -0.0283
 2030TIP3    H127581   1.176   3.612  13.297 -2.6247 -2.1558 -0.1331
 2030TIP3    H227582   1.280   3.555  13.203 -1.5758  0.7590 -0.8082
 2031TIP3   OH227583   0.264   0.221   2.777 -0.1203  0.2967  0.1695
 2031TIP3    H127584   0.207   0.276   2.830  1.3405  2.5017 -0.4904
 2031TIP3    H227585   0.291   0.277   2.705  1.2837 -1.3558 -0.6208
 2032TIP3   OH227586   2.265   1.428   0.377 -0.0091 -0.0305 -0.2076
 2032TIP3    H127587   2.201   1.497   0.393  1.4226  1.1896  0.4958
 2032TIP3    H227588   2.215   1.347   0.381 -2.3567  1.0919 -4.3274
 2033TIP3   OH227589   6.220   4.553   2.745  0.2173 -0.1662  0.2982
 2033TIP3    H127590   6.214   4.465   2.707  0.2017 -0.0027 -0.0764
 2033TIP3    H227591   6.225   4.611   2.670  1.4399  0.0700  0.5593
 2034TIP3   OH227592   5.907   0.242  16.672  0.2784 -0.0153 -0.5616
 2034TIP3    H127593   5.816   0.224  16.650 -0.3909  0.8400  1.3518
 2034TIP3    H227594   5.956   0.223  16.592 -1.6536  0.0960 -1.7965
 2035TIP3   OH227595   4.143   0.788   5.834 -0.5062 -0.6545 -0.2730
 2035TIP3    H127596   4.151   0.867   5.888 -1.6701 -0.6068 -0.1470
 2035TIP3    H227597   4.096   0.726   5.890 -0.1479 -1.2171 -0.5981
 2036TIP3   OH227598   3.250   6.796   3.511 -0.0889  0.1177  0.2306
 2036TIP3    H127599   3.222   6.747   3.589  1.0364 -1.6954 -0.4729
 2036TIP3    H227600   3.344   6.806   3.522  0.0438  0.0447 -0.7963
 2037TIP3   OH227601   0.916   1.563   2.922  0.0311 -0.3573  0.7785
 2037TIP3    H127602   0.926   1.658   2.930  0.0011 -0.0773 -2.0669
 2037TIP3    H227603   0.843   1.552   2.861 -0.6562 -2.2412  1.9062
 2038TIP3   OH227604   2.845   1.898  13.317 -0.0487 -0.1576  0.7293
 2038TIP3    H127605   2.882   1.900  13.405 -1.7094  2.2057  1.4437
 2038TIP3    H227606   2.763   1.850  13.326  0.4453 -1.1066  0.1844
 2039TIP3   OH227607   6.696   0.384   3.518 -0.5659  0.6188  0.1244
 2039TIP3    H127608   6.658   0.334   3.590 -2.4331  0.7863 -0.7236
 2039TIP3    H227609   6.790   0.364   3.523 -1.2993 -3.5987 -0.6454
 2040TIP3   OH227610   0.465   4.536   4.094  0.1192  0.3387 -0.5886
 2040TIP3    H127611   0.429   4.547   4.006 -1.4520  0.8725  0.0945
 2040TIP3    H227612   0.493   4.623   4.120 -1.4985  0.6231  0.2866
 2041TIP3   OH227613   5.404   1.939  15.460  0.5509  0.5995  0.0275
 2041TIP3    H127614   5.498   1.945  15.450  0.2478  1.5044 -2.5446
 2041TIP3    H227615   5.391   1.867  15.521  2.8410 -0.5388 -0.7801
 2042TIP3   OH227616   5.270   3.352  11.383 -0.2078 -0.0210 -0.4839
 2042TIP3    H127617   5.314   3.365  11.299 -0.9681  0.5256 -0.8037
 2042TIP3    H227618   5.179   3.378  11.367 -0.0862  1.2340  0.8315
 2043TIP3   OH227619   5.399   5.572  12.933  0.1167  0.1436  0.2860
 2043TIP3    H127620   5.481   5.617  12.912 -0.5327  1.5451  0.7211
 2043TIP3    H227621   5.381   5.519  12.855  0.8736  0.6409 -0.2388
 2044TIP3   OH227622   6.792   6.434   5.613  0.0254 -0.0837 -0.2631
 2044TIP3    H127623   6.830   6.352   5.582  0.2619 -0.1233  0.1250
 2044TIP3    H227624   6.865   6.496   5.613 -0.5422  0.5999 -2.2626
 2045TIP3   OH227625   2.827   3.708   3.742  0.2990  0.0283  0.4451
 2045TIP3    H127626   2.839   3.798   3.772 -0.4704  0.9104 -1.7929
 2045TIP3    H227627   2.915   3.670   3.743  0.6260  0.7873  1.3842
 2046TIP3   OH227628   5.546   5.425   2.888  0.8474  0.0425  0.5382
 2046TIP3    H127629   5.460   5.412   2.927  0.4997 -0.8003 -0.4706
 2046TIP3    H227630   5.608   5.393   2.954  0.4150  1.1109  1.4620
 2047TIP3   OH227631   6.206   5.680  17.279 -0.6582  0.3334 -0.5115
 2047TIP3    H127632   6.182   5.634  17.198 -2.0930  0.3691 -0.1258
 2047TIP3    H227633   6.124   5.686  17.328 -0.0614  1.4926  0.3618
 2048TIP3   OH227634   0.206   1.336  14.321  1.4075  0.3152  0.6460
 2048TIP3    H127635   0.240   1.246  14.318  1.6269  0.4136  0.0889
 2048TIP3    H227636   0.186   1.357  14.230  1.6075  0.9298  0.7390
 2049TIP3   OH227637   4.770   2.297   4.590 -0.1263 -0.0993 -0.2566
 2049TIP3    H127638   4.849   2.349   4.575  1.1125 -1.8986 -0.1640
 2049TIP3    H227639   4.788   2.213   4.547 -1.0302 -1.3870  1.7980
 2050TIP3   OH227640   1.247   3.131  12.869  0.3091  0.4384 -0.1016
 2050TIP3    H127641   1.262   3.225  12.865 -1.2395  0.6669 -1.3635
 2050TIP3    H227642   1.309   3.094  12.807  1.3797  0.5631  0.8932
 2051TIP3   OH227643   1.043   2.600  12.780  0.2258 -0.3346  0.2778
 2051TIP3    H127644   1.095   2.647  12.845  1.9302 -0.1355 -1.1641
 2051TIP3    H227645   1.051   2.508  12.805  0.5059 -0.2205  0.6093
 2052TIP3   OH227646   2.582   3.811  12.747 -0.3191  0.3242 -0.7547
 2052TIP3    H127647   2.676   3.823  12.730 -0.0992  0.7907  0.7080
 2052TIP3    H227648   2.563   3.871  12.819 -1.6397 -0.1304 -0.7082
 2053TIP3   OH227649   5.972   3.196   1.411  0.3709 -0.1711 -0.1702
 2053TIP3    H127650   5.964   3.116   1.359  0.8014  0.0155 -0.5293
 2053TIP3    H227651   5.892   3.199   1.463  0.7168 -1.2637  0.4488
 2054TIP3   OH227652   0.383   0.839  15.392  0.0255 -0.0488  0.3824
 2054TIP3    H127653   0.458   0.787  15.419 -0.0835  0.0235  0.8174
 2054TIP3    H227654   0.358   0.889  15.470 -2.2985 -2.2343  1.0953
 2055TIP3   OH227655   6.436   1.411   6.585  0.2780 -0.5288  0.0491
 2055TIP3    H127656   6.387   1.401   6.667  1.3430  1.3463  0.9201
 2055TIP3    H227657   6.396   1.346   6.526 -1.1057 -1.2593  1.7435
 2056TIP3   OH227658   6.370   0.240   1.386  0.2466 -0.3527  0.7502
 2056TIP3    H127659   6.339   0.214   1.473  2.1069 -0.4820  1.3824
 2056TIP3    H227660   6.320   0.184   1.326 -2.5723  1.1591  1.5614
 2057TIP3   OH227661   3.469   4.354   2.533  0.2664 -0.1142 -0.1997
 2057TIP3    H127662   3.446   4.441   2.500  0.1445 -0.1210 -0.1331
 2057TIP3    H227663   3.412   4.341   2.609  2.7994  1.2104  1.9676
 2058TIP3   OH227664   6.287   6.526   1.423  0.7164  0.4505 -0.1034
 2058TIP3    H127665   6.330   6.475   1.355  0.6887 -0.2541  0.4084
 2058TIP3    H227666   6.249   6.461   1.483  1.1787  1.0504  0.8613
 2059TIP3   OH227667   0.313   5.249   2.458  0.3844 -0.6280 -0.0229
 2059TIP3    H127668   0.299   5.156   2.477  1.2911 -0.5809  0.9110
 2059TIP3    H227669   0.297   5.293   2.541  0.1038  0.0438 -0.4265
 2060TIP3   OH227670   1.497   3.587   6.273 -0.2625  0.5106 -0.1315
 2060TIP3    H127671   1.486   3.508   6.220 -2.4296  0.6022  0.1478
 2060TIP3    H227672   1.576   3.571   6.324 -0.3063 -1.1884 -0.5756
 2061TIP3   OH227673   0.195   0.428  14.225  0.5973  0.4462  0.2055
 2061TIP3    H127674   0.119   0.372  14.245  0.7562  0.0856 -0.1842
 2061TIP3    H227675   0.253   0.417  14.300  0.4508  0.3964  0.3118
 2062TIP3   OH227676   6.375   3.024   3.856 -0.1356  0.1631  0.8048
 2062TIP3    H127677   6.420   3.108   3.848 -0.4360  0.3492  1.0795
 2062TIP3    H227678   6.387   2.983   3.771 -0.3606  0.6661  0.5284
 2063TIP3   OH227679   6.742   4.861   1.294 -0.1103  0.2920  0.3519
 2063TIP3    H127680   6.817   4.890   1.241 -1.2695  1.5298 -0.6376
 2063TIP3    H227681   6.715   4.938   1.343  0.0257 -0.4751  1.6543
 2064TIP3   OH227682   1.735   1.610   4.594  0.2127 -0.3557 -0.0757
 2064TIP3    H127683   1.703   1.695   4.563  0.6645 -0.5890 -1.1977
 2064TIP3    H227684   1.808   1.631   4.652 -0.2713  0.0580  0.3926
 2065TIP3   OH227685   0.548   1.012   1.607 -0.5390  0.3389 -0.5196
 2065TIP3    H127686   0.464   1.058   1.613 -1.0975 -0.7867  0.4001
 2065TIP3    H227687   0.528   0.929   1.563 -0.3180 -0.8882  1.6494
 2066TIP3   OH227688   1.675   2.216   1.782  0.2984 -0.5416 -0.1772
 2066TIP3    H127689   1.657   2.126   1.755  1.5552 -0.5616 -0.9726
 2066TIP3    H227690   1.617   2.269   1.728  2.6662 -0.5942 -2.8354
 2067TIP3   OH227691   0.535   3.127  15.766  0.1625 -0.9594 -0.2128
 2067TIP3    H127692   0.488   3.144  15.847  1.9131  2.3846  0.2241
 2067TIP3    H227693   0.628   3.136  15.789  0.6937  0.3322 -2.5689
 2068TIP3   OH227694   6.786   3.815   0.302  0.0346  0.1349 -0.0778
 2068TIP3    H127695   6.777   3.734   0.352 -1.2047  0.1667 -0.2374
 2068TIP3    H227696   6.833   3.874   0.361 -0.5255 -0.1574  0.6670
 2069TIP3   OH227697   1.074   6.770   4.740  0.0939  0.3196 -0.2146
 2069TIP3    H127698   1.092   6.789   4.832  2.4288  0.3001 -0.6598
 2069TIP3    H227699   1.084   6.854   4.695  0.1702  0.0782 -0.6494
 2070TIP3   OH227700   3.851   2.412   0.615 -0.6487 -0.2770  0.1115
 2070TIP3    H127701   3.792   2.486   0.601 -1.0338 -0.1072  2.4816
 2070TIP3    H227702   3.794   2.341   0.646  0.0939 -0.7325  0.4544
 2071TIP3   OH227703   2.373   3.638   1.022  0.4691 -0.2109 -0.5228
 2071TIP3    H127704   2.424   3.664   0.945 -0.1253 -1.3966 -1.3359
 2071TIP3    H227705   2.305   3.579   0.987 -2.1006  2.0951  0.3797
 2072TIP3   OH227706   6.334   5.276   3.774  0.8829  0.1336 -0.0886
 2072TIP3    H127707   6.323   5.343   3.842  2.6693 -0.4471  0.8054
 2072TIP3    H227708   6.271   5.208   3.796  1.2124  0.1139  0.7835
 2073TIP3   OH227709   2.101   2.487   0.756  0.5297  0.2073 -1.1696
 2073TIP3    H127710   2.126   2.541   0.831 -0.0183 -2.4818  1.0484
 2073TIP3    H227711   2.010   2.462   0.774  1.3786 -2.9854 -1.1329
 2074TIP3   OH227712   3.586   3.794   3.305  0.3615  0.1680 -0.1318
 2074TIP3    H127713   3.608   3.853   3.234  2.0285 -0.1103  0.1357
 2074TIP3    H227714   3.494   3.811   3.323  0.1645  0.8804 -1.7423
 2075TIP3   OH227715   2.063   4.649   0.359 -0.0648  0.1458  0.3578
 2075TIP3    H127716   2.071   4.564   0.404  1.2190  0.4010  0.6383
 2075TIP3    H227717   2.137   4.700   0.391 -0.8935  1.4321  0.2748
 2076TIP3   OH227718   1.218   5.385   0.486  0.7007 -0.6331 -0.3405
 2076TIP3    H127719   1.307   5.380   0.521  1.1908  0.1702 -1.4368
 2076TIP3    H227720   1.216   5.468   0.439 -0.3261 -1.1243 -1.1728
 2077TIP3   OH227721   2.080   6.516  16.626  0.7009  0.1607 -0.0428
 2077TIP3    H127722   2.016   6.459  16.585  0.0894  0.6631  0.2124
 2077TIP3    H227723   2.032   6.596  16.646  1.5766  0.8005 -0.4763
 2078TIP3   OH227724   4.665   2.775  13.311 -0.1466  0.5734 -0.5284
 2078TIP3    H127725   4.647   2.853  13.363 -0.1958  0.9245 -1.0633
 2078TIP3    H227726   4.584   2.724  13.316 -0.5941  1.1963 -1.2714
 2079TIP3   OH227727   4.401   4.194  14.119  0.2287 -0.2800 -0.1488
 2079TIP3    H127728   4.355   4.272  14.148  0.3327 -1.4407  3.3056
 2079TIP3    H227729   4.429   4.214  14.029 -1.7900  2.6920 -0.1526
 2080TIP3   OH227730   5.816   3.359   3.715 -0.1516 -0.0515 -0.6654
 2080TIP3    H127731   5.766   3.380   3.794  1.8078  0.2375  0.5300
 2080TIP3    H227732   5.783   3.273   3.687 -0.2478 -0.5412  0.9536
 2081TIP3   OH227733   1.346   4.078   5.127 -0.1040  0.7845 -1.1374
 2081TIP3    H127734   1.327   4.169   5.108  0.3165  1.2718  0.7057
 2081TIP3    H227735   1.383   4.078   5.215 -2.4074 -1.4229 -0.0926
 2082TIP3   OH227736   4.279   1.107   2.455 -0.4913  0.9896 -0.6738
 2082TIP3    H127737   4.367   1.121   2.490 -1.0121  1.2274  0.5742
 2082TIP3    H227738   4.259   1.015   2.474 -1.3612  1.5109  1.0409
 2083TIP3   OH227739   5.397   1.725  11.088 -0.3958 -0.1117  0.1552
 2083TIP3    H127740   5.441   1.753  11.008 -3.2665 -0.6128 -1.6737
 2083TIP3    H227741   5.366   1.806  11.129 -0.4413  0.0134 -0.1311
 2084TIP3   OH227742   2.567   0.883   0.338 -0.3215 -0.2449 -0.8621
 2084TIP3    H127743   2.626   0.957   0.325  0.6702 -1.2586 -2.2844
 2084TIP3    H227744   2.537   0.892   0.428  2.8814 -0.3139  0.2796
 2085TIP3   OH227745   4.933   4.263  16.982  0.9706 -0.3145 -0.3824
 2085TIP3    H127746   4.899   4.226  16.900 -0.7296 -1.2910  0.7364
 2085TIP3    H227747   4.940   4.188  17.041  1.0386  0.5687  0.7484
 2086TIP3   OH227748   3.749   3.997  14.535 -0.0300  0.3296  0.2563
 2086TIP3    H127749   3.822   4.053  14.509 -0.5088  1.2579  0.8615
 2086TIP3    H227750   3.698   4.051  14.596 -0.4645 -0.7955  0.9134
 2087TIP3   OH227751   6.461   1.445   3.263  0.6133  0.8165 -0.5102
 2087TIP3    H127752   6.440   1.480   3.350 -1.7323 -0.0587 -0.6888
 2087TIP3    H227753   6.425   1.510   3.202  0.1142  0.2477 -0.8243
 2088TIP3   OH227754   0.564   5.745   5.391  0.3328 -0.2614 -0.5240
 2088TIP3    H127755   0.649   5.783   5.370 -0.5757  1.8110 -0.5890
 2088TIP3    H227756   0.510   5.763   5.314 -0.0933 -1.8375 -0.6120
 2089TIP3   OH227757   1.139   5.815  15.178  0.1290  0.3179  0.5699
 2089TIP3    H127758   1.187   5.894  15.154  0.8834  0.2578  1.8302
 2089TIP3    H227759   1.206   5.747  15.185 -0.4595 -0.3340 -0.0879
 2090TIP3   OH227760   0.406   0.305   3.915 -0.3029 -0.2246 -0.1441
 2090TIP3    H127761   0.324   0.319   3.962 -0.9010 -0.5373 -1.0888
 2090TIP3    H227762   0.474   0.340   3.974 -0.9549 -1.3781  1.3397
 2091TIP3   OH227763   6.060   2.605  16.328  0.0773  0.0530 -0.7108
 2091TIP3    H127764   6.059   2.622  16.234  1.7588 -2.2775 -1.2020
 2091TIP3    H227765   6.048   2.510  16.336  1.7132 -0.0302  1.2942
 2092TIP3   OH227766   3.739   1.466  11.308 -0.8694  0.1652  0.0414
 2092TIP3    H127767   3.667   1.432  11.362  0.0428 -1.4475  0.2588
 2092TIP3    H227768   3.757   1.396  11.246  1.6402 -0.1255  1.0615
 2093TIP3   OH227769   3.095   6.436   0.545 -0.1468  0.0649  0.4039
 2093TIP3    H127770   3.093   6.350   0.504  0.0298 -0.6509  1.8546
 2093TIP3    H227771   3.148   6.490   0.486 -2.9236  0.0990 -2.1984
 2094TIP3   OH227772   2.647   5.029   1.211  0.5148 -0.6093 -0.0119
 2094TIP3    H127773   2.567   5.052   1.257 -0.1884 -0.0891 -1.4463
 2094TIP3    H227774   2.709   5.003   1.279  0.0582  1.7942  1.3273
 2095TIP3   OH227775   1.984   3.222  15.717 -0.3323 -0.1710 -0.0265
 2095TIP3    H127776   1.920   3.263  15.660  0.3396  0.1329 -0.5743
 2095TIP3    H227777   1.954   3.131  15.726 -0.2787 -0.3033 -1.1083
 2096TIP3   OH227778   1.647   0.660  16.871 -0.2018  0.4054  0.8020
 2096TIP3    H127779   1.741   0.651  16.881 -0.1637 -0.4307 -0.2132
 2096TIP3    H227780   1.634   0.673  16.777 -1.0783  0.8674  0.9766
 2097TIP3   OH227781   6.613   4.570   1.686  0.2070  0.1669 -0.2597
 2097TIP3    H127782   6.703   4.559   1.717 -0.2650  0.9062  1.4272
 2097TIP3    H227783   6.620   4.568   1.591  1.7673 -1.6314 -0.1331
 2098TIP3   OH227784   1.243   3.748   5.591 -0.6374  0.0783  0.1696
 2098TIP3    H127785   1.220   3.821   5.648  0.7580  0.1751  0.6289
 2098TIP3    H227786   1.332   3.724   5.617 -0.4087 -0.6137 -1.1993
 2099TIP3   OH227787   2.610   4.666  15.449 -0.4046  0.2443 -0.4802
 2099TIP3    H127788   2.587   4.740  15.506  2.0784  1.1353 -0.5901
 2099TIP3    H227789   2.578   4.589  15.496  2.4285  0.8768  2.6361
 2100TIP3   OH227790   6.064   4.259   0.530 -0.5542  0.1135 -0.3453
 2100TIP3    H127791   6.159   4.272   0.531 -0.2920 -1.6663  0.7994
 2100TIP3    H227792   6.037   4.266   0.621 -1.3623 -0.3806 -0.5343
 2101TIP3   OH227793   3.326   2.040  13.818 -0.4957 -0.3900 -0.1872
 2101TIP3    H127794   3.401   2.040  13.877 -0.4648 -0.2535 -0.2261
 2101TIP3    H227795   3.296   2.131  13.818 -2.0712 -0.8886  1.5956
 2102TIP3   OH227796   0.003   0.139  12.139  0.2368  0.3139  0.1709
 2102TIP3    H127797   0.096   0.114  12.145  0.1195  0.1927  1.5747
 2102TIP3    H227798  -0.009   0.164  12.047  1.6131  0.1381 -0.0684
 2103TIP3   OH227799   0.585   5.515   0.194 -0.0932  0.0732 -0.4246
 2103TIP3    H127800   0.602   5.609   0.183  1.4890 -0.4255 -2.8334
 2103TIP3    H227801   0.665   5.482   0.236 -0.6659 -0.1959  0.4573
 2104TIP3   OH227802   5.584   3.096   5.202 -0.2870  0.3428 -0.4344
 2104TIP3    H127803   5.507   3.106   5.145 -0.6986 -2.2812 -0.3962
 2104TIP3    H227804   5.558   3.135   5.285 -0.8632  1.2665 -1.0465
 2105TIP3   OH227805   2.096   6.072  16.704 -0.3814  0.1812 -0.1332
 2105TIP3    H127806   2.027   6.021  16.747 -0.7833  0.5214 -0.3849
 2105TIP3    H227807   2.167   6.008  16.691  0.2373  0.3498  2.1420
 2106TIP3   OH227808   1.719   1.299   4.503 -0.0547  0.5580  0.5136
 2106TIP3    H127809   1.708   1.333   4.591  1.3785 -0.7038  1.1943
 2106TIP3    H227810   1.771   1.219   4.514 -1.2050 -0.4772 -1.2957
 2107TIP3   OH227811   6.748   5.874   5.537 -0.3265 -0.3899 -0.0255
 2107TIP3    H127812   6.761   5.953   5.590 -0.6435 -0.2454 -0.1597
 2107TIP3    H227813   6.679   5.826   5.583  0.6135 -1.1075  0.6347
 2108TIP3   OH227814   2.617   4.141   3.605  0.6012 -0.4177 -0.1345
 2108TIP3    H127815   2.581   4.223   3.572  0.4099 -0.7887 -0.8515
 2108TIP3    H227816   2.550   4.107   3.665  0.6492 -0.0966  0.1036
 2109TIP3   OH227817   4.822   0.037  12.080  0.2048  0.2875  0.2594
 2109TIP3    H127818   4.838   0.126  12.048 -2.9397  0.7497 -0.2261
 2109TIP3    H227819   4.800   0.048  12.172  1.8042 -0.2277  0.7128
 2110TIP3   OH227820   0.894   4.048   0.646  0.0925  0.0712  0.4264
 2110TIP3    H127821   0.819   4.090   0.687 -0.2628  1.1342 -1.2686
 2110TIP3    H227822   0.927   3.987   0.712 -1.7203  0.2379  1.5021
 2111TIP3   OH227823   5.623   1.496  13.562 -0.1870  0.2101  0.1770
 2111TIP3    H127824   5.555   1.432  13.541  0.0108  0.0504  0.0230
 2111TIP3    H227825   5.602   1.572  13.507  0.5280 -0.3299 -0.8582
 2112TIP3   OH227826   3.532   1.275   6.475 -0.3083 -0.0359  0.4428
 2112TIP3    H127827   3.540   1.370   6.467 -1.2948  0.0779  0.7302
 2112TIP3    H227828   3.620   1.241   6.454 -0.5428  0.7695 -1.9611
 2113TIP3   OH227829   4.351   4.091   3.042  0.4921  0.1345  0.1499
 2113TIP3    H127830   4.426   4.032   3.047  0.1735 -0.2410  0.5426
 2113TIP3    H227831   4.292   4.050   2.978 -0.6092 -0.9991  1.8457
 2114TIP3   OH227832   5.924   0.159   5.353 -0.0619 -0.1807  0.2487
 2114TIP3    H127833   5.869   0.081   5.348  1.2637 -1.1970  1.2204
 2114TIP3    H227834   5.967   0.164   5.268  0.7643 -1.1886  0.6085
 2115TIP3   OH227835   1.888   1.849  13.992  0.5306  0.0199 -0.0734
 2115TIP3    H127836   1.915   1.787  13.924 -0.1801 -0.4069  0.0299
 2115TIP3    H227837   1.830   1.910  13.948  0.3473 -0.0489  0.0722
 2116TIP3   OH227838   1.349   1.654  12.119  0.0029  0.2018  0.0834
 2116TIP3    H127839   1.337   1.672  12.213 -1.3724  1.3944 -0.3067
 2116TIP3    H227840   1.262   1.631  12.088  0.2956  0.6489 -1.0858
 2117TIP3   OH227841   3.207   5.721  12.841 -0.0309  1.2495 -0.4773
 2117TIP3    H127842   3.120   5.735  12.878 -0.5408  0.6297 -1.4161
 2117TIP3    H227843   3.191   5.705  12.748  0.9516 -0.3329 -0.4028
 2118TIP3   OH227844   6.174   3.088   3.606 -0.1504  0.1681 -0.4179
 2118TIP3    H127845   6.225   3.016   3.643 -2.5736 -0.1071  2.5534
 2118TIP3    H227846   6.175   3.072   3.512  1.5157 -2.2687 -0.0273
 2119TIP3   OH227847   5.905   0.087   6.126  0.6243 -0.2258  0.7227
 2119TIP3    H127848   5.936   0.167   6.168  1.4591 -0.6946  0.9994
 2119TIP3    H227849   5.944   0.016   6.177 -1.0233 -0.8411  1.1956
 2120TIP3   OH227850   5.766   2.836   1.532 -0.4375 -0.1660  0.7585
 2120TIP3    H127851   5.778   2.747   1.566 -1.9055 -0.0666  1.5573
 2120TIP3    H227852   5.672   2.844   1.519 -0.4963  1.8514  2.3060
 2121TIP3   OH227853   5.531   3.197  17.198 -0.5961 -0.5276 -0.2865
 2121TIP3    H127854   5.572   3.267  17.146 -1.2128 -1.3923 -1.9762
 2121TIP3    H227855   5.437   3.204  17.177 -0.9846 -0.2980  1.4496
 2122TIP3   OH227856   1.062   0.212  10.972  0.3577 -0.3936  0.1782
 2122TIP3    H127857   1.136   0.156  10.995  0.3923 -0.9884 -1.3337
 2122TIP3    H227858   1.098   0.277  10.912 -0.3658 -0.7746 -0.6857
 2123TIP3   OH227859   6.261   3.350   0.673 -0.5996  0.1666  0.3293
 2123TIP3    H127860   6.201   3.391   0.610  0.6449  0.5870 -0.6108
 2123TIP3    H227861   6.209   3.283   0.715 -1.9751  1.0727  0.1151
 2124TIP3   OH227862   0.460   5.032  13.573  0.1873  0.4036  0.1475
 2124TIP3    H127863   0.492   5.099  13.633  0.9920  0.3890 -0.2571
 2124TIP3    H227864   0.439   4.957  13.629 -0.2964  0.8399  0.5500
 2125TIP3   OH227865   2.218   0.573   0.748  0.3251  0.4772 -0.5978
 2125TIP3    H127866   2.241   0.520   0.672  0.0491  0.6333 -0.7884
 2125TIP3    H227867   2.166   0.645   0.713 -0.8818 -0.1332 -0.1227
 2126TIP3   OH227868   3.508   1.533   5.421  0.9025 -0.1840 -0.5766
 2126TIP3    H127869   3.565   1.604   5.390  1.3650 -1.4943 -2.8524
 2126TIP3    H227870   3.552   1.500   5.499  1.5905  0.9375 -0.4835
 2127TIP3   OH227871   2.831   4.010   1.532  0.1971 -0.3345  0.4883
 2127TIP3    H127872   2.817   3.917   1.551  0.2552 -0.5403 -0.4820
 2127TIP3    H227873   2.745   4.042   1.503  0.9185 -0.8553 -2.3554
 2128TIP3   OH227874   0.098   0.030  16.803  0.0547 -0.3023 -0.4749
 2128TIP3    H127875   0.018   0.072  16.773  0.5649  1.2067  0.2092
 2128TIP3    H227876   0.137  -0.008  16.724 -0.3230  0.6909 -1.1515
 2129TIP3   OH227877   6.338   1.985   5.457 -0.7188 -0.3098  0.5537
 2129TIP3    H127878   6.344   1.936   5.376  1.2098  0.1116  0.4232
 2129TIP3    H227879   6.322   2.076   5.429 -2.0968 -0.4778  0.7314
 2130TIP3   OH227880   2.110   5.736  15.652 -0.0181  1.0855 -0.1527
 2130TIP3    H127881   2.042   5.673  15.675  1.4407 -1.1844 -1.7069
 2130TIP3    H227882   2.130   5.782  15.733 -1.9844  0.3876  0.7479
 2131TIP3   OH227883   2.675   5.844  10.540 -0.8040 -0.1984  0.1075
 2131TIP3    H127884   2.654   5.937  10.551  0.6472  0.3737 -1.6684
 2131TIP3    H227885   2.596   5.807  10.500 -0.4546  0.8358 -1.6026
 2132TIP3   OH227886   1.917   3.638   4.579  0.1407  0.1857 -0.2052
 2132TIP3    H127887   1.837   3.636   4.526  0.0720  0.3740 -0.1094
 2132TIP3    H227888   1.897   3.697   4.651  0.3786  0.2611 -0.1987
 2133TIP3   OH227889   0.945   3.753  11.899 -0.4129  0.4287  0.2744
 2133TIP3    H127890   0.947   3.681  11.961 -1.1177 -0.3607 -0.5940
 2133TIP3    H227891   0.976   3.715  11.817  0.0605  1.3381  0.0167
 2134TIP3   OH227892   5.139   4.052  12.352  0.4480  0.4772 -0.4869
 2134TIP3    H127893   5.140   3.971  12.403  1.1227  0.4132 -0.5980
 2134TIP3    H227894   5.128   4.121  12.417 -2.8879  0.1382 -0.6139
 2135TIP3   OH227895   5.188   6.458   4.044 -0.6908 -0.1833  0.4599
 2135TIP3    H127896   5.112   6.447   3.988  2.8614 -1.2143 -4.5017
 2135TIP3    H227897   5.212   6.550   4.034 -0.2372 -0.2874  0.5893
 2136TIP3   OH227898   0.825   3.587  12.147  0.2971  0.6429 -0.0621
 2136TIP3    H127899   0.914   3.579  12.180 -0.1168 -1.4981  0.5939
 2136TIP3    H227900   0.778   3.632  12.217  0.5619  0.6177  0.1332
 2137TIP3   OH227901   4.192   0.416   2.935 -0.5877  0.2303 -0.4227
 2137TIP3    H127902   4.249   0.479   2.892 -0.9812  1.0789  0.2879
 2137TIP3    H227903   4.167   0.355   2.865 -0.5777  1.1239 -1.2123
 2138TIP3   OH227904   5.662   5.821   0.176  0.0633 -0.0405 -0.0655
 2138TIP3    H127905   5.712   5.792   0.252 -1.1663 -0.7633  0.4714
 2138TIP3    H227906   5.658   5.745   0.118 -1.6619 -0.4402  0.5558
 2139TIP3   OH227907   0.524   3.110  16.946 -0.0375  0.2822  0.1359
 2139TIP3    H127908   0.430   3.098  16.959  0.5059 -1.8798  2.4135
 2139TIP3    H227909   0.531   3.192  16.897 -3.0448  1.1337  1.0219
 2140TIP3   OH227910   2.511   3.598  12.064  0.0875  0.8007  0.1352
 2140TIP3    H127911   2.416   3.587  12.061  0.2713 -0.6503 -0.8512
 2140TIP3    H227912   2.546   3.522  12.018  1.7058  1.7390 -0.2549
 2141TIP3   OH227913   1.153   1.736  14.426 -0.2375 -0.1045 -0.5130
 2141TIP3    H127914   1.143   1.727  14.331 -0.1982  0.8321 -0.6074
 2141TIP3    H227915   1.195   1.654  14.453  1.3501  0.3484 -1.5449
 2142TIP3   OH227916   2.451   4.993  13.721  0.1792  0.3073 -0.6606
 2142TIP3    H127917   2.457   5.056  13.793 -0.1670  0.9682 -1.1966
 2142TIP3    H227918   2.531   4.942  13.727  1.5626  2.2959 -1.5684
 2143TIP3   OH227919   4.786   6.386  15.145  0.2341  0.0075 -0.1619
 2143TIP3    H127920   4.858   6.419  15.199  1.9261  1.9035 -3.3724
 2143TIP3    H227921   4.736   6.464  15.121  0.0672 -0.6345 -2.0271
 2144TIP3   OH227922   2.706   3.082   5.430  0.3543  0.1808 -0.0644
 2144TIP3    H127923   2.787   3.034   5.414 -0.6509 -1.7398  0.5008
 2144TIP3    H227924   2.642   3.015   5.452 -1.5475  1.6201 -1.0701
 2145TIP3   OH227925   3.316   1.118  13.855 -0.3317  0.3595  0.2926
 2145TIP3    H127926   3.244   1.160  13.902  0.3075  1.2363  0.5112
 2145TIP3    H227927   3.363   1.191  13.815 -0.3288 -0.3166 -0.9374
 2146TIP3   OH227928   4.387   4.557  15.931  0.2949 -0.0789  0.1785
 2146TIP3    H127929   4.433   4.554  16.015  0.7489  0.2737 -0.0507
 2146TIP3    H227930   4.297   4.581  15.954  0.0467 -1.4912  0.6954
 2147TIP3   OH227931   1.665   6.647   4.757 -0.0152  1.1817 -0.3443
 2147TIP3    H127932   1.598   6.603   4.705 -1.7863  0.6671  2.2661
 2147TIP3    H227933   1.690   6.723   4.705 -2.9562  1.6156 -1.2010
 2148TIP3   OH227934   1.016   2.038   4.217  0.7975 -0.3187  0.7769
 2148TIP3    H127935   0.973   2.079   4.142 -0.9908 -4.9509 -0.9254
 2148TIP3    H227936   0.977   2.081   4.293 -1.2564  0.8071 -0.8527
 2149TIP3   OH227937   0.818   5.239  15.464 -0.8683  0.0061  0.9244
 2149TIP3    H127938   0.893   5.210  15.516  0.1262 -0.6188 -0.8094
 2149TIP3    H227939   0.816   5.178  15.390 -2.4789  0.6492  0.4231
 2150TIP3   OH227940   3.528   4.775  15.656 -0.0134 -0.6886  0.3431
 2150TIP3    H127941   3.583   4.793  15.579 -1.4794  0.8611 -0.3762
 2150TIP3    H227942   3.479   4.697  15.633 -0.5351 -0.1594 -0.3524
 2151TIP3   OH227943   0.884   0.644  13.208 -0.4237  0.3533  0.4857
 2151TIP3    H127944   0.926   0.685  13.283  0.2287 -0.3513  0.5179
 2151TIP3    H227945   0.803   0.694  13.195  0.0760  1.2709  0.8669
 2152TIP3   OH227946   1.531   1.986   2.060 -0.0864 -0.3746 -0.4176
 2152TIP3    H127947   1.606   1.938   2.096  0.4989  1.0854  0.3564
 2152TIP3    H227948   1.481   2.013   2.137  1.0457  2.5659 -0.6430
 2153TIP3   OH227949   4.581   6.316   1.833 -0.4023  0.0433  0.7029
 2153TIP3    H127950   4.536   6.364   1.763  0.5307 -0.4598 -0.2483
 2153TIP3    H227951   4.632   6.250   1.787 -0.7385 -1.0909  1.9364
 2154TIP3   OH227952   1.929   2.382  13.573 -0.5715 -0.0370 -0.1397
 2154TIP3    H127953   2.019   2.366  13.602 -0.4361  0.0009 -0.5316
 2154TIP3    H227954   1.884   2.298  13.585 -1.6426  1.0112  4.1210
 2155TIP3   OH227955   0.819   1.118   6.941 -0.1281  0.3268  0.1646
 2155TIP3    H127956   0.913   1.102   6.930 -0.2940 -0.1242 -0.6511
 2155TIP3    H227957   0.778   1.068   6.870 -0.9250  1.2771 -0.0484
 2156TIP3   OH227958   0.062   3.599  12.258  0.0072 -0.4845 -0.3222
 2156TIP3    H127959   0.077   3.622  12.350 -0.6908 -1.0088 -0.0660
 2156TIP3    H227960   0.149   3.574  12.225  0.0904 -1.3430  0.5070
 2157TIP3   OH227961   0.407   4.586  12.486 -0.6225  0.2625 -0.6343
 2157TIP3    H127962   0.465   4.653  12.451 -1.0241  0.8360 -0.2075
 2157TIP3    H227963   0.347   4.633  12.543  0.2068 -0.6622  1.0768
 2158TIP3   OH227964   4.601   1.578  16.797  0.5153 -0.0126  0.0031
 2158TIP3    H127965   4.590   1.489  16.831 -1.9074  0.2807  0.0863
 2158TIP3    H227966   4.567   1.575  16.708  2.3720  0.3519 -0.7276
 2159TIP3   OH227967   3.776   0.126  16.891 -0.4054 -0.3054 -0.1071
 2159TIP3    H127968   3.793   0.040  16.929 -0.3357 -0.7407 -1.1067
 2159TIP3    H227969   3.777   0.111  16.797 -2.1061  0.4626 -0.2781
 2160TIP3   OH227970   3.456   5.495  12.124  0.9560  0.2052 -0.0801
 2160TIP3    H127971   3.372   5.521  12.161  0.3889 -0.7660 -0.6524
 2160TIP3    H227972   3.433   5.441  12.048  2.0918  1.2041 -1.1636
 2161TIP3   OH227973   4.649   3.485  16.443  0.0143 -0.2459  0.5258
 2161TIP3    H127974   4.660   3.462  16.535 -0.3155  0.3671  0.7155
 2161TIP3    H227975   4.729   3.531  16.420  0.1386 -0.4836  0.4796
 2162TIP3   OH227976   2.715   1.258   2.272  0.1459  0.1823 -0.2519
 2162TIP3    H127977   2.623   1.232   2.267  0.6091 -1.0363 -3.7640
 2162TIP3    H227978   2.713   1.352   2.290 -1.7988  0.2328 -0.6779
 2163TIP3   OH227979   4.965   3.799  13.474 -0.7367 -0.2185 -0.1339
 2163TIP3    H127980   5.050   3.804  13.429 -0.5688  0.4528  0.2449
 2163TIP3    H227981   4.987   3.804  13.567 -1.1105 -1.2159  0.0085
 2164TIP3   OH227982   5.116   6.760  15.099  0.2617  0.7220  0.1112
 2164TIP3    H127983   5.165   6.769  15.180  0.0591  0.1884  0.2924
 2164TIP3    H227984   5.081   6.847  15.082 -0.5214  0.6077  1.1183
 2165TIP3   OH227985   1.829   0.279   1.506 -0.0914  0.1396 -0.1104
 2165TIP3    H127986   1.814   0.373   1.505  0.6329  0.2786  0.8360
 2165TIP3    H227987   1.808   0.253   1.596  3.7724  0.1256  0.9155
 2166TIP3   OH227988   6.657   1.911  10.408 -0.1615 -0.0350 -0.3189
 2166TIP3    H127989   6.585   1.937  10.351 -0.0567  0.1547 -0.3665
 2166TIP3    H227990   6.644   1.963  10.488 -0.8397 -0.9741  0.1962
 2167TIP3   OH227991   1.233   3.922  13.220  0.2009 -0.2885 -0.1399
 2167TIP3    H127992   1.225   3.952  13.129 -1.4404 -0.7629 -0.1642
 2167TIP3    H227993   1.152   3.949  13.262  0.8704 -0.2395  1.1518
 2168TIP3   OH227994   2.868   2.100   2.821 -0.1594 -0.4565  0.3928
 2168TIP3    H127995   2.853   2.194   2.812 -0.0963 -0.2564  2.2021
 2168TIP3    H227996   2.947   2.094   2.875  0.1989 -1.5530 -0.2464
 2169TIP3   OH227997   0.172   3.481  13.299  0.4772 -0.2635  0.7549
 2169TIP3    H127998   0.215   3.563  13.276  1.0103 -0.9833 -0.9241
 2169TIP3    H227999   0.081   3.504  13.315  0.7243  0.7286  0.7311
 2170TIP3   OH228000   3.277   6.498  11.539  0.2273  0.0092  0.3037
 2170TIP3    H128001   3.317   6.580  11.512 -1.5376  1.6764  2.6017
 2170TIP3    H228002   3.345   6.455  11.592  0.8235  0.3959 -0.1405
 2171TIP3   OH228003   5.725   0.564  12.995  0.2001  0.0862  0.0137
 2171TIP3    H128004   5.758   0.621  13.065  1.7435 -0.4713 -0.2446
 2171TIP3    H228005   5.702   0.625  12.925  0.1557  0.5325  0.4101
 2172TIP3   OH228006   1.170   4.102  15.176 -0.4512  0.0822 -0.4474
 2172TIP3    H128007   1.076   4.111  15.191 -0.5735 -2.4349  0.4237
 2172TIP3    H228008   1.210   4.115  15.262 -0.1450 -0.8428 -0.4519
 2173TIP3   OH228009   4.613   4.866   1.279 -0.6041  0.0791 -0.2866
 2173TIP3    H128010   4.557   4.888   1.354  0.2003 -1.9938  0.9426
 2173TIP3    H228011   4.552   4.835   1.212 -1.0942 -0.3642  0.3662
 2174TIP3   OH228012   4.531   1.006  13.813  0.3533  0.0058 -0.0308
 2174TIP3    H128013   4.575   1.002  13.898  1.3488  1.8299 -0.4271
 2174TIP3    H228014   4.603   1.018  13.750 -0.4829  0.0958 -0.9818
 2175TIP3   OH228015   3.041   1.482   5.095  0.4102 -0.5607 -0.0323
 2175TIP3    H128016   3.126   1.491   5.140  0.6214 -0.9316 -0.3454
 2175TIP3    H228017   3.031   1.563   5.046 -0.1176  0.1188  1.1763
 2176TIP3   OH228018   2.088   5.788  17.120 -0.1272  0.1596  0.0223
 2176TIP3    H128019   2.165   5.828  17.160 -0.7679  2.0876 -0.5868
 2176TIP3    H228020   2.014   5.836  17.158 -1.0366 -1.6948  0.6321
 2177TIP3   OH228021   2.798   3.464   1.995  0.0222  0.1892 -0.2051
 2177TIP3    H128022   2.873   3.438   1.941 -0.2527  0.2649 -0.6275
 2177TIP3    H228023   2.826   3.448   2.085  1.3606  2.2940 -0.2108
 2178TIP3   OH228024   2.649   0.556   0.942  0.1190 -0.1860 -0.5402
 2178TIP3    H128025   2.730   0.528   0.900  0.9848 -0.1839  1.0678
 2178TIP3    H228026   2.601   0.475   0.960  2.5545 -0.7957  3.9803
 2179TIP3   OH228027   2.417   2.618  13.121 -0.0322  0.7054  0.1970
 2179TIP3    H128028   2.337   2.617  13.068 -0.3477  1.0598  0.6676
 2179TIP3    H228029   2.459   2.701  13.100 -0.5099  1.1668  1.0152
 2180TIP3   OH228030   4.764   4.105  12.928  0.0227 -0.6653  0.5818
 2180TIP3    H128031   4.850   4.091  12.889 -0.6989  1.9463 -2.2054
 2180TIP3    H228032   4.782   4.146  13.012  1.5291 -0.9370  0.4045
 2181TIP3   OH228033   3.475   0.735   4.842  0.1383  0.0058  0.1900
 2181TIP3    H128034   3.502   0.822   4.870 -1.3099  0.2365  0.8970
 2181TIP3    H228035   3.390   0.748   4.800 -0.5383 -1.1840  1.1454
 2182TIP3   OH228036   4.418   1.080   3.824 -0.1423 -0.2005 -0.9740
 2182TIP3    H128037   4.451   1.099   3.912  1.8638 -1.5127 -1.4189
 2182TIP3    H228038   4.327   1.052   3.839  0.0589 -0.0578  0.6531
 2183TIP3   OH228039   4.753   3.134   3.820 -0.1727 -0.0515  0.3340
 2183TIP3    H128040   4.783   3.171   3.737  1.0398  1.6537  1.5037
 2183TIP3    H228041   4.803   3.053   3.830 -0.6217 -0.4725 -0.7739
 2184TIP3   OH228042   6.628   0.769   0.186  0.2064  0.2583  0.0217
 2184TIP3    H128043   6.673   0.825   0.249  0.6500  0.0594 -0.1178
 2184TIP3    H228044   6.617   0.685   0.231  0.2292  0.2186 -0.0460
 2185TIP3   OH228045   6.655   1.736   0.209  0.7523 -0.2778 -0.1959
 2185TIP3    H128046   6.740   1.734   0.165  0.3125  1.1826 -1.1272
 2185TIP3    H228047   6.634   1.828   0.216 -1.0170 -0.6554 -0.4369
 2186TIP3   OH228048   2.134   6.141  11.339 -0.0312 -0.0009  0.3767
 2186TIP3    H128049   2.145   6.224  11.293  1.4109 -1.1141 -1.3583
 2186TIP3    H228050   2.187   6.150  11.418  0.5424  0.5329 -0.0705
 2187TIP3   OH228051   3.026   4.236  13.868 -0.4875  0.2318 -0.2939
 2187TIP3    H128052   3.118   4.253  13.847 -0.0988  1.5252  2.2921
 2187TIP3    H228053   3.020   4.140  13.872  0.8642  0.1532  0.0865
 2188TIP3   OH228054   1.617   2.215   1.308  0.4444  0.1122 -0.5337
 2188TIP3    H128055   1.566   2.279   1.257  0.3036 -0.4215 -1.0687
 2188TIP3    H228056   1.669   2.268   1.368  0.3606  0.7386 -1.0089
 2189TIP3   OH228057   3.798   4.669  12.521 -0.6725  0.3405  0.2694
 2189TIP3    H128058   3.726   4.638  12.574  0.0867 -0.1338  1.0344
 2189TIP3    H228059   3.808   4.603  12.452 -1.9673  1.1984 -0.7688
 2190TIP3   OH228060   0.027   2.942   0.508  0.2884  0.6814  0.3881
 2190TIP3    H128061  -0.030   2.869   0.482  1.0536  0.0444  0.4796
 2190TIP3    H228062  -0.030   2.999   0.560 -0.1690 -0.1594  0.8319
 2191TIP3   OH228063   0.066   6.048  15.222 -0.6655  0.7593 -0.2218
 2191TIP3    H128064   0.036   6.134  15.254 -0.6608  0.5907  0.2432
 2191TIP3    H228065  -0.015   5.999  15.206 -0.6601  0.2499  1.1808
 2192TIP3   OH228066   2.149   1.451   2.539  0.2813 -0.9417 -0.5321
 2192TIP3    H128067   2.149   1.355   2.535 -0.7334 -0.9198 -1.4241
 2192TIP3    H228068   2.198   1.472   2.618 -3.0676 -2.2985  2.0345
 2193TIP3   OH228069   5.437   0.960  14.021  0.2676 -0.1275  0.5232
 2193TIP3    H128070   5.389   1.041  14.001 -0.6767 -0.2280  2.2804
 2193TIP3    H228071   5.370   0.892  14.022  1.3843 -1.3971 -3.2843
 2194TIP3   OH228072   6.519   0.456   6.124 -0.0556  0.0242  0.1656
 2194TIP3    H128073   6.501   0.375   6.171 -1.6553  0.2691  0.0164
 2194TIP3    H228074   6.450   0.462   6.058  0.6783  0.9646 -0.5384
 2195TIP3   OH228075   2.133   0.022  11.083  0.2993 -0.1042  0.2676
 2195TIP3    H128076   2.089  -0.061  11.065  0.2833  0.1402 -0.8981
 2195TIP3    H228077   2.113   0.076  11.006 -3.1698  2.4692  2.8149
 2196TIP3   OH228078   1.302   6.048  15.161  0.1876 -0.6827  0.0776
 2196TIP3    H128079   1.381   6.053  15.214 -1.0175  1.0945  1.7842
 2196TIP3    H228080   1.323   6.097  15.081  0.0631  1.9242  1.5749
 2197TIP3   OH228081   2.136   3.771  13.679  0.0164 -0.2414  0.1682
 2197TIP3    H128082   2.173   3.686  13.703 -1.0153 -1.0520 -1.0394
 2197TIP3    H228083   2.178   3.794  13.596  0.0733  0.2886  0.3410
 2198TIP3   OH228084   3.474   0.323  15.271 -0.2496 -0.5274  0.4146
 2198TIP3    H128085   3.568   0.329  15.287  0.2457 -0.5346 -2.3230
 2198TIP3    H228086   3.439   0.406  15.304  0.6475 -0.6930  1.8138
 2199TIP3   OH228087   6.147   3.747  14.458 -0.0734 -0.5625  0.6652
 2199TIP3    H128088   6.144   3.826  14.512  0.0799 -0.9486  1.2417
 2199TIP3    H228089   6.178   3.679  14.517  2.9680 -0.3774 -0.6548
 2200TIP3   OH228090   0.460   3.566  12.931  0.2042 -0.9683 -0.1697
 2200TIP3    H128091   0.506   3.488  12.960  0.7307 -0.3314  0.7173
 2200TIP3    H228092   0.485   3.576  12.839  1.0683 -1.1768  0.0388
 2201TIP3   OH228093   3.501   6.464   3.010 -0.2997 -0.5493  0.4151
 2201TIP3    H128094   3.488   6.521   2.935 -0.4451 -0.1841  0.7135
 2201TIP3    H228095   3.427   6.403   3.007 -0.2882 -0.5550  0.2463
 2202TIP3   OH228096   4.414   4.777   1.107 -0.1597  0.9109  0.1805
 2202TIP3    H128097   4.457   4.713   1.051 -1.2025  1.0594 -0.8209
 2202TIP3    H228098   4.372   4.838   1.046 -0.2728  1.7918  1.1220
 2203TIP3   OH228099   0.727   5.671   5.640  0.4296 -0.2168 -0.2929
 2203TIP3    H128100   0.656   5.735   5.631  0.2857 -0.2619  0.4750
 2203TIP3    H228101   0.780   5.683   5.561  0.0215  0.3778 -0.4836
 2204TIP3   OH228102   3.279   5.080  14.583 -0.0644  0.1930  0.6037
 2204TIP3    H128103   3.361   5.039  14.610 -0.3817 -0.7925  0.0908
 2204TIP3    H228104   3.307   5.155  14.529  0.5057  0.1309  0.8071
 2205TIP3   OH228105   2.425   6.583  11.051  0.0833 -0.2898 -0.3484
 2205TIP3    H128106   2.337   6.587  11.015  0.3098  0.7267 -0.8286
 2205TIP3    H228107   2.470   6.516  11.000 -0.3613 -0.6939 -0.2096
 2206TIP3   OH228108   1.058   0.955  12.276  0.0528 -0.2986  0.8555
 2206TIP3    H128109   1.037   0.997  12.359  0.9644 -0.5127  1.1976
 2206TIP3    H228110   1.150   0.977  12.261 -0.2442  0.1626 -0.3433
 2207TIP3   OH228111   1.704   6.512  13.645  0.4560 -0.2782 -0.2771
 2207TIP3    H128112   1.739   6.595  13.679  0.0581 -0.6038  0.9634
 2207TIP3    H228113   1.725   6.448  13.713  2.3434 -1.5608 -2.0016
 2208TIP3   OH228114   1.030   4.240  10.806  0.3493  0.6212  0.3177
 2208TIP3    H128115   0.963   4.281  10.750  0.3334 -1.9810 -1.6579
 2208TIP3    H228116   1.111   4.284  10.782  0.0254  0.8509 -0.3843
 2209TIP3   OH228117   2.721   5.527  12.368 -0.4424  0.2199 -0.2359
 2209TIP3    H128118   2.683   5.575  12.441  1.9178  0.6074  0.8030
 2209TIP3    H228119   2.677   5.561  12.290  0.1892  3.0805  0.6063
 2210TIP3   OH228120   4.444   1.690  14.226  0.2684  0.2411 -0.7755
 2210TIP3    H128121   4.384   1.618  14.246  0.6926 -0.8784 -3.3113
 2210TIP3    H228122   4.392   1.769  14.243 -0.7102 -0.6607  0.5475
 2211TIP3   OH228123   0.159   4.575   6.528 -0.7756 -0.3022 -0.0938
 2211TIP3    H128124   0.149   4.494   6.579 -1.4598 -0.8268 -1.0473
 2211TIP3    H228125   0.198   4.547   6.446  0.2804  0.5408  0.1039
 2212TIP3   OH228126   6.262   3.738  12.532  0.4647  0.2530 -0.3059
 2212TIP3    H128127   6.353   3.766  12.538  0.2348  1.1807 -1.1058
 2212TIP3    H228128   6.252   3.706  12.443  0.3240 -1.0252  0.1474
 2213TIP3   OH228129   6.029   0.888  15.195  0.3509 -0.2197 -0.0281
 2213TIP3    H128130   6.011   0.806  15.240 -2.3567  0.9449  1.0973
 2213TIP3    H228131   6.087   0.936  15.255  2.2491 -1.4264 -0.8576
 2214TIP3   OH228132   2.985   2.855   1.875 -0.6801 -0.4215  0.6702
 2214TIP3    H128133   2.992   2.886   1.785  0.9148 -0.9941  0.5880
 2214TIP3    H228134   2.895   2.876   1.901 -1.0827 -0.0915 -0.9838
 2215TIP3   OH228135   1.796   1.622   5.078 -0.6692 -0.5100  0.0384
 2215TIP3    H128136   1.760   1.628   5.166 -1.1511  1.2974 -0.2528
 2215TIP3    H228137   1.721   1.632   5.020 -0.3108 -1.3552 -0.5894
 2216TIP3   OH228138   0.456   1.484   4.491  0.2218 -0.4303 -0.8091
 2216TIP3    H128139   0.400   1.515   4.420  0.5946  0.7190 -0.6222
 2216TIP3    H228140   0.403   1.420   4.538 -1.4734  1.6484  0.2163
 2217TIP3   OH228141   4.351   2.682   4.520  0.1844 -0.2427  0.4968
 2217TIP3    H128142   4.374   2.632   4.442  1.8891  0.1018  0.7465
 2217TIP3    H228143   4.397   2.765   4.510 -1.7572  0.8796  0.5923
 2218TIP3   OH228144   5.024   3.725  15.397 -0.2347 -0.0828  1.2174
 2218TIP3    H128145   5.044   3.634  15.375 -2.0280 -0.3555  0.6428
 2218TIP3    H228146   4.979   3.719  15.481 -2.8517 -0.0083 -0.1348
 2219TIP3   OH228147   3.112   0.214  11.322  0.5394  0.3830 -0.0545
 2219TIP3    H128148   3.118   0.288  11.262 -1.0442  0.4555 -0.1448
 2219TIP3    H228149   3.151   0.141  11.274 -1.5383  0.2137 -1.5715
 2220TIP3   OH228150   0.317   5.142   0.648 -0.3153  0.6628 -0.5666
 2220TIP3    H128151   0.336   5.049   0.653 -0.9305  0.3390 -3.2577
 2220TIP3    H228152   0.222   5.148   0.653 -0.3583  1.0181 -1.6393
 2221TIP3   OH228153   2.218   5.876  15.310 -0.4828 -0.0548 -0.1023
 2221TIP3    H128154   2.135   5.890  15.265  1.0468  3.4447 -2.1299
 2221TIP3    H228155   2.224   5.949  15.372 -0.2177 -1.9457  2.1792
 2222TIP3   OH228156   3.780   6.430  13.157  0.7373 -0.4627 -0.1691
 2222TIP3    H128157   3.759   6.339  13.134 -0.2693 -0.2307 -0.2128
 2222TIP3    H228158   3.695   6.470  13.173  1.2325  0.2617  0.6710
 2223TIP3   OH228159   6.386   4.036  15.519 -0.0946  0.3245  0.0670
 2223TIP3    H128160   6.296   4.046  15.486  0.9536 -0.3457 -3.1617
 2223TIP3    H228161   6.395   3.943  15.536 -0.6788  0.6880  2.5421
 2224TIP3   OH228162   5.705   1.098   6.404 -0.2360  0.1716  0.0361
 2224TIP3    H128163   5.631   1.069   6.352  0.2316 -0.6795 -0.1535
 2224TIP3    H228164   5.719   1.189   6.377  0.3002 -0.3984 -1.6601
 2225TIP3   OH228165   5.518   6.166  13.054  0.0623 -0.2152 -0.0803
 2225TIP3    H128166   5.527   6.259  13.033 -0.3960 -0.1655 -0.0528
 2225TIP3    H228167   5.439   6.139  13.009  0.3218 -0.6519 -0.2805
 2226TIP3   OH228168   3.110   3.556   1.097 -0.4326 -0.3067  0.4232
 2226TIP3    H128169   3.058   3.614   1.042  1.8797  0.2096 -1.2367
 2226TIP3    H228170   3.074   3.469   1.079 -0.3715 -0.0256 -1.1311
 2227TIP3   OH228171   5.969   5.815  12.993  0.6462 -0.7855 -0.2869
 2227TIP3    H128172   5.982   5.721  12.988  1.9322 -0.7005  0.9468
 2227TIP3    H228173   6.044   5.852  12.946 -0.0919 -0.3738 -1.1576
 2228TIP3   OH228174   0.480   1.112   4.492 -0.3792 -0.2537  0.1012
 2228TIP3    H128175   0.517   1.033   4.531  1.2591  0.1084 -0.6831
 2228TIP3    H228176   0.440   1.159   4.565 -0.8182 -1.5123  0.6666
 2229TIP3   OH228177   3.958   5.284   2.130  0.0502  0.2053  0.5717
 2229TIP3    H128178   3.889   5.283   2.196 -0.0769 -1.4583  0.4227
 2229TIP3    H228179   3.983   5.192   2.119  0.6335  0.5445 -1.0991
 2230TIP3   OH228180   3.855   2.837  12.694 -0.4862  1.0416 -0.0004
 2230TIP3    H128181   3.834   2.783  12.617  0.0554 -1.6371  1.6594
 2230TIP3    H228182   3.847   2.777  12.768  1.7579  2.8534  1.7748
 2231TIP3   OH228183   1.597   1.544   1.427  0.0844  0.3081 -0.9849
 2231TIP3    H128184   1.634   1.455   1.425 -0.6824 -0.0398 -0.2016
 2231TIP3    H228185   1.613   1.579   1.340 -0.7064 -1.0639 -1.7051
 2232TIP3   OH228186   3.363   6.233   2.915 -0.8399 -0.4294 -0.0272
 2232TIP3    H128187   3.340   6.147   2.951  0.1566 -1.2920 -1.3801
 2232TIP3    H228188   3.296   6.250   2.849 -0.7930 -0.3735 -0.0608
 2233TIP3   OH228189   1.374   3.714  14.300  0.4472  0.3473  0.3441
 2233TIP3    H128190   1.449   3.745  14.351 -1.0160 -0.2359  2.9641
 2233TIP3    H228191   1.369   3.620  14.318  0.3008 -0.0042 -1.4387
 2234TIP3   OH228192   1.308   5.353  12.181 -0.2631 -0.0413 -0.1729
 2234TIP3    H128193   1.399   5.338  12.154  0.1528 -0.7596  1.5425
 2234TIP3    H228194   1.297   5.448  12.175  0.9109  0.1583  0.4691
 2235TIP3   OH228195   3.834   4.977  16.216  0.2933 -0.2215  0.0960
 2235TIP3    H128196   3.825   5.056  16.162  0.3441  0.2629  0.7895
 2235TIP3    H228197   3.875   5.007  16.296 -0.4693 -0.8009  0.7177
 2236TIP3   OH228198   3.127   5.307   1.833  0.4576  0.3361  0.5548
 2236TIP3    H128199   3.039   5.342   1.815  0.6920  0.8439  0.3997
 2236TIP3    H228200   3.165   5.369   1.895  0.1448 -0.6976  1.8052
 2237TIP3   OH228201   5.642   0.271   0.226  0.4822  0.0653 -0.1399
 2237TIP3    H128202   5.648   0.177   0.207  0.1630  0.0295 -0.0671
 2237TIP3    H228203   5.565   0.300   0.177  1.2083  0.5056 -1.0300
 2238TIP3   OH228204   3.120   5.140   0.560 -0.4414  0.3295 -0.4160
 2238TIP3    H128205   3.180   5.132   0.486  1.5007  1.6822  0.9610
 2238TIP3    H228206   3.104   5.050   0.587  1.2730 -0.0576 -0.6070
 2239TIP3   OH228207   3.389   6.648  12.252 -0.5891  0.0710  0.2146
 2239TIP3    H128208   3.331   6.609  12.317 -0.9367  0.1960 -0.0122
 2239TIP3    H228209   3.374   6.742  12.261 -0.7576  0.0801 -0.1533
 2240TIP3   OH228210   5.548   6.528   4.393  0.2471 -0.4028 -0.2212
 2240TIP3    H128211   5.454   6.518   4.405  0.2746  0.8341  1.1236
 2240TIP3    H228212   5.587   6.468   4.457  0.3589  1.7371  1.8046
 2241TIP3   OH228213   3.783   3.965  16.915  0.0421 -0.2215  0.3586
 2241TIP3    H128214   3.833   3.900  16.867  2.7790  1.2459  1.0999
 2241TIP3    H228215   3.811   3.955  17.006 -2.1257 -0.3266  1.0563
 2242TIP3   OH228216   5.043   2.890   0.639 -0.4093 -0.4514  0.4354
 2242TIP3    H128217   5.107   2.950   0.677 -0.1296 -0.2850 -0.2905
 2242TIP3    H228218   5.047   2.908   0.545 -2.4039  0.4458  0.4993
 2243TIP3   OH228219   2.915   2.931   4.889  0.5901 -0.1892 -0.7776
 2243TIP3    H128220   2.878   2.996   4.949  1.6520 -1.0960  0.8799
 2243TIP3    H228221   2.840   2.876   4.865  0.5581 -1.1397  1.4238
 2244TIP3   OH228222   5.710   1.719  14.477  0.0257 -0.4535  0.0830
 2244TIP3    H128223   5.744   1.782  14.413  1.6882 -2.5114 -1.1263
 2244TIP3    H228224   5.716   1.766  14.561  0.8435  1.1525 -0.8380
 2245TIP3   OH228225   1.015   5.455   5.339  0.1816  0.1137  0.5775
 2245TIP3    H128226   1.020   5.370   5.382 -0.9768 -0.3329 -0.1444
 2245TIP3    H228227   1.106   5.478   5.320  0.4911 -1.0198  0.6640
 2246TIP3   OH228228   5.010   2.301  11.197  0.2185 -0.3309  0.1758
 2246TIP3    H128229   5.096   2.306  11.155 -0.4982 -1.4643 -1.4748
 2246TIP3    H228230   5.026   2.254  11.279  1.1745 -0.4234 -0.0575
 2247TIP3   OH228231   5.582   3.451   4.398  0.0966  0.1585 -0.1868
 2247TIP3    H128232   5.618   3.500   4.472  0.7905 -0.6371  0.0203
 2247TIP3    H228233   5.598   3.359   4.421  1.4766 -0.0475 -1.8887
 2248TIP3   OH228234   5.920   1.309  16.733  0.2509 -0.5078 -0.0570
 2248TIP3    H128235   5.825   1.317  16.721 -0.2853 -0.8030  3.3339
 2248TIP3    H228236   5.945   1.389  16.781  1.4855 -1.0225  0.1818
 2249TIP3   OH228237   5.046   2.011  14.923 -0.1552  0.0946 -0.4442
 2249TIP3    H128238   5.024   1.978  15.010 -0.1173  0.5983 -0.2486
 2249TIP3    H228239   5.015   1.942  14.864  1.4522 -1.1102  0.0531
 2250TIP3   OH228240   5.407   4.917  14.271 -0.2934  0.0318  0.0402
 2250TIP3    H128241   5.375   4.922  14.362 -0.4456 -1.2764  0.0598
 2250TIP3    H228242   5.424   5.008  14.248 -0.3263  0.3948  1.3641
 2251TIP3   OH228243   0.407   1.511   0.623 -0.4157  0.5775  0.5309
 2251TIP3    H128244   0.352   1.539   0.697 -1.2759  1.0894 -0.2967
 2251TIP3    H228245   0.356   1.443   0.579  0.5268 -0.4380  0.9741
 2252TIP3   OH228246   5.561   3.913  15.772  0.0023  0.3714  0.0220
 2252TIP3    H128247   5.627   3.855  15.732 -0.8271 -0.4008 -0.2433
 2252TIP3    H228248   5.612   3.973  15.825  0.8211 -1.1561  1.0093
 2253TIP3   OH228249   1.756   2.530   1.944 -0.1868  0.2493  0.6708
 2253TIP3    H128250   1.727   2.511   1.855 -0.8907 -0.8844  1.1267
 2253TIP3    H228251   1.732   2.622   1.958 -3.0996 -0.4752  0.8152
 2254TIP3   OH228252   2.945   3.796  17.179  0.4968 -0.2468 -0.4534
 2254TIP3    H128253   2.898   3.795  17.096  2.3092 -0.7175 -1.5041
 2254TIP3    H228254   3.016   3.859  17.165  0.1296  0.5444  1.1457
 2255TIP3   OH228255   4.353   5.195  10.631 -1.0230 -0.5858 -0.1353
 2255TIP3    H128256   4.310   5.260  10.687  1.6101  0.3893  0.7870
 2255TIP3    H228257   4.435   5.175  10.675 -0.1828 -1.9199 -2.2251
 2256TIP3   OH228258   5.811   5.185   0.693 -0.4288 -0.0438 -0.2906
 2256TIP3    H128259   5.748   5.113   0.684  1.6523 -1.6342 -2.7318
 2256TIP3    H228260   5.777   5.254   0.636 -1.1470  0.0026  0.1859
 2257TIP3   OH228261   1.669   1.361   4.758 -0.2758  0.1815 -0.3197
 2257TIP3    H128262   1.679   1.443   4.711 -1.3530  0.3880 -0.2012
 2257TIP3    H228263   1.589   1.373   4.810 -1.0111 -1.3055 -1.0824
 2258TIP3   OH228264   6.568   3.033  13.079  0.5869 -0.5471 -0.2263
 2258TIP3    H128265   6.640   3.096  13.086  0.3187 -0.2668  0.0028
 2258TIP3    H228266   6.591   2.964  13.142 -0.7880  0.9624  2.0115
 2259TIP3   OH228267   4.052   0.058  14.203 -0.6392  0.6759  0.1838
 2259TIP3    H128268   4.031  -0.029  14.172 -0.4843  0.9126 -0.6011
 2259TIP3    H228269   3.971   0.092  14.240 -1.0771  0.7602 -0.8472
 2260TIP3   OH228270   1.976   4.106  15.640  0.1411  0.2733  0.3631
 2260TIP3    H128271   1.935   4.056  15.711  0.9546 -0.9338 -0.0009
 2260TIP3    H228272   2.057   4.140  15.679  0.5442 -0.3169  0.0508
 2261TIP3   OH228273   1.716   3.932   2.393 -0.0211 -0.1667 -0.1676
 2261TIP3    H128274   1.673   3.982   2.324 -0.3655 -3.1675 -2.2050
 2261TIP3    H228275   1.779   3.994   2.432 -1.3105  2.1899 -1.7323
 2262TIP3   OH228276   6.495   5.915   2.098  0.3474  0.0926 -0.1369
 2262TIP3    H128277   6.568   5.936   2.040  0.4912  1.3868  0.5010
 2262TIP3    H228278   6.512   5.824   2.125  2.2702  0.7035  0.7840
 2263TIP3   OH228279   6.551   5.007   3.125  0.4605 -0.2672  0.1032
 2263TIP3    H128280   6.483   4.978   3.064 -0.1815  1.0647  0.1880
 2263TIP3    H228281   6.595   4.926   3.150  0.4323 -0.8947 -1.7596
 2264TIP3   OH228282   4.799   6.219   3.786  0.2835  0.5529  0.1713
 2264TIP3    H128283   4.890   6.203   3.812  0.6617  1.5270 -0.5345
 2264TIP3    H228284   4.774   6.139   3.738  0.3011 -0.2998  1.5646
 2265TIP3   OH228285   2.038   5.616  11.702  0.5392 -0.2698  0.2136
 2265TIP3    H128286   2.068   5.551  11.766 -2.0027  0.4144  2.1756
 2265TIP3    H228287   2.063   5.700  11.740 -2.3973  0.2303  1.1834
 2266TIP3   OH228288   2.596   1.737   4.144 -0.1197 -0.2120  0.3409
 2266TIP3    H128289   2.538   1.795   4.094 -2.3659 -3.4898 -1.0387
 2266TIP3    H228290   2.592   1.771   4.233 -1.2996  1.8206 -0.4571
 2267TIP3   OH228291   5.189   5.251  12.758 -0.0017 -0.1794  0.0640
 2267TIP3    H128292   5.204   5.339  12.722  0.4553 -0.4303 -0.3577
 2267TIP3    H228293   5.252   5.243  12.830 -0.3485  0.0050  0.3933
 2268TIP3   OH228294   0.952   5.828  17.118  0.4529 -0.0461  0.0794
 2268TIP3    H128295   0.995   5.894  17.063 -2.7433 -0.6290 -3.3124
 2268TIP3    H228296   0.976   5.744  17.078  1.3250 -0.7514  2.0217
 2269TIP3   OH228297   0.921   4.071  13.902 -0.1361  0.1451  0.4201
 2269TIP3    H128298   0.979   3.996  13.915 -0.7341 -0.3358  0.3274
 2269TIP3    H228299   0.894   4.096  13.991  1.4458  1.3547  0.5773
 2270TIP3   OH228300   3.595   5.194  16.740  0.5708 -0.0145 -0.1915
 2270TIP3    H128301   3.556   5.167  16.657 -1.1109  0.3628  0.4574
 2270TIP3    H228302   3.620   5.285  16.726  1.0096 -0.1856 -0.5312
 2271TIP3   OH228303   5.852   2.547   2.830 -0.0797 -0.1512  0.2570
 2271TIP3    H128304   5.807   2.538   2.914  0.2724  1.7726  0.6842
 2271TIP3    H228305   5.929   2.492   2.838 -1.4479 -2.1492  0.1503
 2272TIP3   OH228306   5.320   1.939  13.730 -0.1551  0.4847  0.3322
 2272TIP3    H128307   5.375   1.861  13.719 -0.2048  0.7518 -2.2179
 2272TIP3    H228308   5.237   1.916  13.688 -0.6517  1.4385  0.7629
 2273TIP3   OH228309   1.957   4.093   5.650 -0.6087  0.0059 -0.1941
 2273TIP3    H128310   1.942   4.007   5.689 -0.2366 -0.6925 -1.5552
 2273TIP3    H228311   2.031   4.079   5.590  0.6512  1.6887  0.9179
 2274TIP3   OH228312   0.480   5.668   3.189  0.1128  0.2353  0.5583
 2274TIP3    H128313   0.451   5.579   3.167  0.8650  0.4358 -1.3390
 2274TIP3    H228314   0.441   5.685   3.274 -1.6519 -1.1873  0.0715
 2275TIP3   OH228315   6.313   5.208   5.216 -0.2070 -0.0171  0.0387
 2275TIP3    H128316   6.303   5.232   5.308  0.7999 -0.5432  0.2945
 2275TIP3    H228317   6.407   5.192   5.206 -0.3917 -0.4916 -0.9465
 2276TIP3   OH228318   5.130   1.003  16.403 -0.4035 -0.4108  0.0534
 2276TIP3    H128319   5.039   0.989  16.375 -0.6535 -0.1065  0.6976
 2276TIP3    H228320   5.130   1.092  16.438 -0.1891 -0.9156  1.3598
 2277TIP3   OH228321   3.163   6.222  16.856 -0.4479  0.1520  0.2636
 2277TIP3    H128322   3.115   6.207  16.937 -1.1174  0.5939 -0.0468
 2277TIP3    H228323   3.136   6.149  16.799  1.3210 -1.1066  1.0215
 2278TIP3   OH228324   5.334   3.395  11.647 -0.1991  0.6656 -0.3066
 2278TIP3    H128325   5.317   3.364  11.559 -1.3581  0.9354 -0.1819
 2278TIP3    H228326   5.252   3.380  11.695  0.3912  0.5913  0.6993
 2279TIP3   OH228327   3.684   0.327   3.479 -0.3380 -0.8533  0.1001
 2279TIP3    H128328   3.603   0.368   3.510 -0.5993 -1.5353  0.3328
 2279TIP3    H228329   3.679   0.237   3.511  1.3667 -0.4001  1.6787
 2280TIP3   OH228330   2.979   3.572  11.706  0.0637 -0.4170  0.0063
 2280TIP3    H128331   2.971   3.620  11.623 -0.4188 -1.9199 -0.8298
 2280TIP3    H228332   2.889   3.566  11.738  0.2985  0.5485  0.8847
 2281TIP3   OH228333   1.349   3.510   2.100  0.4929 -0.3770  0.7177
 2281TIP3    H128334   1.395   3.526   2.017 -0.2386 -0.1318  0.3592
 2281TIP3    H228335   1.343   3.415   2.106  2.1505 -0.4652  1.3746
 2282TIP3   OH228336   5.477   2.224   4.928  0.3069 -0.6883  0.3161
 2282TIP3    H128337   5.558   2.172   4.929  0.1863 -0.8833 -0.0001
 2282TIP3    H228338   5.447   2.224   5.018 -0.1723 -1.9147  0.1637
 2283TIP3   OH228339   3.936   0.980  15.255 -0.5311  0.7555  0.3796
 2283TIP3    H128340   3.944   0.956  15.348 -1.1373  2.7526  0.9803
 2283TIP3    H228341   3.852   0.942  15.229 -0.3096  0.0908  0.6085
 2284TIP3   OH228342   1.394   2.964   3.301  0.1065 -0.3573 -0.1558
 2284TIP3    H128343   1.326   2.970   3.233  1.0158 -0.4867 -1.0824
 2284TIP3    H228344   1.345   2.958   3.383 -1.0171 -1.1445 -0.8715
 2285TIP3   OH228345   6.020   0.964   3.997  0.4098  0.6251 -0.1005
 2285TIP3    H128346   5.977   1.049   4.000 -1.1238 -0.1592  0.7433
 2285TIP3    H228347   6.000   0.930   3.910 -4.5384 -1.6318  1.7428
 2286TIP3   OH228348   3.051   3.827  15.165  0.8353  0.6022  0.3944
 2286TIP3    H128349   3.023   3.738  15.187  3.3890 -0.8135 -1.8268
 2286TIP3    H228350   2.993   3.853  15.093 -0.0607  0.8377  1.1944
 2287TIP3   OH228351   4.317   2.052   4.299  0.0529  0.4187  0.5118
 2287TIP3    H128352   4.403   2.081   4.267  0.4040 -1.1255 -0.0180
 2287TIP3    H228353   4.304   2.101   4.380  1.7676  0.1868  0.9660
 2288TIP3   OH228354   4.157   1.747  11.513 -0.4089 -0.3427  0.2399
 2288TIP3    H128355   4.141   1.824  11.458 -1.9905 -0.3634  0.6261
 2288TIP3    H228356   4.104   1.678  11.473  0.6118 -1.0958  0.1881
 2289TIP3   OH228357   3.910   3.200   6.263  0.8247 -0.1876  0.4796
 2289TIP3    H128358   3.930   3.128   6.322  0.9007 -0.5634 -0.0039
 2289TIP3    H228359   3.993   3.246   6.251  0.7435  0.0823  0.9154
 2290TIP3   OH228360   4.013   4.536  14.281  0.0229 -0.0258 -0.3689
 2290TIP3    H128361   3.958   4.463  14.307 -1.3965  0.3868 -2.1095
 2290TIP3    H228362   3.983   4.610  14.334 -0.1389 -0.1456 -0.2971
 2291TIP3   OH228363   3.868   1.257   3.538  0.1708 -0.1900  0.4647
 2291TIP3    H128364   3.840   1.296   3.455 -0.0810  1.2569  1.2197
 2291TIP3    H228365   3.788   1.218   3.574 -0.1635  0.9556  0.9870
 2292TIP3   OH228366   2.675   3.436  14.926  0.0598 -1.3584  0.2084
 2292TIP3    H128367   2.657   3.363  14.985  1.2014  0.2349  2.6086
 2292TIP3    H228368   2.770   3.447  14.929 -0.2796  1.7235  1.8237
 2293TIP3   OH228369   6.151   4.532  12.959  0.3422 -0.1946  0.2491
 2293TIP3    H128370   6.213   4.460  12.955 -0.7233 -1.0755 -0.6366
 2293TIP3    H228371   6.179   4.591  12.888 -1.2560 -1.7735 -1.7544
 2294TIP3   OH228372   3.756   2.511   6.005 -0.0846  0.1142 -0.6452
 2294TIP3    H128373   3.835   2.460   5.991  0.2948 -0.1024  1.9769
 2294TIP3    H228374   3.782   2.580   6.067 -1.8814  0.1296  0.1407
 2295TIP3   OH228375   3.983   0.517   3.070  0.3586  0.2616  0.0128
 2295TIP3    H128376   4.075   0.506   3.047  0.4543 -0.3187  0.6672
 2295TIP3    H228377   3.937   0.452   3.017  0.1700  1.4229 -1.2921
 2296TIP3   OH228378   5.378   4.835   2.972 -0.3387 -0.3415 -0.1098
 2296TIP3    H128379   5.389   4.879   3.057 -1.3552  2.6026 -1.4095
 2296TIP3    H228380   5.284   4.838   2.956 -0.2280 -1.5112 -1.0139
 2297TIP3   OH228381   3.911   5.077  11.347  0.6321 -0.5951 -0.3274
 2297TIP3    H128382   3.890   5.012  11.280 -1.3769 -0.0582 -0.2639
 2297TIP3    H228383   3.894   5.033  11.430  0.9678 -0.5507 -0.2337
 2298TIP3   OH228384   0.403   2.042  12.332 -0.5710  0.0372  0.7191
 2298TIP3    H128385   0.344   2.111  12.303  0.1334  0.1630 -0.4503
 2298TIP3    H228386   0.488   2.067  12.296 -0.2616 -1.3070  0.5154
 2299TIP3   OH228387   1.116   2.005  15.552  0.3437 -0.3973 -0.3133
 2299TIP3    H128388   1.042   2.065  15.543 -0.0831 -0.9612 -0.5949
 2299TIP3    H228389   1.192   2.057  15.527  0.2076  0.5558  1.1953
 2300TIP3   OH228390   6.227   6.346   0.611 -0.0886  0.5179  0.7424
 2300TIP3    H128391   6.246   6.401   0.534  1.5518  2.2007  2.2896
 2300TIP3    H228392   6.312   6.309   0.635 -0.8810 -1.3442  0.7844
 2301TIP3   OH228393   5.534   3.891  12.718  0.2196 -0.8256 -0.2053
 2301TIP3    H128394   5.528   3.890  12.622  2.1239  0.5144 -0.3801
 2301TIP3    H228395   5.628   3.881  12.735  0.0923  0.7689  1.4635
 2302TIP3   OH228396   3.400   0.246  13.386 -0.0564 -0.3967 -0.5938
 2302TIP3    H128397   3.477   0.205  13.348  0.0260 -0.7596 -0.0383
 2302TIP3    H228398   3.402   0.336  13.353  0.7798 -0.3154 -0.3318
 2303TIP3   OH228399   2.202   5.381  12.087 -0.2313 -0.1710 -0.0517
 2303TIP3    H128400   2.155   5.433  12.153 -1.0519 -0.1560 -0.6515
 2303TIP3    H228401   2.227   5.301  12.133 -1.5208 -0.5191  0.0466
 2304TIP3   OH228402   1.062   0.337  12.817 -0.7067  0.1342 -0.6894
 2304TIP3    H128403   1.002   0.264  12.801 -0.6478  0.2658 -1.5393
 2304TIP3    H228404   1.009   0.403  12.861 -0.8183 -0.3345 -0.1258
 2305TIP3   OH228405   3.617   4.046  10.492 -0.0237 -0.1476  0.6755
 2305TIP3    H128406   3.526   4.037  10.463  0.5812  0.7749 -1.6686
 2305TIP3    H228407   3.658   3.962  10.469  0.1209  0.0854  0.0475
 2306TIP3   OH228408   6.232   1.420  14.379 -0.1603  0.1810 -0.2481
 2306TIP3    H128409   6.224   1.488  14.446 -0.3611  0.6252 -0.7206
 2306TIP3    H228410   6.295   1.358  14.416 -2.0417 -0.8213  1.3953
 2307TIP3   OH228411   3.487   4.875  12.748  0.3412  0.0949 -0.4816
 2307TIP3    H128412   3.515   4.818  12.820 -0.3985  1.1535  0.6500
 2307TIP3    H228413   3.516   4.962  12.774  1.5427  0.2571 -2.2500
 2308TIP3   OH228414   6.123   4.599   1.911 -0.1345 -0.4443 -0.2316
 2308TIP3    H128415   6.170   4.537   1.966 -1.5272 -1.0516  0.2984
 2308TIP3    H228416   6.180   4.612   1.835  0.0954 -2.5085 -0.4479
 2309TIP3   OH228417   3.052   5.598  17.027  0.4256  0.0810  0.5713
 2309TIP3    H128418   2.971   5.648  17.035  1.0722  1.0327  1.1823
 2309TIP3    H228419   3.035   5.538  16.954 -0.0329  1.8042 -0.7653
 2310TIP3   OH228420   5.591   6.537   1.187 -0.0342  0.8732 -0.0029
 2310TIP3    H128421   5.530   6.571   1.121  0.5090  0.2372 -0.8383
 2310TIP3    H228422   5.670   6.590   1.176 -1.1056  3.0655  2.4375
 2311TIP3   OH228423   3.568   4.743  15.929 -0.1865  0.3067  0.0796
 2311TIP3    H128424   3.488   4.701  15.959 -0.7750  0.7667 -0.8199
 2311TIP3    H228425   3.543   4.787  15.848  0.2746  2.8980  1.3046
 2312TIP3   OH228426   2.122   2.598  15.827  0.0881  0.0863  0.1434
 2312TIP3    H128427   2.113   2.559  15.913  0.2796 -1.7085 -0.6342
 2312TIP3    H228428   2.090   2.531  15.766 -0.3571  1.4488 -1.1611
 2313TIP3   OH228429   6.415   4.382   0.357 -0.3326 -0.2831 -0.1299
 2313TIP3    H128430   6.339   4.436   0.336 -0.9840 -2.0496 -2.5946
 2313TIP3    H228431   6.484   4.413   0.298  0.7081  0.9156  1.6857
 2314TIP3   OH228432   3.774   5.574  15.670  0.0795 -0.0494  0.0928
 2314TIP3    H128433   3.820   5.657  15.664  0.7980 -0.3582  1.1108
 2314TIP3    H228434   3.748   5.568  15.762 -1.5988 -0.0986 -0.3655
 2315TIP3   OH228435   1.474   4.079  13.274 -0.6338  0.0544  0.5394
 2315TIP3    H128436   1.492   4.032  13.355 -0.8254 -0.9460  0.0042
 2315TIP3    H228437   1.423   4.018  13.221 -1.8889  1.2846  0.3000
 2316TIP3   OH228438   1.424   2.238   4.937 -0.1081 -0.2216  0.8638
 2316TIP3    H128439   1.415   2.331   4.917 -1.4151 -0.2144  1.4203
 2316TIP3    H228440   1.512   2.215   4.907 -0.2007  0.9290 -0.3220
 2317TIP3   OH228441   4.904   6.317   6.046 -0.4879  0.1580  0.0180
 2317TIP3    H128442   4.809   6.330   6.038 -0.6379 -0.8132  0.1828
 2317TIP3    H228443   4.914   6.261   6.123  0.2223  0.2100 -0.0319
 2318TIP3   OH228444   3.842   2.560  15.510  0.2187 -0.3772 -0.3149
 2318TIP3    H128445   3.896   2.588  15.436 -0.3129 -2.2673 -1.4516
 2318TIP3    H228446   3.754   2.549  15.474  0.0330 -1.6789  0.4882
 2319TIP3   OH228447   2.663   0.571   2.945 -0.1024  0.2805  0.0022
 2319TIP3    H128448   2.664   0.559   3.040 -0.4773  0.6931  0.0576
 2319TIP3    H228449   2.571   0.560   2.920  0.1664 -1.0290 -0.4705
 2320TIP3   OH228450   0.465   2.913  11.090  0.0939  0.7121 -0.5955
 2320TIP3    H128451   0.390   2.868  11.129  0.3426 -1.1970 -2.1817
 2320TIP3    H228452   0.492   2.977  11.155 -1.4042 -0.2526  1.0188
 2321TIP3   OH228453   5.103   1.643  13.664 -0.3914  0.3751 -1.0706
 2321TIP3    H128454   5.100   1.732  13.628 -2.5895  0.1716 -1.4759
 2321TIP3    H228455   5.035   1.596  13.616 -0.8353 -0.8951  0.7498
 2322TIP3   OH228456   1.351   1.851  16.312 -0.6714  0.3451 -0.6349
 2322TIP3    H128457   1.276   1.830  16.256 -1.2609 -0.3998  0.4033
 2322TIP3    H228458   1.397   1.768  16.321 -0.3431  0.5564 -0.3787
 2323TIP3   OH228459   0.325   4.194   2.432  1.1016  1.0038 -0.4462
 2323TIP3    H128460   0.306   4.230   2.519  0.9168  2.5515 -1.1158
 2323TIP3    H228461   0.420   4.190   2.428  1.1132 -1.1535  0.6360
 2324TIP3   OH228462   4.651   2.185   5.291  0.3502 -0.1436  0.1084
 2324TIP3    H128463   4.683   2.095   5.296 -0.1982 -0.3873 -0.7386
 2324TIP3    H228464   4.631   2.207   5.382 -0.6674 -1.3038  0.1850
 2325TIP3   OH228465   2.946   2.226  16.283  0.4504  0.5428  0.3441
 2325TIP3    H128466   3.036   2.227  16.316  0.7832 -3.1370 -0.2525
 2325TIP3    H228467   2.892   2.210  16.361  0.7499 -1.9935  0.0813
 2326TIP3   OH228468   1.516   0.877   4.511  0.2109 -0.0494  0.8658
 2326TIP3    H128469   1.460   0.816   4.463  0.7359  1.4066 -1.7013
 2326TIP3    H228470   1.475   0.885   4.597 -1.7129 -1.4384  0.1101
 2327TIP3   OH228471   5.857   4.431   1.579 -1.6455  0.3186  0.6570
 2327TIP3    H128472   5.947   4.433   1.613 -2.2430 -0.1597  2.2626
 2327TIP3    H228473   5.869   4.425   1.484  0.0261  0.3410  0.8392
 2328TIP3   OH228474   1.796   4.419  12.466 -0.3574 -0.1451  0.1642
 2328TIP3    H128475   1.825   4.371  12.388  0.1014  1.5640 -0.7477
 2328TIP3    H228476   1.869   4.478  12.485 -1.4705  1.1438  0.4544
 2329TIP3   OH228477   3.100   1.001   6.642 -0.1351  0.1113  0.1192
 2329TIP3    H128478   3.161   1.066   6.608  1.0342 -0.8035  0.4366
 2329TIP3    H228479   3.155   0.928   6.670 -1.3793 -0.7663  0.3462
 2330TIP3   OH228480   5.214   3.696   5.416 -0.0435 -0.1760  0.2698
 2330TIP3    H128481   5.227   3.780   5.372  0.1549 -0.1672  0.3469
 2330TIP3    H228482   5.190   3.635   5.346  1.1363 -0.3648  0.0330
 2331TIP3   OH228483   2.438   1.856  15.069  0.2566  0.2477 -0.6753
 2331TIP3    H128484   2.349   1.828  15.047  0.4258  0.9797 -2.4033
 2331TIP3    H228485   2.429   1.950  15.085  0.8260  0.4593 -1.5638
 2332TIP3   OH228486   6.734   2.116  13.161 -0.3462 -0.6095 -0.0527
 2332TIP3    H128487   6.798   2.171  13.206 -0.0706  0.6852 -1.9270
 2332TIP3    H228488   6.653   2.127  13.210 -0.0208  0.6413  0.2302
 2333TIP3   OH228489   6.252   2.303  13.427 -0.1631 -0.2537 -0.2928
 2333TIP3    H128490   6.309   2.372  13.460  1.8433 -2.3605  0.8002
 2333TIP3    H228491   6.309   2.246  13.376 -1.8241 -0.9973 -1.3814
 2334TIP3   OH228492   2.441   4.128  15.673  0.5354  0.1154  0.3017
 2334TIP3    H128493   2.375   4.176  15.623  0.2576 -0.8674 -0.2986
 2334TIP3    H228494   2.421   4.146  15.764 -0.4493 -0.0292  0.1141
 2335TIP3   OH228495   5.019   5.017  16.656  0.4398 -0.3991  0.4324
 2335TIP3    H128496   5.101   4.987  16.696  0.9338 -0.7934 -0.8604
 2335TIP3    H228497   5.013   5.109  16.679  2.7748  0.3972 -2.0058
 2336TIP3   OH228498   6.729   6.746   5.145  0.5434 -0.0106  0.0690
 2336TIP3    H128499   6.748   6.701   5.227  0.2206 -1.1587 -0.4789
 2336TIP3    H228500   6.815   6.755   5.103  0.8003  1.1956  0.8377
 2337TIP3   OH228501   2.355   0.478   4.472  0.2552 -0.1337  0.2913
 2337TIP3    H128502   2.268   0.518   4.477  1.1399  2.3238 -2.3897
 2337TIP3    H228503   2.374   0.474   4.378  2.7254 -1.4158  0.7894
 2338TIP3   OH228504   2.113   2.561  10.498  0.1864  0.0104 -0.1614
 2338TIP3    H128505   2.039   2.591  10.550  0.9320 -0.0642  0.9641
 2338TIP3    H228506   2.155   2.641  10.467 -0.5678  0.0473 -1.0967
 2339TIP3   OH228507   5.047   3.042  12.603  0.6077 -0.2662  0.1273
 2339TIP3    H128508   5.007   3.128  12.592 -0.5001 -0.9161 -0.8996
 2339TIP3    H228509   5.011   2.988  12.533  1.8917 -1.3662  0.2778
 2340TIP3   OH228510   1.824   5.703   4.133  0.4133 -0.0632  0.4896
 2340TIP3    H128511   1.744   5.667   4.095  0.7971 -0.6829  0.2409
 2340TIP3    H228512   1.813   5.694   4.227  0.0609  0.1300  0.4641
 2341TIP3   OH228513   2.688   2.527  14.713  0.4507 -0.2344  0.0496
 2341TIP3    H128514   2.710   2.437  14.733  3.3558  0.2996 -0.5476
 2341TIP3    H228515   2.673   2.528  14.619 -0.8649 -0.3237  0.2493
 2342TIP3   OH228516   4.543   2.244  11.070 -0.1640  0.2063 -0.3805
 2342TIP3    H128517   4.459   2.274  11.106 -0.5665 -1.4840  0.1622
 2342TIP3    H228518   4.608   2.304  11.106 -0.9489  0.4884  0.5788
 2343TIP3   OH228519   0.428   6.450   4.936  0.0779 -0.4017  0.0993
 2343TIP3    H128520   0.442   6.407   5.020  0.9138  0.3547  0.3515
 2343TIP3    H228521   0.448   6.542   4.953 -1.7962  0.1309 -0.3931
 2344TIP3   OH228522   2.151   4.825   0.102 -0.2864 -0.3432  0.7828
 2344TIP3    H128523   2.236   4.866   0.089  0.2149 -1.6808 -0.2622
 2344TIP3    H228524   2.164   4.767   0.177  0.4291 -2.3461 -0.8253
 2345TIP3   OH228525   1.723   0.173  12.760 -0.4370  0.3014 -0.5570
 2345TIP3    H128526   1.712   0.079  12.752  0.7522  0.2464 -1.5886
 2345TIP3    H228527   1.806   0.192  12.718 -0.6708  1.8180 -0.3771
 2346TIP3   OH228528   2.010   2.716  17.213 -0.4341 -0.5256 -0.0213
 2346TIP3    H128529   2.086   2.738  17.265 -0.7482  2.8997 -0.8694
 2346TIP3    H228530   2.005   2.620  17.215  3.1955 -0.7343  0.9400
 2347TIP3   OH228531   1.519   0.643  15.095 -0.3706  0.2077 -0.3744
 2347TIP3    H128532   1.593   0.678  15.045  0.8294  0.3502  1.4758
 2347TIP3    H228533   1.488   0.716  15.148 -1.1322 -0.1554 -0.3036
 2348TIP3   OH228534   2.243   3.022  15.182 -0.4337 -0.0103 -0.2112
 2348TIP3    H128535   2.241   2.929  15.204 -1.0927 -0.0950 -0.6367
 2348TIP3    H228536   2.213   3.066  15.261 -1.5635 -0.2446 -0.4980
 2349TIP3   OH228537   1.087   5.335  15.187  0.4345  0.0726 -0.4023
 2349TIP3    H128538   1.046   5.288  15.115  0.0322 -0.7376  0.3347
 2349TIP3    H228539   1.062   5.426  15.175  0.1946 -0.0971 -1.1600
 2350TIP3   OH228540   1.981   3.633  11.897  0.2613  0.0653  0.0065
 2350TIP3    H128541   1.905   3.577  11.883  0.7662 -0.3186 -1.2295
 2350TIP3    H228542   2.056   3.574  11.897  0.7611  0.6924 -0.9335
 2351TIP3   OH228543   0.372   0.813   0.654 -0.4409  0.3234 -0.0922
 2351TIP3    H128544   0.299   0.833   0.596 -0.6519  0.2274  0.1400
 2351TIP3    H228545   0.357   0.867   0.731 -0.6209 -0.1833  0.2313
 2352TIP3   OH228546   5.030   1.651   5.637  0.1116  0.2314  0.1415
 2352TIP3    H128547   5.081   1.628   5.715  0.4697  0.3305 -0.0618
 2352TIP3    H228548   5.078   1.723   5.597 -0.6542  0.9112  0.4215
 2353TIP3   OH228549   2.587   2.527  12.688 -0.2566 -0.3849 -0.3648
 2353TIP3    H128550   2.639   2.457  12.648 -0.0430  0.7618 -2.1251
 2353TIP3    H228551   2.505   2.525  12.639 -0.1338  0.7940 -0.6130
 2354TIP3   OH228552   6.022   3.473   6.027 -0.1447 -0.2855  0.4356
 2354TIP3    H128553   5.967   3.479   6.106 -0.9732  2.5501 -0.2866
 2354TIP3    H228554   6.052   3.563   6.012 -1.2114 -0.4521 -3.3089
 2355TIP3   OH228555   2.888   1.642  12.851  0.1899 -0.0244 -0.3533
 2355TIP3    H128556   2.820   1.641  12.784  0.9070  1.4432 -1.1268
 2355TIP3    H228557   2.949   1.574  12.824  0.3305  0.3687 -1.0327
 2356TIP3   OH228558   6.048   6.337   5.148  0.0299  0.2977  0.1290
 2356TIP3    H128559   6.065   6.352   5.241  0.3121  0.3455  0.0681
 2356TIP3    H228560   6.076   6.247   5.133  0.8867  0.6018 -0.1270
 2357TIP3   OH228561   1.042   4.957   0.382 -0.1741 -0.2102  0.1077
 2357TIP3    H128562   1.047   4.916   0.296  2.1847 -1.4717  0.8138
 2357TIP3    H228563   1.131   4.950   0.418 -0.9604  0.8629  2.3870
 2358TIP3   OH228564   2.539   5.538   3.915  0.2171  0.3348  0.1243
 2358TIP3    H128565   2.560   5.456   3.870  0.8657  0.7028 -0.2396
 2358TIP3    H228566   2.444   5.533   3.929 -0.0861  0.4725 -1.7949
 2359TIP3   OH228567   4.980   5.301   3.663 -0.1119 -0.8950  0.6865
 2359TIP3    H128568   5.050   5.363   3.681 -1.3380  0.5182  0.7334
 2359TIP3    H228569   4.989   5.234   3.731  1.7306 -1.2152  0.1308
 2360TIP3   OH228570   6.617   2.129  15.100  0.4516  0.2498 -0.4634
 2360TIP3    H128571   6.570   2.171  15.028 -1.1623 -0.6455  0.0326
 2360TIP3    H228572   6.548   2.104  15.162  1.8712  1.4974  1.6536
 2361TIP3   OH228573   4.120   6.392  14.440  0.2118  1.0444  0.4043
 2361TIP3    H128574   4.026   6.404  14.447  0.0676  1.3786 -2.0151
 2361TIP3    H228575   4.132   6.332  14.367  1.8768  0.8448  0.8173
 2362TIP3   OH228576   5.482   3.296  11.853  0.0663 -0.5499  0.3702
 2362TIP3    H128577   5.461   3.358  11.922 -0.6446 -1.3812  0.9004
 2362TIP3    H228578   5.424   3.320  11.781 -0.6206 -0.9683  0.7817
 2363TIP3   OH228579   0.085   4.406   4.475  0.8717 -0.6092  0.5539
 2363TIP3    H128580   0.071   4.497   4.451  0.4246 -0.5009  1.2204
 2363TIP3    H228581   0.179   4.400   4.491  1.0193 -0.4495 -0.2392
 2364TIP3   OH228582   2.381   6.248   3.220 -0.3040  0.1759  0.2384
 2364TIP3    H128583   2.393   6.342   3.203  0.1270  0.2168  0.7414
 2364TIP3    H228584   2.468   6.217   3.243 -0.3664 -0.4464 -0.3628
 2365TIP3   OH228585   6.216   5.924   1.053  0.1324  0.1282 -0.3206
 2365TIP3    H128586   6.210   5.977   1.132  0.4167  0.4599 -0.5228
 2365TIP3    H228587   6.281   5.856   1.074 -0.6257 -0.4717  0.1269
 2366TIP3   OH228588   3.519   1.311   3.456 -0.4685 -0.1589  0.8608
 2366TIP3    H128589   3.521   1.215   3.458 -2.0116 -0.2173  0.2999
 2366TIP3    H228590   3.443   1.334   3.509 -0.0844  0.7724  1.0189
 2367TIP3   OH228591   3.923   1.401   0.859  0.0436  0.4529 -0.4672
 2367TIP3    H128592   3.850   1.431   0.914 -1.6823 -1.9956 -1.3185
 2367TIP3    H228593   3.966   1.333   0.911  0.2008  0.1744 -0.9572
 2368TIP3   OH228594   4.351   1.294   2.861 -0.6678 -0.3740 -0.1189
 2368TIP3    H128595   4.366   1.380   2.899  0.4628 -1.0069  0.9046
 2368TIP3    H228596   4.267   1.302   2.815 -0.0669  1.5564 -0.9255
 2369TIP3   OH228597   4.185   1.528   3.075 -0.4857  0.6295 -0.1333
 2369TIP3    H128598   4.231   1.465   3.132  0.0092  0.5775 -0.5847
 2369TIP3    H228599   4.111   1.478   3.040  0.2153  0.1300 -0.9169
 2370TIP3   OH228600   1.476   4.869   0.604  0.2442  0.8873  0.6781
 2370TIP3    H128601   1.558   4.836   0.567  0.0860  1.1666  0.0808
 2370TIP3    H228602   1.499   4.893   0.694  1.2419  2.5474 -0.0014
 2371TIP3   OH228603   4.483   3.010   4.418 -0.0500 -0.4279 -0.0301
 2371TIP3    H128604   4.393   3.039   4.434  0.3820  0.6429  0.5136
 2371TIP3    H228605   4.516   2.987   4.505  1.2367  2.2563  0.2146
 2372TIP3   OH228606   6.535   1.069  12.836 -0.5101 -0.4037 -0.1623
 2372TIP3    H128607   6.556   1.090  12.927 -2.2068 -0.7710  0.3404
 2372TIP3    H228608   6.540   0.974  12.831 -1.1812 -0.4433 -0.2307
 2373TIP3   OH228609   6.114   2.824  14.468 -1.0389 -0.3321  0.1732
 2373TIP3    H128610   6.108   2.819  14.372 -1.0355 -2.7186  0.2667
 2373TIP3    H228611   6.023   2.829  14.498 -0.9718  3.9551 -0.0485
 2374TIP3   OH228612   2.373   6.229  15.132  0.0371 -0.2594  0.3919
 2374TIP3    H128613   2.329   6.163  15.079 -1.3560  0.0872  1.0643
 2374TIP3    H228614   2.444   6.182  15.175 -0.6572 -1.2247  0.5112
 2375TIP3   OH228615   3.893   3.500   6.112 -0.8167  0.5672  0.0538
 2375TIP3    H128616   3.801   3.500   6.140 -0.8529 -0.3201 -0.0604
 2375TIP3    H228617   3.943   3.505   6.194 -0.9320 -1.3249  0.2551
 2376TIP3   OH228618   1.138   4.479  16.948  0.3927  0.0737  0.4055
 2376TIP3    H128619   1.103   4.567  16.960 -0.1209 -0.3029  1.6447
 2376TIP3    H228620   1.140   4.441  17.035  1.8933 -0.6716  0.0637
 2377TIP3   OH228621   2.734   4.963   1.789 -0.3214  0.2258 -0.4517
 2377TIP3    H128622   2.797   4.933   1.723 -2.4505 -0.8680 -2.0591
 2377TIP3    H228623   2.697   4.882   1.825 -1.0477  0.8539  0.2340
 2378TIP3   OH228624   3.259   2.881   1.158  0.4116  0.0188 -0.6271
 2378TIP3    H128625   3.226   2.812   1.101  2.4812 -0.5464 -1.2072
 2378TIP3    H228626   3.331   2.840   1.206  0.4573  1.2556  0.3951
 2379TIP3   OH228627   6.461   0.073   6.028 -0.7347 -0.1011 -0.9659
 2379TIP3    H128628   6.439   0.073   5.934 -1.5392 -0.8059 -0.7864
 2379TIP3    H228629   6.381   0.105   6.070  0.3968  2.4997 -0.6738
 2380TIP3   OH228630   4.027   0.642  14.514 -0.5524 -0.0108  0.1131
 2380TIP3    H128631   3.999   0.727  14.546 -0.3889 -0.3553  1.1699
 2380TIP3    H228632   3.952   0.584  14.531 -0.1972 -0.3487  0.5272
 2381TIP3   OH228633   5.937   1.758   1.076 -0.6517  0.3823  0.0149
 2381TIP3    H128634   5.889   1.712   1.007 -1.4953  0.4261  0.5599
 2381TIP3    H228635   6.020   1.712   1.082 -0.0406  1.1925 -1.9147
 2382TIP3   OH228636   6.052   1.342   3.445  0.2581 -0.0529  0.0550
 2382TIP3    H128637   6.014   1.429   3.432 -1.7473 -0.8682  0.3338
 2382TIP3    H228638   6.087   1.319   3.359 -1.4590 -0.0152 -0.6743
 2383TIP3   OH228639   3.007   2.929  14.688  0.8429 -0.5076 -0.1780
 2383TIP3    H128640   3.058   2.872  14.746 -0.2429 -0.1364  1.1617
 2383TIP3    H228641   2.970   2.996  14.746 -1.2371 -0.8261 -1.0876
 2384TIP3   OH228642   5.826   6.006   1.279 -0.2677  0.3693  0.5479
 2384TIP3    H128643   5.852   5.940   1.343  0.2094  0.5741  0.5732
 2384TIP3    H228644   5.881   5.989   1.203 -1.3727 -0.3496 -0.0946
 2385TIP3   OH228645   4.014   4.562  14.853 -0.1309 -0.0492  0.2491
 2385TIP3    H128646   3.938   4.505  14.839  0.1141 -0.1905 -0.5171
 2385TIP3    H228647   3.992   4.611  14.932 -0.1256 -1.5779  1.2362
 2386TIP3   OH228648   4.843   0.165   2.141 -0.5036 -0.9219 -0.5546
 2386TIP3    H128649   4.808   0.081   2.172 -0.3330 -0.9830 -0.5298
 2386TIP3    H228650   4.912   0.141   2.079 -1.7844 -0.8123 -2.0713
 2387TIP3   OH228651   5.642   5.837   5.746  0.3031  0.5404  0.7381
 2387TIP3    H128652   5.682   5.750   5.751  0.4777  0.5331 -0.5300
 2387TIP3    H228653   5.558   5.827   5.791  0.0235 -0.4792  0.0206
 2388TIP3   OH228654   0.294   2.365   3.857 -0.4236 -0.0642  0.1039
 2388TIP3    H128655   0.383   2.343   3.884 -0.3088  0.1854 -0.0724
 2388TIP3    H228656   0.295   2.460   3.845  0.1613 -0.4139 -3.1053
 2389TIP3   OH228657   0.936   5.577  16.910 -0.4537  0.1230 -0.6503
 2389TIP3    H128658   0.842   5.559  16.921 -0.1238 -2.9212 -2.5283
 2389TIP3    H228659   0.944   5.611  16.821  0.2835  0.0475 -0.6128
 2390TIP3   OH228660   6.504   4.830   6.170  0.3655 -0.5667  0.1938
 2390TIP3    H128661   6.595   4.801   6.174 -0.2212 -2.7059 -0.8337
 2390TIP3    H228662   6.454   4.756   6.204 -1.0518  0.0862 -0.4289
 2391TIP3   OH228663   2.634   4.136   1.843 -0.0751  0.8598 -0.2348
 2391TIP3    H128664   2.614   4.175   1.928 -1.6789  0.1054 -0.2530
 2391TIP3    H228665   2.709   4.078   1.860 -0.7952  0.2148  0.8083
 2392TIP3   OH228666   3.743   0.234  13.504 -0.3999 -0.2117 -0.3616
 2392TIP3    H128667   3.730   0.326  13.525 -1.7392 -0.7537  1.3054
 2392TIP3    H228668   3.819   0.207  13.556 -0.4161 -0.2137 -0.3387
 2393TIP3   OH228669   5.466   2.058   6.474  0.2963 -0.0223 -0.0120
 2393TIP3    H128670   5.553   2.049   6.436  0.2521  0.2948 -0.1966
 2393TIP3    H228671   5.439   1.969   6.495  1.2121  0.0032  1.2755
 2394TIP3   OH228672   0.470   6.468   2.293 -0.1627  0.4464  0.1432
 2394TIP3    H128673   0.473   6.385   2.340  0.8222 -0.0403 -0.7550
 2394TIP3    H228674   0.508   6.531   2.355 -0.4074  0.1277  0.6198
 2395TIP3   OH228675   0.761   0.318  12.070  0.5616 -0.3171 -0.5332
 2395TIP3    H128676   0.761   0.412  12.051 -1.8997 -0.0653  0.5548
 2395TIP3    H228677   0.842   0.286  12.031  2.3329  2.5731  0.5991
 2396TIP3   OH228678   5.308   4.789   0.388  0.0536 -0.4029  0.7903
 2396TIP3    H128679   5.369   4.820   0.322 -1.9057 -1.9430 -1.8068
 2396TIP3    H228680   5.311   4.857   0.457  0.6563  2.2259 -1.7284
 2397TIP3   OH228681   6.780   5.599  14.003  0.6638 -0.2293 -0.4967
 2397TIP3    H128682   6.750   5.646  13.925  1.1655  0.7412 -0.1145
 2397TIP3    H228683   6.875   5.591  13.991  0.5093 -1.6665 -0.8321
 2398TIP3   OH228684   1.363   5.457  12.731  0.1579 -0.1274  0.2184
 2398TIP3    H128685   1.350   5.542  12.689  1.9000  1.1058  2.0915
 2398TIP3    H228686   1.295   5.401  12.693 -2.0843  2.5422  0.1581
 2399TIP3   OH228687   2.440   3.929   0.511 -0.0307  0.1814  0.0091
 2399TIP3    H128688   2.457   3.888   0.596  2.5282  1.1731  0.0338
 2399TIP3    H228689   2.518   3.982   0.494  0.1508 -1.1128 -3.6448
 2400TIP3   OH228690   2.251   3.614  12.053  0.4177 -0.3861 -0.0888
 2400TIP3    H128691   2.191   3.604  12.127  1.1355  0.4324  0.6128
 2400TIP3    H228692   2.220   3.691  12.006  1.7874  0.9356  1.1275
 2401TIP3   OH228693   3.128   0.263  17.282 -0.2919 -0.2778 -0.4993
 2401TIP3    H128694   3.122   0.324  17.208 -1.3280  0.0470 -0.1561
 2401TIP3    H228695   3.101   0.179  17.245  0.0319 -0.2909 -0.7050
 2402TIP3   OH228696   1.498   1.852  17.193 -0.2984 -0.3180 -0.3207
 2402TIP3    H128697   1.494   1.942  17.159  0.0766  0.4750  1.6496
 2402TIP3    H228698   1.520   1.799  17.117  1.6450  1.5348 -1.1104
 2403TIP3   OH228699   3.673   0.521   3.934  0.1026 -0.0476 -0.4864
 2403TIP3    H128700   3.727   0.600   3.930  0.4536 -0.3334 -1.4957
 2403TIP3    H228701   3.669   0.500   4.027 -0.8234  1.7242 -0.1202
 2404TIP3   OH228702   1.782   5.266   5.864 -0.2182  0.2115  0.2697
 2404TIP3    H128703   1.811   5.226   5.946  0.2852 -0.0181 -0.0188
 2404TIP3    H228704   1.689   5.283   5.877 -0.2648 -0.3634  0.6727
 2405TIP3   OH228705   5.976   3.654  11.979 -0.2713 -0.8084  0.0662
 2405TIP3    H128706   5.981   3.571  12.026 -2.2151 -1.6082 -1.0846
 2405TIP3    H228707   6.047   3.648  11.914  0.7254 -0.7963  1.1283
 2406TIP3   OH228708   1.433   2.115  17.153 -0.5189 -0.2755  0.3668
 2406TIP3    H128709   1.353   2.101  17.103  0.4470  0.4896 -1.4745
 2406TIP3    H228710   1.467   2.198  17.119 -1.2441  1.7201  4.2674
 2407TIP3   OH228711   3.646   2.938   2.553 -0.2938 -0.2088 -0.0777
 2407TIP3    H128712   3.710   2.867   2.545  0.9714  0.5247  2.7624
 2407TIP3    H228713   3.680   3.007   2.497  0.9390 -0.1779  0.6801
 2408TIP3   OH228714   5.200   2.732  11.697 -0.0922 -0.1805 -0.1752
 2408TIP3    H128715   5.243   2.809  11.659 -1.1842 -0.5110 -2.1334
 2408TIP3    H228716   5.184   2.674  11.622 -1.6338 -1.1730  0.8924
 2409TIP3   OH228717   1.692   3.066  12.372 -0.0406 -0.2739 -0.3868
 2409TIP3    H128718   1.677   3.137  12.434 -0.0364 -0.2562 -0.4051
 2409TIP3    H228719   1.734   2.997  12.424 -0.8364 -0.6024 -0.1638
 2410TIP3   OH228720   6.165   6.331  11.828  0.4141 -0.0267 -0.0683
 2410TIP3    H128721   6.121   6.278  11.761  0.1636  1.4485 -1.1144
 2410TIP3    H228722   6.093   6.365  11.882  0.6588 -1.7488  1.3980
 2411TIP3   OH228723   4.812   4.993  12.155  0.2696 -0.0707 -0.2175
 2411TIP3    H128724   4.733   4.952  12.120  0.7553 -1.6617  0.4914
 2411TIP3    H228725   4.879   4.925  12.148  0.4691 -0.3472  3.4853
 2412TIP3   OH228726   4.829   0.485  10.748  0.0625  0.1970 -0.3016
 2412TIP3    H128727   4.835   0.400  10.705  1.6009 -0.5469  1.3263
 2412TIP3    H228728   4.781   0.468  10.829  0.1831  0.9120 -0.0750
 2413TIP3   OH228729   2.565   2.142   0.463 -0.1712 -0.6481 -0.0267
 2413TIP3    H128730   2.514   2.070   0.425 -1.7374  0.7162 -0.5560
 2413TIP3    H228731   2.617   2.175   0.390 -0.0574 -0.7150  0.0237
 2414TIP3   OH228732   6.024   5.807  16.065 -0.0734 -0.6538  0.2623
 2414TIP3    H128733   6.041   5.732  16.122  0.7181 -1.5267 -1.0951
 2414TIP3    H228734   5.933   5.796  16.038  0.2278 -1.4814 -0.4366
 2415TIP3   OH228735   3.319   1.484   5.197 -0.3283  0.2056  0.6358
 2415TIP3    H128736   3.332   1.533   5.279  0.3126  0.7422  0.2198
 2415TIP3    H228737   3.407   1.466   5.166 -0.5777  0.9658 -0.5153
 2416TIP3   OH228738   5.952   6.564  14.470  0.1890 -0.5405 -0.2408
 2416TIP3    H128739   6.007   6.581  14.394  0.0167 -0.2487 -0.3011
 2416TIP3    H228740   5.883   6.630  14.464 -0.1095 -0.8431 -0.1100
 2417TIP3   OH228741   6.089   5.204  12.011 -0.0710  0.1122  0.2676
 2417TIP3    H128742   6.026   5.270  11.982 -0.4483 -0.6656 -0.6877
 2417TIP3    H228743   6.171   5.228  11.967 -0.3330 -0.3398 -0.4785
 2418TIP3   OH228744   5.897   1.308   3.678  0.0659 -0.5028  0.9504
 2418TIP3    H128745   5.847   1.228   3.663 -0.2418 -0.1426  0.0198
 2418TIP3    H228746   5.955   1.315   3.602 -0.2060  0.3740  0.8102
 2419TIP3   OH228747   1.194   3.646  14.568 -0.1133  0.1281 -0.0784
 2419TIP3    H128748   1.276   3.658  14.615 -0.2556  1.4572 -0.1568
 2419TIP3    H228749   1.192   3.553  14.546  0.0329 -0.4826  2.4116
 2420TIP3   OH228750   0.568   5.980   5.097 -0.7417 -0.6660  0.1139
 2420TIP3    H128751   0.486   5.987   5.048 -0.6710 -0.5449  0.0135
 2420TIP3    H228752   0.611   5.903   5.060 -1.3147 -1.3803  0.9168
 2421TIP3   OH228753   3.017   4.889  16.437 -0.1310  0.0488 -0.0003
 2421TIP3    H128754   3.080   4.961  16.435  1.0418 -0.8583  1.9935
 2421TIP3    H228755   2.960   4.904  16.362  1.6252  1.6693 -1.0542
 2422TIP3   OH228756   4.898   6.405   5.257 -0.6411 -0.2136 -0.4341
 2422TIP3    H128757   4.811   6.445   5.255 -1.7092 -2.3058  1.1055
 2422TIP3    H228758   4.884   6.317   5.221  0.5231 -1.0934  1.1822
 2423TIP3   OH228759   6.327   0.889   3.577 -0.3822  0.1483 -0.1953
 2423TIP3    H128760   6.320   0.922   3.667 -0.7129  2.0110 -0.8733
 2423TIP3    H228761   6.409   0.927   3.544 -1.4977  1.5408 -1.4696
 2424TIP3   OH228762   0.507   0.884   1.947 -0.0177 -0.1897 -0.3436
 2424TIP3    H128763   0.514   0.793   1.976  1.6965 -0.1223 -0.4859
 2424TIP3    H228764   0.462   0.879   1.863 -0.1341 -0.8882 -0.2423
 2425TIP3   OH228765   1.345   6.150  16.599 -0.3653 -0.3896  0.5431
 2425TIP3    H128766   1.336   6.241  16.571  1.8423  0.1019  1.2962
 2425TIP3    H228767   1.270   6.134  16.656 -0.9820  0.8401  0.0784
 2426TIP3   OH228768   3.372   5.829  15.249  0.1758  0.5716  0.1164
 2426TIP3    H128769   3.357   5.845  15.343  2.1147 -0.8687  0.6976
 2426TIP3    H228770   3.291   5.787  15.219  0.0821 -0.2482  1.4655
 2427TIP3   OH228771   3.432   2.603   2.923 -0.2099 -0.7418  0.0363
 2427TIP3    H128772   3.478   2.531   2.879 -0.8633 -0.5844 -0.9114
 2427TIP3    H228773   3.477   2.682   2.893 -0.7504 -0.6248 -0.4687
 2428TIP3   OH228774   4.109   4.263  15.743 -0.1947  0.4320 -0.0758
 2428TIP3    H128775   4.151   4.280  15.659 -1.0089  0.9282 -0.3905
 2428TIP3    H228776   4.092   4.350  15.779  0.8757  0.2184  0.9680
 2429TIP3   OH228777   5.567   2.184   1.904  0.0806 -0.4119  0.7217
 2429TIP3    H128778   5.600   2.095   1.921  0.5645 -0.2550  0.5965
 2429TIP3    H228779   5.639   2.229   1.860 -0.2651 -0.0382  0.5353
 2430TIP3   OH228780   3.913   1.141   2.425  0.2923  0.0724  0.2989
 2430TIP3    H128781   3.836   1.134   2.482  0.3784 -1.5344  0.2543
 2430TIP3    H228782   3.877   1.153   2.337  0.1079 -0.1693  0.3410
 2431TIP3   OH228783   5.250   2.580  13.302 -0.4696 -0.1537  0.5282
 2431TIP3    H128784   5.195   2.591  13.225  0.0067 -1.8742 -0.0814
 2431TIP3    H228785   5.322   2.643  13.288 -0.5327 -0.2492 -0.2965
 2432TIP3   OH228786   4.291   1.105   5.690 -0.1936  0.2777  0.3026
 2432TIP3    H128787   4.202   1.087   5.658  0.5178  1.2740 -2.3664
 2432TIP3    H228788   4.347   1.046   5.638  1.0520  2.3507 -0.7663
 2433TIP3   OH228789   3.201   3.211   0.768 -0.2070 -0.3121  0.4814
 2433TIP3    H128790   3.226   3.276   0.702  0.3789  0.9581  1.9225
 2433TIP3    H228791   3.280   3.159   0.781  0.1874  0.4967  1.3747
 2434TIP3   OH228792   2.806   3.770  12.193 -0.0541 -0.0029  0.0792
 2434TIP3    H128793   2.867   3.767  12.266 -1.3530 -1.2276  1.1494
 2434TIP3    H228794   2.763   3.855  12.202 -0.0257 -0.0406  0.5988
 2435TIP3   OH228795   6.123   5.650  14.944  0.0770 -0.0414 -0.4474
 2435TIP3    H128796   6.155   5.655  15.034  0.9723 -0.7443 -0.7250
 2435TIP3    H228797   6.034   5.616  14.952 -0.2740  1.0178  0.2553
 2436TIP3   OH228798   2.324   3.426  15.219 -0.6209 -0.2521  0.4166
 2436TIP3    H128799   2.364   3.510  15.197 -1.5435 -0.1763 -1.0008
 2436TIP3    H228800   2.369   3.399  15.300  0.9396  0.7401 -0.0919
 2437TIP3   OH228801   6.199   6.632  16.671 -0.3489 -0.1066 -0.3011
 2437TIP3    H128802   6.294   6.619  16.671 -0.4197 -0.6094  0.4754
 2437TIP3    H228803   6.188   6.726  16.685  0.0074 -0.3080  1.4363
 2438TIP3   OH228804   6.770   3.410  15.187  0.3985  0.1459  0.0703
 2438TIP3    H128805   6.753   3.437  15.277  0.8847 -0.6459  0.4072
 2438TIP3    H228806   6.749   3.488  15.134 -0.2840  0.4849  0.8204
 2439TIP3   OH228807   2.558   2.119   5.480  0.3701  0.1574 -0.3981
 2439TIP3    H128808   2.645   2.097   5.513  0.4762  1.5991  0.3472
 2439TIP3    H228809   2.575   2.168   5.400  0.2853  1.3150  0.2854
 2440TIP3   OH228810   6.120   1.796   0.262 -0.1104  0.4567 -0.0659
 2440TIP3    H128811   6.205   1.839   0.261 -0.4783  1.1901 -0.2957
 2440TIP3    H228812   6.062   1.859   0.304 -0.2793 -0.5451  1.2225
 2441TIP3   OH228813   5.964   1.403   4.887 -0.0654  0.2152 -0.9923
 2441TIP3    H128814   6.057   1.383   4.886 -0.0225  0.4321 -1.2962
 2441TIP3    H228815   5.930   1.353   4.961  0.7828  2.3808  0.8815
 2442TIP3   OH228816   0.933   4.616  10.859 -0.3374  0.0453 -0.2705
 2442TIP3    H128817   0.870   4.655  10.920 -1.4805 -1.7189 -0.2665
 2442TIP3    H228818   1.015   4.611  10.908 -0.0330  2.8359 -0.4431
 2443TIP3   OH228819   4.895   3.839  13.973  0.0508 -0.3186 -0.6475
 2443TIP3    H128820   4.881   3.891  14.052 -1.1504 -0.8407 -0.5094
 2443TIP3    H228821   4.917   3.752  14.006 -0.9775 -0.6724 -0.8862
 2444TIP3   OH228822   4.966   4.179   4.210 -0.1079 -0.5327  0.2544
 2444TIP3    H128823   4.899   4.155   4.147 -0.9976 -0.1320  1.0243
 2444TIP3    H228824   4.992   4.268   4.185 -0.6325 -0.2830  0.5978
 2445TIP3   OH228825   1.993   0.103  16.277  0.5565 -0.6190  0.3484
 2445TIP3    H128826   2.007   0.188  16.318 -1.0162  1.2654 -2.8807
 2445TIP3    H228827   1.906   0.076  16.306 -0.6144  0.7796 -1.7651
 2446TIP3   OH228828   4.001   0.405   4.151 -0.1382  0.0751 -0.0859
 2446TIP3    H128829   4.043   0.489   4.133  2.6623 -1.3319 -0.3495
 2446TIP3    H228830   3.988   0.404   4.246  3.4293 -0.7839  0.4413
 2447TIP3   OH228831   4.410   3.810  11.468 -0.0314  0.1901 -0.7515
 2447TIP3    H128832   4.383   3.834  11.380 -1.2976  0.3036 -0.3438
 2447TIP3    H228833   4.335   3.765  11.505  1.0020 -1.1325 -0.2118
 2448TIP3   OH228834   2.639   1.514  11.292 -0.0977 -0.5317 -0.2837
 2448TIP3    H128835   2.729   1.538  11.310  0.2847 -1.7176 -0.5556
 2448TIP3    H228836   2.641   1.419  11.279 -1.3443 -0.5479 -0.4917
 2449TIP3   OH228837   4.783   4.741  13.733  0.0496  0.7260  0.2280
 2449TIP3    H128838   4.744   4.699  13.810  1.1082  0.2326  0.5080
 2449TIP3    H228839   4.797   4.668  13.672 -0.1673  1.0200 -0.1704
 2450TIP3   OH228840   2.931   3.393   0.104 -0.4960  0.3911  0.3155
 2450TIP3    H128841   3.013   3.345   0.111  0.3347  1.9407  1.6366
 2450TIP3    H228842   2.904   3.382   0.013  1.0995 -0.2506 -0.0959
 2451TIP3   OH228843   1.695   3.867  12.120 -0.3906 -0.3578  0.1589
 2451TIP3    H128844   1.645   3.789  12.097 -0.3901 -0.5621  0.8547
 2451TIP3    H228845   1.739   3.892  12.038  1.0036 -2.1007  0.3324
 2452TIP3   OH228846   5.833   3.247  10.740  0.6906 -0.0008  0.4868
 2452TIP3    H128847   5.823   3.307  10.814  0.6632  0.4926  0.0755
 2452TIP3    H228848   5.920   3.210  10.752  1.1096  0.8775  0.1674
 2453TIP3   OH228849   6.575   4.082  11.087 -0.4854  0.6210 -0.4767
 2453TIP3    H128850   6.665   4.086  11.055 -0.7987 -0.9762 -1.5730
 2453TIP3    H228851   6.536   4.164  11.055  0.6732  1.5455  0.3921
 2454TIP3   OH228852   1.427   0.357  14.672  0.0264 -0.1607  0.1079
 2454TIP3    H128853   1.468   0.373  14.587  3.7809  1.3226  2.0792
 2454TIP3    H228854   1.434   0.440  14.718  0.1815 -1.5941  2.7508
 2455TIP3   OH228855   6.102   0.755   0.606 -0.4552 -0.8092 -0.5213
 2455TIP3    H128856   6.143   0.678   0.645 -0.4918 -0.1800  0.7757
 2455TIP3    H228857   6.017   0.761   0.649 -0.0857  0.4765  0.0265
 2456TIP3   OH228858   0.230   2.629  15.924 -0.6168 -0.1914  0.0453
 2456TIP3    H128859   0.273   2.554  15.965  0.8511  0.7096  0.1881
 2456TIP3    H228860   0.157   2.591  15.875  0.0368 -1.6937  0.2149
 2457TIP3   OH228861   4.197   0.713   5.370  0.2942 -0.6946  0.1883
 2457TIP3    H128862   4.282   0.697   5.328  1.0686  0.1664  1.3891
 2457TIP3    H228863   4.132   0.689   5.303  1.4896 -0.2847 -1.1428
 2458TIP3   OH228864   4.782   2.288   5.939 -0.8419  0.6331 -0.0187
 2458TIP3    H128865   4.729   2.242   6.004 -0.3278 -2.7778 -1.8782
 2458TIP3    H228866   4.720   2.308   5.868 -0.4511  0.1226 -0.5077
 2459TIP3   OH228867   6.391   0.507  12.337 -0.3925  0.4523 -0.3048
 2459TIP3    H128868   6.299   0.489  12.359 -0.2303 -1.3629 -1.0170
 2459TIP3    H228869   6.396   0.495  12.242  0.5533  0.6571 -0.2838
 2460TIP3   OH228870   4.994   5.974  14.264 -0.1770  0.3207 -0.4498
 2460TIP3    H128871   4.946   6.011  14.190 -1.1177  1.6600  0.8072
 2460TIP3    H228872   4.931   5.913  14.304 -1.1547  2.6075  1.6278
 2461TIP3   OH228873   5.155   5.025  12.300 -0.1375 -0.2321 -0.0855
 2461TIP3    H128874   5.113   5.057  12.220 -0.1380  0.5681  0.2309
 2461TIP3    H228875   5.238   5.071  12.304  0.4093 -1.1964 -0.2680
 2462TIP3   OH228876   1.485   1.860  15.987  0.1678 -0.0111  0.2074
 2462TIP3    H128877   1.507   1.772  15.958 -1.0877 -0.4277  0.4995
 2462TIP3    H228878   1.569   1.899  16.012  0.5494 -1.7016  1.6748
 2463TIP3   OH228879   6.015   2.114   5.471 -0.1534  0.0614  0.3325
 2463TIP3    H128880   6.090   2.173   5.459  0.0517 -0.1864  0.3883
 2463TIP3    H228881   6.040   2.034   5.426 -0.2462 -0.1397  0.6346
 2464TIP3   OH228882   3.471   5.511   0.859 -0.0095 -0.2591  0.6035
 2464TIP3    H128883   3.519   5.586   0.894  0.0861 -0.6868  1.3908
 2464TIP3    H228884   3.454   5.535   0.768 -2.0916  1.7780  1.4824
 2465TIP3   OH228885   2.082   0.738  10.845  0.3966 -0.2480 -0.6668
 2465TIP3    H128886   2.043   0.825  10.857  0.0839 -0.6350  1.3484
 2465TIP3    H228887   2.057   0.690  10.925  3.2016 -1.1856 -0.3225
 2466TIP3   OH228888   5.674   1.277  11.655  0.2834  0.6632  0.0076
 2466TIP3    H128889   5.707   1.199  11.610  0.2152  0.7273 -0.1561
 2466TIP3    H228890   5.650   1.246  11.742 -1.7810  0.0326 -0.7454
 2467TIP3   OH228891   0.170   5.351  14.322 -0.2415  0.5521  0.3662
 2467TIP3    H128892   0.167   5.337  14.228 -0.0788  1.4034  0.2340
 2467TIP3    H228893   0.222   5.278  14.356 -1.3690 -0.4656 -0.0600
 2468TIP3   OH228894   2.725   5.754   2.464  0.0975  0.3220 -0.6716
 2468TIP3    H128895   2.689   5.748   2.376  1.9547  1.5390 -1.5375
 2468TIP3    H228896   2.799   5.693   2.465  0.7894  1.1514 -0.3298
 2469TIP3   OH228897   1.204   4.747  12.536  0.2497 -0.1632  0.5283
 2469TIP3    H128898   1.234   4.680  12.597  0.7883  0.7644  1.3068
 2469TIP3    H228899   1.283   4.773  12.489  0.0850  0.0667  0.3801
 2470TIP3   OH228900   5.118   5.056  15.355 -0.6871 -1.0066  0.4672
 2470TIP3    H128901   5.117   4.980  15.413 -1.0406 -1.2579  0.1350
 2470TIP3    H228902   5.092   5.022  15.270  1.1295 -0.9001 -0.1703
 2471TIP3   OH228903   1.349   0.393   3.028 -0.4201 -0.4697  0.0974
 2471TIP3    H128904   1.270   0.443   3.047 -0.7221 -1.4905  1.6625
 2471TIP3    H228905   1.319   0.320   2.973 -0.5254 -0.6545  0.3943
 2472TIP3   OH228906   3.040   5.772   0.242 -0.2356 -0.3310 -0.3837
 2472TIP3    H128907   3.081   5.827   0.174 -1.0225 -1.2056 -1.5947
 2472TIP3    H228908   2.983   5.713   0.193  0.2962 -1.9619  0.9485
 2473TIP3   OH228909   5.899   1.501  12.851 -0.1073  0.8762 -0.4712
 2473TIP3    H128910   5.974   1.501  12.910  0.8303 -1.0938 -1.5967
 2473TIP3    H228911   5.883   1.409  12.832 -1.5327  1.3794 -1.8608
 2474TIP3   OH228912   0.953   3.139   2.194  0.1068 -0.0158  0.1313
 2474TIP3    H128913   0.901   3.181   2.262  1.1306  2.1645 -0.4089
 2474TIP3    H228914   0.979   3.055   2.233  0.6435  1.1673  2.4286
 2475TIP3   OH228915   2.053   2.498  15.203 -0.3123  0.2729  0.4589
 2475TIP3    H128916   2.020   2.587  15.190  0.1593  0.6069  1.5119
 2475TIP3    H228917   2.000   2.463  15.275 -0.4760 -0.2898  0.0664
 2476TIP3   OH228918   3.502   0.217   1.052  0.4533 -0.2981 -0.1485
 2476TIP3    H128919   3.565   0.190   1.119  1.6710  0.2922 -1.0323
 2476TIP3    H228920   3.436   0.268   1.100 -0.0377 -1.9493  0.9785
 2477TIP3   OH228921   0.417   1.324  16.700  0.1089 -0.6064  0.1537
 2477TIP3    H128922   0.428   1.349  16.608  1.2545  0.6397  0.6102
 2477TIP3    H228923   0.486   1.258  16.715  0.0689 -0.6421  0.1808
 2478TIP3   OH228924   5.674   4.897  15.116 -0.4629 -0.0436 -0.4069
 2478TIP3    H128925   5.696   4.845  15.038 -0.3838  0.0397 -0.4404
 2478TIP3    H228926   5.620   4.838  15.169  1.4850 -0.9667  0.6115
 2479TIP3   OH228927   0.931   2.824  14.284  0.6698 -0.4778 -0.3791
 2479TIP3    H128928   1.025   2.835  14.298  0.9879 -0.7105 -2.2078
 2479TIP3    H228929   0.916   2.730  14.289  0.9479 -0.6520 -2.4095
 2480TIP3   OH228930   5.633   4.943  17.158 -0.0496  0.1885  0.1358
 2480TIP3    H128931   5.635   4.974  17.249  1.6939 -2.0936  0.9202
 2480TIP3    H228932   5.615   4.849  17.165  2.1306 -0.4180 -1.7216
 2481TIP3   OH228933   6.462   0.458  12.618  0.2781 -0.5045 -0.0109
 2481TIP3    H128934   6.548   0.444  12.578  0.2906 -1.1563  0.2442
 2481TIP3    H228935   6.408   0.492  12.546  0.8268  0.2041 -0.0952
 2482TIP3   OH228936   3.660   2.955  13.020 -0.6063  0.4615 -0.5937
 2482TIP3    H128937   3.567   2.970  12.999  0.3226  3.1651 -3.1371
 2482TIP3    H228938   3.690   2.894  12.953 -0.0959  1.1302 -0.9815
 2483TIP3   OH228939   4.152   6.536   3.911 -0.2659  0.7103 -0.3355
 2483TIP3    H128940   4.132   6.477   3.983 -2.0599  1.8903  0.1641
 2483TIP3    H228941   4.224   6.591   3.944  0.2675 -0.0748 -0.1914
 2484TIP3   OH228942   0.639   3.745  12.448  0.0953  0.7378  0.6480
 2484TIP3    H128943   0.663   3.656  12.424  0.0891  1.0145 -0.4342
 2484TIP3    H228944   0.593   3.779  12.371  1.1358  2.0647  0.5979
 2485TIP3   OH228945   0.961   6.045  15.309 -0.4404  0.0668  0.8633
 2485TIP3    H128946   0.873   6.080  15.300 -0.6624 -0.7923 -0.5380
 2485TIP3    H228947   0.948   5.950  15.317  0.3716 -0.1087  0.2033
 2486TIP3   OH228948   4.083   2.562  13.715  0.0737  0.4868  0.0446
 2486TIP3    H128949   4.057   2.581  13.805 -0.5190  0.9870 -0.2245
 2486TIP3    H228950   4.164   2.612  13.703  0.9728 -0.7868  0.7725
 2487TIP3   OH228951   0.957   3.258  15.069  0.5997 -0.9600  0.1294
 2487TIP3    H128952   0.967   3.286  14.978  1.7297  0.9971  0.8271
 2487TIP3    H228953   0.881   3.200  15.068  1.1545 -1.7063 -2.2133
 2488TIP3   OH228954   2.226   5.402  13.579 -0.6852 -0.4798 -0.4929
 2488TIP3    H128955   2.142   5.440  13.608  0.3958  1.5927  0.0542
 2488TIP3    H228956   2.229   5.316  13.621 -1.5476  0.3326  1.2905
 2489TIP3   OH228957   2.976   5.473  11.448  0.2345 -0.1950  0.6877
 2489TIP3    H128958   3.025   5.447  11.369  0.0312  0.8883  0.2013
 2489TIP3    H228959   2.940   5.391  11.481  1.3130 -0.8267  0.3234
 2490TIP3   OH228960   0.112   1.110  15.952  0.1369 -0.4384  0.2612
 2490TIP3    H128961   0.025   1.104  15.913  1.0160 -0.2255 -1.8256
 2490TIP3    H228962   0.171   1.116  15.877  1.8718  0.4385  1.6594
 2491TIP3   OH228963   6.815   6.058  11.990 -0.6498 -0.1597 -0.6411
 2491TIP3    H128964   6.846   6.086  11.904 -0.1827 -0.6846 -0.6444
 2491TIP3    H228965   6.720   6.066  11.984 -0.5513  0.9274 -0.8095
 2492TIP3   OH228966   6.064   2.183   1.676 -0.4433 -0.5102 -0.7428
 2492TIP3    H128967   6.057   2.277   1.693 -0.1402 -0.5984 -0.1297
 2492TIP3    H228968   6.107   2.147   1.753 -1.6830 -1.3466 -0.4309
 2493TIP3   OH228969   5.484   0.559   5.215 -0.0381 -0.0369 -0.3500
 2493TIP3    H128970   5.476   0.463   5.215  0.3602 -0.0815  1.0852
 2493TIP3    H228971   5.576   0.575   5.238  0.1380  0.6967 -1.4863
 2494TIP3   OH228972   6.500   3.530  11.880  0.0599 -0.2192 -0.2820
 2494TIP3    H128973   6.508   3.624  11.897  0.4501 -0.1890 -0.6231
 2494TIP3    H228974   6.589   3.502  11.860 -0.0737 -0.6420 -0.2897
 2495TIP3   OH228975   6.564   5.808   5.868  0.1337 -0.5456 -0.7081
 2495TIP3    H128976   6.520   5.770   5.944  1.3477 -0.4434  0.0602
 2495TIP3    H228977   6.596   5.732   5.819 -1.4923 -0.6441 -1.6463
 2496TIP3   OH228978   3.584   0.723  13.731 -0.1639  0.6080 -0.8151
 2496TIP3    H128979   3.502   0.712  13.778  0.9098  0.3941  1.0503
 2496TIP3    H228980   3.639   0.774  13.790  1.1402  0.5383 -1.9417
 2497TIP3   OH228981   1.129   4.309  12.736 -0.0345  0.1962  0.2985
 2497TIP3    H128982   1.141   4.229  12.685  0.3884  0.9215 -0.7611
 2497TIP3    H228983   1.034   4.321  12.740 -0.0628  0.4160 -0.7822
 2498TIP3   OH228984   2.380   3.126  14.955  0.5710 -0.0422 -0.1974
 2498TIP3    H128985   2.341   3.079  15.028  0.6099 -1.6976 -1.2171
 2498TIP3    H228986   2.472   3.099  14.955  0.6811  0.3220 -0.5777
 2499TIP3   OH228987   5.874   1.078  11.529 -0.1793  0.5464  0.4340
 2499TIP3    H128988   5.882   1.069  11.434 -0.1363 -1.2948  0.5954
 2499TIP3    H228989   5.810   1.012  11.554 -1.7163  2.3708  1.4650
 2500TIP3   OH228990   0.383   5.196  16.882  0.4711  0.1051 -0.0228
 2500TIP3    H128991   0.333   5.134  16.934  1.3827  0.1024  0.8603
 2500TIP3    H228992   0.437   5.141  16.825 -1.0403  0.1058 -1.4993
 2501TIP3   OH228993   0.612   0.386   4.335  0.2772 -0.0063  0.6808
 2501TIP3    H128994   0.546   0.426   4.279  0.3316  0.9048  1.2503
 2501TIP3    H228995   0.582   0.296   4.347  0.2816 -0.2075 -0.8185
 2502TIP3   OH228996   3.058   4.253   1.052  0.0542 -0.3932 -0.1122
 2502TIP3    H128997   3.120   4.191   1.090 -1.5152 -1.9395 -0.0074
 2502TIP3    H228998   2.988   4.259   1.117 -0.0781  1.0853 -0.3756
 2503TIP3   OH228999   0.984   6.127   0.415  0.0796 -0.2192  0.1193
 2503TIP3    H129000   0.931   6.204   0.440  2.1585  1.0739  0.6412
 2503TIP3    H229001   1.060   6.131   0.472  1.0442 -1.7313 -1.0393
 2504TIP3   OH229002   6.703   4.586  14.099  0.4966 -0.0683  0.2071
 2504TIP3    H129003   6.679   4.604  14.189  0.4505 -0.9820  0.3815
 2504TIP3    H229004   6.657   4.653  14.047 -0.4302 -0.2880  0.7444
 2505TIP3   OH229005   3.492   3.135  10.053  0.0613 -0.5106  0.0475
 2505TIP3    H129006   3.499   3.040  10.061  1.5218 -0.4398 -0.1284
 2505TIP3    H229007   3.401   3.155  10.072 -0.3742 -2.0062 -0.4280
 2506TIP3   OH229008   1.929   6.111  16.132 -0.0496  0.0750  0.4481
 2506TIP3    H129009   1.879   6.110  16.051  1.5277 -2.4571 -0.5356
 2506TIP3    H229010   1.866   6.083  16.199 -1.4129  2.3897  0.2090
 2507TIP3   OH229011   2.890   6.060   4.473  0.4651  0.2198  0.2847
 2507TIP3    H129012   2.929   6.009   4.402  1.3774  2.7945 -1.0953
 2507TIP3    H229013   2.894   6.001   4.549 -2.1910 -3.2554 -2.1274
 2508TIP3   OH229014   5.924   3.791   6.305  0.0456  0.3390 -0.0259
 2508TIP3    H129015   5.884   3.861   6.355  0.0060  0.4057 -0.1495
 2508TIP3    H229016   5.858   3.722   6.302 -0.0931  0.4814 -0.3006
 2509TIP3   OH229017   1.107   5.139  12.827 -0.1976  0.3013 -0.2129
 2509TIP3    H129018   1.183   5.081  12.815 -2.2969 -2.3561 -1.3017
 2509TIP3    H229019   1.113   5.203  12.757  1.4605  0.5980  0.1929
 2510TIP3   OH229020   2.817   5.160   2.345  0.6670  0.0656  0.4802
 2510TIP3    H129021   2.861   5.104   2.410 -1.9366 -2.2813  0.3405
 2510TIP3    H229022   2.841   5.123   2.261 -0.3564 -0.3386  0.3517
 2511TIP3   OH229023   5.619   2.779  15.322  0.6932  0.4566 -0.1603
 2511TIP3    H129024   5.619   2.847  15.390  0.3550 -1.5235  1.8926
 2511TIP3    H229025   5.527   2.756  15.311  0.7267  0.9558 -1.4814
 2512TIP3   OH229026   1.809   0.908   4.127  0.2399  0.0866  0.2293
 2512TIP3    H129027   1.750   0.834   4.107 -0.5077  0.5542  0.6890
 2512TIP3    H229028   1.776   0.942   4.210  0.2319  1.2954 -0.2677
 2513TIP3   OH229029   0.286   2.457  16.195 -0.3946  0.3890  0.0029
 2513TIP3    H129030   0.196   2.478  16.170 -0.9681  1.7050  3.0276
 2513TIP3    H229031   0.290   2.362  16.190 -1.2436  0.4313 -2.3725
 2514TIP3   OH229032   1.735   1.246  12.611  0.0882 -0.9977  0.0213
 2514TIP3    H129033   1.751   1.255  12.705 -0.0171 -0.4540 -0.0110
 2514TIP3    H229034   1.790   1.313  12.570 -0.2346 -0.9082 -0.2719
 2515TIP3   OH229035   1.539   4.143  13.908 -0.0099 -0.0238 -0.9371
 2515TIP3    H129036   1.445   4.139  13.892 -0.3691  2.1148  0.4254
 2515TIP3    H229037   1.553   4.088  13.985 -0.1831 -0.0546 -0.9272
 2516TIP3   OH229038   5.285   5.494  13.396  0.0593 -0.2418 -0.3531
 2516TIP3    H129039   5.359   5.547  13.366  0.4653 -0.8576 -0.4555
 2516TIP3    H229040   5.322   5.439  13.465 -0.0790 -1.1720 -0.9977
 2517TIP3   OH229041   5.610   2.800   4.103 -0.0905 -0.4489 -0.0231
 2517TIP3    H129042   5.589   2.708   4.086  1.7418 -0.6929 -1.1374
 2517TIP3    H229043   5.633   2.803   4.196  1.5614 -1.4630 -0.3936
 2518TIP3   OH229044   0.781   4.464  15.823  0.0627  0.1632  0.5055
 2518TIP3    H129045   0.876   4.468  15.818  0.1684 -1.9936  0.3136
 2518TIP3    H229046   0.762   4.459  15.916  0.1491  0.0936  0.5192
 2519TIP3   OH229047   4.459   1.976  10.536 -0.4370 -0.8377  0.0307
 2519TIP3    H129048   4.524   1.906  10.528 -0.2436 -0.6968  0.3329
 2519TIP3    H229049   4.502   2.052  10.497 -0.3783 -0.7168  0.3296
 2520TIP3   OH229050   2.766   0.185  16.861  0.3309 -0.3683  0.0505
 2520TIP3    H129051   2.720   0.244  16.921  0.1286  0.4520 -0.8866
 2520TIP3    H229052   2.782   0.239  16.783  0.3324 -1.4959 -0.7387
 2521TIP3   OH229053   5.508   3.617  11.758  0.2563 -0.5306  0.1981
 2521TIP3    H129054   5.451   3.668  11.814 -0.8716 -0.9126 -0.5852
 2521TIP3    H229055   5.454   3.543  11.730  1.5446 -1.5925  0.4928
 2522TIP3   OH229056   1.271   0.110   2.269  0.2882  0.6170  0.0346
 2522TIP3    H129057   1.181   0.112   2.302  1.6515  1.4113  3.9440
 2522TIP3    H229058   1.303   0.023   2.292  0.8988  0.7265 -0.3928
 2523TIP3   OH229059   3.365   1.465  14.832 -0.0275 -0.3732 -0.3600
 2523TIP3    H129060   3.323   1.403  14.893 -1.0286 -0.7004 -1.3596
 2523TIP3    H229061   3.458   1.443  14.836 -0.2672 -1.3699 -0.0396
 2524TIP3   OH229062   2.042   5.628  12.845  0.1344  0.2270  0.4722
 2524TIP3    H129063   2.018   5.562  12.911  1.5469  0.9042  1.6894
 2524TIP3    H229064   2.120   5.593  12.803 -0.2449  0.2185 -0.2248
 2525TIP3   OH229065   1.616   5.555   5.048 -0.0913  0.1965 -0.1480
 2525TIP3    H129066   1.550   5.509   4.996 -0.5143  0.6723 -0.0350
 2525TIP3    H229067   1.665   5.485   5.091 -0.4518 -0.1635 -0.3159
 2526TIP3   OH229068   0.508   4.453  10.853 -0.0879  0.3053  0.5752
 2526TIP3    H129069   0.583   4.420  10.805 -0.8472 -1.2416  0.4366
 2526TIP3    H229070   0.432   4.410  10.813 -0.9477  0.9253  1.4928
 2527TIP3   OH229071   3.439   2.400   4.784 -0.1253  0.5517 -0.0923
 2527TIP3    H129072   3.455   2.341   4.858 -1.5234  1.2962  0.8380
 2527TIP3    H229073   3.406   2.343   4.715  2.0459 -0.2891 -0.4778
 2528TIP3   OH229074   6.147   1.653   1.415  0.0839  0.5183 -0.5267
 2528TIP3    H129075   6.106   1.709   1.349  1.1753  0.7251 -1.0243
 2528TIP3    H229076   6.165   1.711   1.488 -2.8773 -0.0684  0.7726
 2529TIP3   OH229077   6.027   6.393   3.599 -0.4941  0.1756 -0.9309
 2529TIP3    H129078   5.942   6.375   3.559 -0.8836  0.7543 -0.3729
 2529TIP3    H229079   6.008   6.456   3.668  0.0379 -1.3239  0.6245
 2530TIP3   OH229080   1.772   3.140  15.491 -0.1917 -0.0935 -0.6955
 2530TIP3    H129081   1.773   3.158  15.585  1.5056 -1.1524 -0.4856
 2530TIP3    H229082   1.796   3.224  15.450 -1.9300  0.6378 -0.2549
 2531TIP3   OH229083   6.223   2.936   2.775 -0.2244  0.9234 -0.4604
 2531TIP3    H129084   6.179   3.017   2.801 -0.9186  0.7144 -0.9886
 2531TIP3    H229085   6.252   2.898   2.858 -2.5412  0.1993  0.0543
 2532TIP3   OH229086   2.369   5.122   4.657  0.2906 -0.5773  0.2448
 2532TIP3    H129087   2.423   5.052   4.619 -0.3620 -0.2858 -1.2779
 2532TIP3    H229088   2.430   5.195   4.671  0.3305 -0.2909 -1.3441
 2533TIP3   OH229089   1.694   5.907  16.183 -0.6678 -0.0611  0.0266
 2533TIP3    H129090   1.641   5.928  16.106 -1.5798 -2.5774 -0.0817
 2533TIP3    H229091   1.629   5.893  16.253  0.1541  2.5113  1.3938
 2534TIP3   OH229092   5.540   5.907  14.824 -0.2866 -0.5387 -0.4416
 2534TIP3    H129093   5.515   5.833  14.879 -0.4511 -0.0014  0.2148
 2534TIP3    H229094   5.460   5.958  14.815  0.1077  0.1730  0.0684
 2535TIP3   OH229095   6.802   1.077  12.717 -0.0984 -0.2878 -0.6911
 2535TIP3    H129096   6.775   1.147  12.777 -0.1448 -0.5958 -0.3570
 2535TIP3    H229097   6.738   1.082  12.645  0.2656  0.4128 -0.9722
 2536TIP3   OH229098   2.511   4.859  16.228 -0.2958  0.2471  0.3594
 2536TIP3    H129099   2.545   4.947  16.247  0.0972  0.1626  0.0469
 2536TIP3    H229100   2.417   4.865  16.248  0.0418  0.2487  1.9846
 2537TIP3   OH229101   5.070   4.536   2.329  0.0125  0.9354 -0.2584
 2537TIP3    H129102   5.137   4.497   2.273  0.1040  0.4767  0.1663
 2537TIP3    H229103   5.113   4.545   2.414 -0.2866  1.1596 -0.1328
 2538TIP3   OH229104   0.602   5.889   2.278 -0.6110  0.3209 -0.5844
 2538TIP3    H129105   0.638   5.970   2.243 -0.0410  0.2030 -0.2833
 2538TIP3    H229106   0.659   5.820   2.244 -1.8311 -0.0836 -1.8660
 2539TIP3   OH229107   3.288   1.563   3.064  0.0421  0.0875 -0.5373
 2539TIP3    H129108   3.205   1.571   3.017 -0.6988 -0.1167  0.7356
 2539TIP3    H229109   3.345   1.627   3.022 -1.6807  2.4348  0.5941
 2540TIP3   OH229110   1.797   0.539  10.706  0.2668 -0.5987  0.0530
 2540TIP3    H129111   1.869   0.601  10.720 -0.1885  0.1793 -0.9659
 2540TIP3    H229112   1.839   0.462  10.668  0.7013 -0.5217  0.3740
 2541TIP3   OH229113   3.333   6.758   0.593  0.9582 -0.2275 -0.0536
 2541TIP3    H129114   3.359   6.850   0.594  0.7665 -0.1363 -1.9093
 2541TIP3    H229115   3.237   6.760   0.596  0.9616 -0.3829  0.1997
 2542TIP3   OH229116   2.471   1.084  11.108 -0.3702  0.1421 -0.3205
 2542TIP3    H129117   2.441   1.046  11.026  0.0447  1.8816 -1.3198
 2542TIP3    H229118   2.416   1.044  11.175 -2.2251  0.3119 -1.6900
 2543TIP3   OH229119   3.549   4.003  17.149 -0.2157 -0.3048 -0.5109
 2543TIP3    H129120   3.636   3.967  17.170 -0.0299  0.7141  0.4916
 2543TIP3    H229121   3.489   3.959  17.209  0.2085  2.0368  1.7295
 2544TIP3   OH229122   5.364   0.255   5.484 -0.2740  0.4038 -0.6349
 2544TIP3    H129123   5.445   0.291   5.447 -0.4002  1.2679 -0.0844
 2544TIP3    H229124   5.374   0.268   5.578  0.0283 -1.7384 -0.3405
 2545TIP3   OH229125   5.570   0.086  15.934  0.6921 -0.2873 -0.0320
 2545TIP3    H129126   5.552   0.142  15.859  0.5425 -0.0628  0.1690
 2545TIP3    H229127   5.665   0.076  15.935  0.8751  1.3249  0.8904
 2546TIP3   OH229128   4.615   4.943   2.565 -0.0345  0.2490 -0.1395
 2546TIP3    H129129   4.668   4.914   2.491  0.3994 -1.3432  0.7627
 2546TIP3    H229130   4.583   5.029   2.540  0.7201  0.0428 -1.8592
 2547TIP3   OH229131   5.284   6.168   6.202 -0.2099  0.1444 -0.4738
 2547TIP3    H129132   5.290   6.096   6.265 -0.0381  1.2607  0.8132
 2547TIP3    H229133   5.275   6.125   6.117 -1.0663 -1.3880  0.3695
 2548TIP3   OH229134   2.149   6.000   2.635 -0.3182 -0.4619 -0.7330
 2548TIP3    H129135   2.070   6.052   2.620 -0.2808 -0.7148 -1.8164
 2548TIP3    H229136   2.217   6.065   2.654 -0.7162 -0.2308 -0.0412
 2549TIP3   OH229137   6.373   1.227   4.447  0.1652 -0.1104  0.3248
 2549TIP3    H129138   6.279   1.210   4.452  0.1268  0.1401  0.4732
 2549TIP3    H229139   6.399   1.242   4.538  0.2657  0.2465  0.2360
 2550TIP3   OH229140   5.409   4.453  14.650 -0.3021 -0.7988 -0.2772
 2550TIP3    H129141   5.426   4.415  14.564  0.3850  0.9015 -0.9105
 2550TIP3    H229142   5.347   4.525  14.633 -0.8817 -1.0300  0.7788
 2551TIP3   OH229143   6.414   4.640   2.127  0.3788  0.3594  0.2005
 2551TIP3    H129144   6.471   4.682   2.191 -1.3109  0.1665  1.8987
 2551TIP3    H229145   6.416   4.698   2.051  1.9312  0.9249  0.6472
 2552TIP3   OH229146   3.810   0.800   3.964 -0.1756 -0.5687  0.0665
 2552TIP3    H129147   3.778   0.891   3.964  1.0130 -0.1364  0.6623
 2552TIP3    H229148   3.829   0.782   4.056 -1.2264 -1.7329  0.0705
 2553TIP3   OH229149   3.605   6.216   3.187  0.3335 -0.6047 -0.2624
 2553TIP3    H129150   3.636   6.214   3.278  0.0233 -1.0650 -0.1681
 2553TIP3    H229151   3.653   6.289   3.148  0.4746 -0.4081  0.2687
 2554TIP3   OH229152   3.568   5.947   0.699  0.3572  0.4081  0.4360
 2554TIP3    H129153   3.619   6.017   0.660 -0.7359  0.6532 -0.5808
 2554TIP3    H229154   3.517   5.990   0.768  1.8690  0.0737  1.7924
 2555TIP3   OH229155   1.995   4.532   1.978 -0.2075  0.5188  0.3015
 2555TIP3    H129156   2.051   4.493   2.044  0.6187 -0.2626 -0.8523
 2555TIP3    H229157   1.907   4.498   1.997 -0.1413  1.0088  1.5269
 2556TIP3   OH229158   5.617   6.200  14.917  0.7930  0.3294  0.2897
 2556TIP3    H129159   5.603   6.171  15.007 -0.7458  1.2081  0.3643
 2556TIP3    H229160   5.533   6.181  14.874  0.2205  3.2950 -0.0054
 2557TIP3   OH229161   4.551   4.951   1.882 -0.3034 -0.1620  0.3328
 2557TIP3    H129162   4.478   4.889   1.880 -1.4172  1.0809  1.0904
 2557TIP3    H229163   4.508   5.037   1.891  1.2157  0.6786 -0.3098
 2558TIP3   OH229164   0.339   6.593  17.167  0.1690 -0.7161  0.1962
 2558TIP3    H129165   0.308   6.523  17.111 -1.8224  0.2750 -0.0063
 2558TIP3    H229166   0.369   6.661  17.107 -1.3167  0.0605  0.2916
 2559TIP3   OH229167   4.852   3.177   0.054  0.5322  0.6065 -0.1970
 2559TIP3    H129168   4.937   3.220   0.064  1.0911 -0.3359 -0.7354
 2559TIP3    H229169   4.789   3.248   0.053  1.3522  1.3477 -0.1560
 2560TIP3   OH229170   0.510   0.611   0.463 -0.2608  0.1308 -0.0516
 2560TIP3    H129171   0.541   0.686   0.412  0.9145 -0.7364 -0.6348
 2560TIP3    H229172   0.449   0.649   0.526  0.3115  1.5762 -0.3420
 2561TIP3   OH229173   0.759   5.854   4.635  0.7747 -0.4985 -0.5331
 2561TIP3    H129174   0.847   5.839   4.599  1.5603  3.8493 -0.7728
 2561TIP3    H229175   0.771   5.851   4.730  1.0383 -0.7068 -0.5718
 2562TIP3   OH229176   0.492   5.648  16.981 -0.4628  0.3775  0.2834
 2562TIP3    H129177   0.561   5.697  16.937 -0.3748  0.6004  0.6714
 2562TIP3    H229178   0.476   5.573  16.924 -0.8751  1.0617 -0.5190
 2563TIP3   OH229179   5.643   2.910   0.096  0.4544  0.2519 -0.3824
 2563TIP3    H129180   5.710   2.853   0.060  0.5327  0.9929 -1.4383
 2563TIP3    H229181   5.676   2.999   0.081  1.0117  0.5804  2.5023
 2564TIP3   OH229182   3.354   5.505  11.526 -0.0227  0.0897 -0.1430
 2564TIP3    H129183   3.361   5.555  11.607 -1.7107  1.1060 -0.6044
 2564TIP3    H229184   3.349   5.414  11.554  0.0419  0.3943  0.8568
 2565TIP3   OH229185   4.449   0.567  14.424 -0.0134 -0.7186 -0.0953
 2565TIP3    H129186   4.443   0.589  14.331  1.0864  0.2322  0.0459
 2565TIP3    H229187   4.437   0.650  14.470  0.2205 -1.0533  0.5845
 2566TIP3   OH229188   4.323   6.622   0.262  0.6089  0.0166  0.4082
 2566TIP3    H129189   4.229   6.619   0.280  0.1260  1.9762 -1.5210
 2566TIP3    H229190   4.356   6.538   0.294 -1.6845 -0.4827  1.6268
 2567TIP3   OH229191   2.902   5.510  13.294  0.0714 -0.0507  0.4589
 2567TIP3    H129192   2.888   5.601  13.270 -2.2072 -0.3681  0.4779
 2567TIP3    H229193   2.821   5.484  13.338 -0.1188 -2.6182 -1.2750
 2568TIP3   OH229194   2.991   2.384  15.776 -0.3556  0.5922 -0.0363
 2568TIP3    H129195   2.986   2.316  15.708  1.5136 -1.9984  2.3445
 2568TIP3    H229196   3.067   2.437  15.751 -0.1431  0.1201 -0.4032
 2569TIP3   OH229197   4.010   2.818  14.523 -0.0370 -0.4642  0.0399
 2569TIP3    H129198   4.020   2.756  14.596 -1.3884 -0.1527  0.5075
 2569TIP3    H229199   3.954   2.887  14.559 -0.3039 -0.0599 -1.1566
 2570TIP3   OH229200   0.054   1.438   4.151  0.0868  0.0430 -0.2623
 2570TIP3    H129201   0.128   1.377   4.156  1.3768  1.5764 -0.3079
 2570TIP3    H229202  -0.013   1.389   4.104  1.6171 -0.8378 -1.5888
 2571TIP3   OH229203   5.420   5.196  12.282  0.0173  0.7088 -0.0104
 2571TIP3    H129204   5.511   5.170  12.267 -1.2825 -3.2843 -1.6581
 2571TIP3    H229205   5.385   5.210  12.194 -2.1508 -2.4365  0.2734
 2572TIP3   OH229206   0.924   4.636  13.063  0.0419  0.3002  0.1839
 2572TIP3    H129207   0.948   4.728  13.075  0.0239  0.4054 -0.6109
 2572TIP3    H229208   0.919   4.601  13.153 -1.5730  1.4870  0.5627
 2573TIP3   OH229209   4.517   1.452  15.079  0.3825 -0.0255 -0.0291
 2573TIP3    H129210   4.612   1.461  15.080  0.4804 -0.7462 -1.1671
 2573TIP3    H229211   4.489   1.482  15.165  1.7873 -1.3892  0.9299
 2574TIP3   OH229212   5.241   4.700  12.619 -0.0448  0.1442  0.1306
 2574TIP3    H129213   5.330   4.715  12.649  0.2894  0.4768 -0.9951
 2574TIP3    H229214   5.185   4.734  12.689  0.7090  0.0214  0.7903
 2575TIP3   OH229215   2.337   3.147  16.936  0.5686  0.1220 -0.3084
 2575TIP3    H129216   2.292   3.067  16.962  1.1954 -0.4939 -1.1092
 2575TIP3    H229217   2.362   3.188  17.019 -1.5000  0.5134  0.1561
 2576TIP3   OH229218   2.814   5.415   3.759  0.1091  0.1207 -0.2278
 2576TIP3    H129219   2.745   5.404   3.693  0.2704 -2.4684 -0.0018
 2576TIP3    H229220   2.864   5.334   3.756  1.7046  1.0005  1.3071
 2577TIP3   OH229221   5.394   4.241  11.202 -0.4478 -0.2357 -0.1361
 2577TIP3    H129222   5.391   4.146  11.208  0.1222 -0.1699  1.3661
 2577TIP3    H229223   5.380   4.260  11.109 -1.0948 -1.7540 -0.3572
 2578TIP3   OH229224   6.781   2.200   4.425 -0.1651  0.1289  0.1205
 2578TIP3    H129225   6.732   2.132   4.379  1.9775 -0.9510 -0.5947
 2578TIP3    H229226   6.724   2.277   4.422 -2.2535 -1.3718  0.2063
 2579TIP3   OH229227   4.612   6.442  14.431 -0.2389 -1.2615  0.0076
 2579TIP3    H129228   4.567   6.369  14.388  0.5944 -1.0924 -1.1856
 2579TIP3    H229229   4.694   6.450  14.383  0.6343 -0.9407  1.5444
 2580TIP3   OH229230   3.722   5.781  13.967 -0.5820  0.4556  0.1265
 2580TIP3    H129231   3.735   5.759  13.875 -0.6345 -1.0725  0.4714
 2580TIP3    H229232   3.811   5.798  14.000 -0.6293  1.6799 -0.3630
 2581TIP3   OH229233   0.749   6.073   4.142  0.1478 -0.7794  0.4133
 2581TIP3    H129234   0.816   6.035   4.199  0.2500 -2.0827 -0.5437
 2581TIP3    H229235   0.674   6.014   4.151 -0.5564  0.1704  0.7887
 2582TIP3   OH229236   1.319   1.422   4.482  0.0990  0.4832 -0.4007
 2582TIP3    H129237   1.360   1.407   4.397  6.9411 -0.1851  2.7322
 2582TIP3    H229238   1.317   1.517   4.492  1.0207  0.5204 -0.5453
 2583TIP3   OH229239   1.446   3.023  10.961 -0.4143 -0.6440  0.2965
 2583TIP3    H129240   1.530   3.069  10.960 -1.4723  1.3985  1.6454
 2583TIP3    H229241   1.452   2.959  10.890  1.4063  1.0767 -1.1386
 2584TIP3   OH229242   4.359   3.515  11.555  0.6940 -0.0911 -0.3696
 2584TIP3    H129243   4.410   3.582  11.510 -0.2048  0.2867 -0.8361
 2584TIP3    H229244   4.420   3.442  11.567  2.1618  1.3747  1.5318
 2585TIP3   OH229245   2.523   6.309  16.742 -0.0613  0.0050  0.3790
 2585TIP3    H129246   2.593   6.322  16.806  0.4320  1.0499 -0.3634
 2585TIP3    H229247   2.443   6.335  16.787 -0.0958 -1.9021  1.4870
 2586TIP3   OH229248   5.475   5.690   0.345  0.0141  0.4052  0.1741
 2586TIP3    H129249   5.474   5.648   0.431  1.8639  0.9997  0.5076
 2586TIP3    H229250   5.448   5.781   0.363 -0.4645  0.3060 -0.0194
 2587TIP3   OH229251   3.048   2.302  13.142 -0.5164 -0.8720 -0.3933
 2587TIP3    H129252   3.002   2.327  13.062 -0.7423 -0.7901 -0.2378
 2587TIP3    H229253   2.980   2.266  13.199 -0.3829 -0.7774 -0.1750
 2588TIP3   OH229254   5.539   3.845  12.451 -0.0294 -0.4934 -0.8754
 2588TIP3    H129255   5.631   3.871  12.460  0.0592 -0.7227 -1.1138
 2588TIP3    H229256   5.542   3.761  12.406 -0.3122 -1.0820  0.1948
 2589TIP3   OH229257   4.944   5.218  12.523  0.0181 -0.4069  0.2702
 2589TIP3    H129258   4.937   5.297  12.577  0.1570 -1.4869  1.8960
 2589TIP3    H229259   4.990   5.247  12.444 -1.9280  1.6449 -0.1952
 2590TIP3   OH229260   5.268   3.104  15.905  0.0033 -0.3310  0.1707
 2590TIP3    H129261   5.353   3.098  15.948 -1.0569 -0.2323  2.3995
 2590TIP3    H229262   5.233   3.015  15.908 -1.2534  0.1739  2.1474
 2591TIP3   OH229263   0.596   0.327   4.710  0.6450 -0.1776  0.2885
 2591TIP3    H129264   0.603   0.405   4.765  0.0876 -0.0113  0.1169
 2591TIP3    H229265   0.685   0.290   4.710  0.9699  0.6044  0.1385
 2592TIP3   OH229266   6.745   2.095   1.424  0.3600 -0.1318 -0.2250
 2592TIP3    H129267   6.775   2.007   1.444  0.7325 -0.3354 -1.6123
 2592TIP3    H229268   6.756   2.144   1.505  1.1692 -1.0928  0.2423
 2593TIP3   OH229269   3.932   1.271  13.234  0.3390  0.8385 -0.0211
 2593TIP3    H129270   3.959   1.184  13.264 -2.2450  0.0338  0.0878
 2593TIP3    H229271   3.963   1.330  13.303  0.3599 -0.2331  0.9132
 2594TIP3   OH229272   2.252   5.111   0.118 -0.3248  0.1904  0.5500
 2594TIP3    H129273   2.339   5.077   0.097 -0.0280  0.5680  1.1401
 2594TIP3    H229274   2.234   5.077   0.205 -1.0459 -0.4082  0.1701
 2595TIP3   OH229275   0.783   2.176  12.506 -0.3157 -0.0357  0.0266
 2595TIP3    H129276   0.833   2.152  12.428 -0.5684 -1.7128  0.3722
 2595TIP3    H229277   0.849   2.197  12.572 -0.0887 -0.2212 -0.1413
 2596TIP3   OH229278   3.588   0.995  12.618  0.4226 -0.6467 -0.1892
 2596TIP3    H129279   3.585   1.090  12.613  1.3931 -0.6328 -0.5038
 2596TIP3    H229280   3.501   0.967  12.589 -0.1793  0.1681  0.7872
 2597TIP3   OH229281   1.345   4.582   3.718 -0.0691  0.2388 -0.7590
 2597TIP3    H129282   1.322   4.607   3.808  0.6753  0.7536 -0.6994
 2597TIP3    H229283   1.294   4.641   3.663  0.0104  0.4075 -0.6551
 2598TIP3   OH229284   1.371   3.810  17.018  0.4891 -0.5321  0.3582
 2598TIP3    H129285   1.329   3.895  17.031 -0.1696 -0.7839 -0.1350
 2598TIP3    H229286   1.461   3.832  16.993 -0.0719  0.0612 -1.2280
 2599TIP3   OH229287   1.693   1.059  11.114  0.2305 -0.0939  0.4799
 2599TIP3    H129288   1.621   1.013  11.071  1.1685 -0.7833 -0.3467
 2599TIP3    H229289   1.693   1.025  11.204  0.6372 -1.3849 -0.0061
 2600TIP3   OH229290   5.208   2.257  15.100  0.0057  0.0295  0.4957
 2600TIP3    H129291   5.199   2.162  15.109  2.0171  0.0148  3.2149
 2600TIP3    H229292   5.254   2.269  15.017  0.9839 -1.4753  0.7971
 2601TIP3   OH229293   5.790   6.221  15.778  0.3274  0.1733 -0.1783
 2601TIP3    H129294   5.867   6.264  15.815  0.6751 -1.0323  0.5150
 2601TIP3    H229295   5.718   6.282  15.796  0.7563  0.3237  1.0555
 2602TIP3   OH229296   2.761   1.410   5.456  0.3324  0.3515 -0.5178
 2602TIP3    H129297   2.724   1.364   5.532 -2.6852  1.2899 -1.3580
 2602TIP3    H229298   2.742   1.352   5.383 -0.4714  1.3755 -1.1213
 2603TIP3   OH229299   0.131   6.346   1.029 -0.3166 -0.6800 -0.4423
 2603TIP3    H129300   0.131   6.336   0.934 -0.7258 -0.2916 -0.4845
 2603TIP3    H229301   0.098   6.262   1.061 -0.1004 -0.8420 -0.6391
 2604TIP3   OH229302   1.124   0.303  15.195 -0.1958 -0.2861 -0.3758
 2604TIP3    H129303   1.098   0.250  15.120 -1.4170  1.0451 -0.9106
 2604TIP3    H229304   1.111   0.394  15.167  0.2974  0.2698  1.0961
 2605TIP3   OH229305   4.962   2.562  11.170 -0.0370  0.4980 -0.0513
 2605TIP3    H129306   4.866   2.564  11.171 -0.0901 -0.4660 -1.2907
 2605TIP3    H229307   4.983   2.469  11.162  1.0110  0.6899  0.4940
 2606TIP3   OH229308   0.971   0.198  13.148 -0.5538  0.1004 -0.3118
 2606TIP3    H129309   1.037   0.169  13.211 -0.9910  1.4431  0.7919
 2606TIP3    H229310   0.957   0.122  13.092  1.4499 -0.4130 -0.1661
 2607TIP3   OH229311   5.523   6.046   0.044  0.4036  0.3130  0.5286
 2607TIP3    H129312   5.546   5.963   0.085 -0.2507  0.2358  0.7413
 2607TIP3    H229313   5.444   6.075   0.090  0.0613  0.5698 -0.2044
 2608TIP3   OH229314   3.706   1.154   5.709  0.3949 -0.1037  0.0873
 2608TIP3    H129315   3.681   1.229   5.655 -1.8001 -1.3163 -0.6290
 2608TIP3    H229316   3.629   1.097   5.709  2.3775 -2.8715 -0.2725
 2609TIP3   OH229317   2.166   1.187   4.585 -0.2134 -0.0076  0.3367
 2609TIP3    H129318   2.109   1.199   4.510 -1.2166 -1.0987  0.9142
 2609TIP3    H229319   2.255   1.194   4.550 -0.6868  0.5117 -0.7613
 2610TIP3   OH229320   1.834   3.742  15.111 -0.1411 -0.4598 -0.2244
 2610TIP3    H129321   1.808   3.711  15.197  0.1072 -0.8632 -0.2907
 2610TIP3    H229322   1.761   3.720  15.054 -0.6834  0.6322  0.0602
 2611TIP3   OH229323   5.236   2.164   3.382 -0.3093 -0.6511 -0.2092
 2611TIP3    H129324   5.268   2.180   3.471 -1.7193 -0.1506  0.2226
 2611TIP3    H229325   5.286   2.089   3.351  2.2795  0.9618 -0.0880
 2612TIP3   OH229326   3.844   1.930   3.014  0.1973  0.1056  0.7369
 2612TIP3    H129327   3.927   1.923   3.061  0.6151  1.0251  0.1380
 2612TIP3    H229328   3.861   1.992   2.943 -0.6350 -0.7019 -0.1909
 2613TIP3   OH229329   1.856   5.711  12.660 -0.0670 -0.1292 -0.1691
 2613TIP3    H129330   1.771   5.701  12.702 -0.3068  3.4340  0.3005
 2613TIP3    H229331   1.919   5.690  12.729 -0.5160 -0.0164  0.2758
 2614TIP3   OH229332   4.745   0.523  16.627 -0.3145  0.5144 -0.1039
 2614TIP3    H129333   4.823   0.577  16.642  0.3148 -0.7590  1.2790
 2614TIP3    H229334   4.779   0.437  16.604 -1.3242  0.4195 -1.3294
 2615TIP3   OH229335   0.713   3.911   0.103  0.0605  0.0918  0.5642
 2615TIP3    H129336   0.675   3.977   0.045  3.3492  0.7226 -1.0182
 2615TIP3    H229337   0.732   3.836   0.046 -0.7035 -0.9928  1.7137
 2616TIP3   OH229338   4.601   1.309   3.794 -0.6225 -0.2128 -0.1864
 2616TIP3    H129339   4.559   1.223   3.805  0.3392 -0.7357 -0.4791
 2616TIP3    H229340   4.537   1.361   3.745 -1.4841 -0.5509  0.5731
 2617TIP3   OH229341   1.684   5.147  15.528  0.5457 -0.0656 -0.1951
 2617TIP3    H129342   1.675   5.240  15.544 -0.3785 -0.3229  0.7899
 2617TIP3    H229343   1.595   5.112  15.533  1.0850 -1.2838  1.2749
 2618TIP3   OH229344   2.563   2.854  13.149  0.9258 -0.4200  0.2570
 2618TIP3    H129345   2.586   2.938  13.109  0.1400  0.1085  0.9314
 2618TIP3    H229346   2.643   2.826  13.193  0.8279  0.5488  1.0518
 2619TIP3   OH229347   2.278   2.842  11.640  0.8419  0.8736 -0.0601
 2619TIP3    H129348   2.205   2.899  11.617 -2.5395 -2.6918  1.2957
 2619TIP3    H229349   2.278   2.775  11.572  0.9697 -0.8182  1.5786
 2620TIP3   OH229350   4.335   4.096  11.051  0.0555 -0.1410 -0.3353
 2620TIP3    H129351   4.316   4.126  11.139  1.1413 -0.3173 -0.0317
 2620TIP3    H229352   4.315   4.171  10.995 -2.8836 -0.7801 -0.1983
 2621TIP3   OH229353   5.329   1.951   4.090  0.6613  0.0665  0.4914
 2621TIP3    H129354   5.297   2.028   4.137 -1.4741  0.6498 -1.8399
 2621TIP3    H229355   5.382   1.987   4.019 -0.9823 -0.5735 -1.0725
 2622TIP3   OH229356   6.650   4.443  11.259 -0.2980 -0.8238  0.2551
 2622TIP3    H129357   6.670   4.507  11.328 -0.3966 -0.0175 -0.4579
 2622TIP3    H229358   6.649   4.358  11.305  1.7304 -0.5443  0.8754
 2623TIP3   OH229359   1.158   3.201   5.232 -0.4090 -0.3150 -0.3612
 2623TIP3    H129360   1.105   3.202   5.152 -1.0840 -1.1978  0.0686
 2623TIP3    H229361   1.135   3.283   5.276  1.1523  0.9477 -1.8185
 2624TIP3   OH229362   6.722   4.953   2.078  0.5995  0.2707  0.4327
 2624TIP3    H129363   6.735   4.981   2.169 -2.5613  1.7019  0.5345
 2624TIP3    H229364   6.721   5.034   2.028  2.7259 -0.5396 -0.9945
 2625TIP3   OH229365   6.333   1.482  15.486  0.5637  0.1213 -0.2423
 2625TIP3    H129366   6.331   1.529  15.402  1.2908 -0.9187 -0.8634
 2625TIP3    H229367   6.411   1.427  15.480  0.3887 -0.2634  0.9610
 2626TIP3   OH229368   2.060   4.840   1.253 -0.2689  0.5974  0.4202
 2626TIP3    H129369   2.041   4.877   1.166 -1.3082  2.2661  1.3410
 2626TIP3    H229370   1.974   4.835   1.296  0.3402  0.4774  1.6318
 2627TIP3   OH229371   2.944   2.775   2.889 -0.3211 -0.0363  0.4469
 2627TIP3    H129372   3.037   2.766   2.908 -0.6651 -0.2961  2.1208
 2627TIP3    H229373   2.917   2.852   2.938 -0.5229  1.3959 -1.8855
 2628TIP3   OH229374   4.527   0.534  12.798  0.1600  0.6159 -0.2030
 2628TIP3    H129375   4.436   0.515  12.823  0.6284 -1.0452  0.2883
 2628TIP3    H229376   4.538   0.491  12.713  1.4911 -2.1415  1.3236
 2629TIP3   OH229377   5.438   3.322  10.716 -0.7170  0.0054  0.0534
 2629TIP3    H129378   5.345   3.342  10.704 -0.2444  2.7196  0.5127
 2629TIP3    H229379   5.449   3.315  10.810 -0.6421 -1.4488 -0.0493
 2630TIP3   OH229380   1.676   0.295   3.735  0.0960 -0.1075 -0.1377
 2630TIP3    H129381   1.680   0.390   3.744  0.9062 -0.1942  0.3704
 2630TIP3    H229382   1.630   0.281   3.651 -1.7172  0.7077  0.6828
 2631TIP3   OH229383   2.578   2.872   5.158 -0.1781  0.1519  0.0713
 2631TIP3    H129384   2.540   2.785   5.151  2.2444 -1.0602  1.0818
 2631TIP3    H229385   2.657   2.859   5.212  0.6601  2.8206 -0.4238
 2632TIP3   OH229386   4.889   4.793   5.847 -0.1111 -0.1958  0.1263
 2632TIP3    H129387   4.879   4.702   5.874  0.6651 -1.0474 -2.2931
 2632TIP3    H229388   4.877   4.844   5.927  1.3854 -2.5285  1.8865
 2633TIP3   OH229389   5.819   4.193  17.101  0.5149 -0.3612  0.1433
 2633TIP3    H129390   5.817   4.102  17.131  0.8727 -0.9982 -1.7019
 2633TIP3    H229391   5.741   4.202  17.047  0.2728  0.5550  0.6320
 2634TIP3   OH229392   0.862   3.398   0.629  0.4669  0.4863 -0.1000
 2634TIP3    H129393   0.930   3.395   0.697 -1.2475  0.6146  1.6669
 2634TIP3    H229394   0.864   3.311   0.589  1.2077  0.2609  0.4077
 2635TIP3   OH229395   0.853   2.296  14.282 -0.0902  0.1925 -0.2342
 2635TIP3    H129396   0.871   2.203  14.266 -0.3230 -0.0504  0.8180
 2635TIP3    H229397   0.875   2.340  14.200  1.5913 -0.5823 -0.2205
 2636TIP3   OH229398   6.494   6.186   5.146 -0.0052 -0.1524  0.4360
 2636TIP3    H129399   6.511   6.113   5.086  0.3384  1.2044 -1.1241
 2636TIP3    H229400   6.559   6.252   5.123 -1.0939  1.1481  1.0138
 2637TIP3   OH229401   5.184   0.946   2.542  0.6397  0.1369 -0.1859
 2637TIP3    H129402   5.177   1.011   2.472 -0.2688 -0.6836 -0.8661
 2637TIP3    H229403   5.094   0.916   2.557  0.5186  1.7135  2.7133
 2638TIP3   OH229404   0.131   0.254   0.422 -0.3422  0.0163  0.4982
 2638TIP3    H129405   0.069   0.279   0.352 -0.5419 -0.1967  0.5982
 2638TIP3    H229406   0.088   0.282   0.503 -0.6682 -0.8304  0.6310
 2639TIP3   OH229407   2.316   5.626  12.783 -0.1562 -0.6000  0.1628
 2639TIP3    H129408   2.299   5.715  12.812 -0.0814 -0.3415 -0.5758
 2639TIP3    H229409   2.353   5.582  12.860  0.2318  0.1243  0.3946
 2640TIP3   OH229410   3.819   3.708   4.813 -0.3288  0.1627  0.1662
 2640TIP3    H129411   3.911   3.683   4.823 -0.1688  0.3706 -0.7769
 2640TIP3    H229412   3.811   3.788   4.864  0.9707  2.3357 -2.9048
 2641TIP3   OH229413   4.764   3.892  15.841 -0.5718 -0.6723  0.2741
 2641TIP3    H129414   4.711   3.968  15.816  0.8867  0.5196  0.7835
 2641TIP3    H229415   4.700   3.828  15.872 -1.9862 -0.3542 -1.8492
 2642TIP3   OH229416   2.701   6.450  12.524 -0.6324 -0.4362  0.0898
 2642TIP3    H129417   2.775   6.448  12.464 -0.1526 -0.5229  0.6813
 2642TIP3    H229418   2.739   6.476  12.608 -1.4520  0.6843  0.1301
 2643TIP3   OH229419   2.497   0.409  16.795 -0.3335 -0.3515 -0.3783
 2643TIP3    H129420   2.483   0.495  16.835  1.7243 -0.1596 -0.0163
 2643TIP3    H229421   2.583   0.415  16.754  0.9269 -2.9743  1.6756
 2644TIP3   OH229422   4.523   2.180  16.401  0.0674 -0.9254  0.7308
 2644TIP3    H129423   4.568   2.172  16.486  0.1284 -0.4290  0.7446
 2644TIP3    H229424   4.462   2.252  16.413  0.5721 -0.3939  0.1336
 2645TIP3   OH229425   4.549   0.566   5.047 -0.2271  0.5439 -0.2421
 2645TIP3    H129426   4.620   0.624   5.075 -0.6778  0.5619  0.8938
 2645TIP3    H229427   4.497   0.619   4.987 -0.5099  1.2525  0.6143
 2646TIP3   OH229428   5.254   0.683   5.318  0.0167 -0.2969  0.3026
 2646TIP3    H129429   5.267   0.645   5.405 -0.1633 -0.6552  0.1746
 2646TIP3    H229430   5.320   0.640   5.263 -2.4762 -3.0872 -0.6403
 2647TIP3   OH229431   6.517   2.063  13.998  0.5036 -0.1971  0.1562
 2647TIP3    H129432   6.477   1.979  13.978 -2.3323  1.2475 -0.6487
 2647TIP3    H229433   6.556   2.052  14.085  0.4946 -2.4146 -0.1042
 2648TIP3   OH229434   2.635   4.009  12.194 -0.0470  0.3937  0.6626
 2648TIP3    H129435   2.624   4.104  12.185 -0.2709  0.3873  0.8660
 2648TIP3    H229436   2.629   3.994  12.289 -2.3722 -0.1291  0.4513
 2649TIP3   OH229437   3.064   2.418  14.066 -0.0599 -0.8595 -0.2220
 2649TIP3    H129438   3.069   2.505  14.106 -1.6892 -1.0598  0.4577
 2649TIP3    H229439   3.048   2.436  13.973  0.5651 -0.4307 -0.2514
 2650TIP3   OH229440   5.257   0.782   4.179  0.0801  0.5610  0.3797
 2650TIP3    H129441   5.351   0.777   4.196 -0.4753 -2.2282  3.1174
 2650TIP3    H229442   5.237   0.704   4.128 -0.7244  1.3323 -0.5146
 2651TIP3   OH229443   4.599   3.211  15.118  0.1826 -0.3663  0.6519
 2651TIP3    H129444   4.649   3.293  15.115 -2.0131  1.0212  0.6870
 2651TIP3    H229445   4.657   3.150  15.163  2.2864  0.8685 -0.3050
 2652TIP3   OH229446   4.296   3.948   1.859  0.0478 -0.2769 -0.0928
 2652TIP3    H129447   4.262   3.859   1.861 -1.5467  0.2939 -0.5219
 2652TIP3    H229448   4.269   3.982   1.774  0.1345  0.8066  0.3035
 2653TIP3   OH229449   6.168   2.803  16.983  0.5177  0.0572  0.8321
 2653TIP3    H129450   6.150   2.714  16.951  2.1939  0.1676 -0.5271
 2653TIP3    H229451   6.089   2.852  16.964  0.4907 -0.5500 -0.7646
 2654TIP3   OH229452   6.741   2.788  15.721 -0.2125 -0.4837  0.5107
 2654TIP3    H129453   6.684   2.768  15.646  1.7574 -0.7580 -0.9650
 2654TIP3    H229454   6.747   2.706  15.769 -1.3920 -0.3411  0.9121
 2655TIP3   OH229455   4.389   3.513  15.364  0.4141 -0.0848  0.2550
 2655TIP3    H129456   4.336   3.461  15.425  1.2685 -0.6826  0.4974
 2655TIP3    H229457   4.356   3.490  15.277  1.6978 -2.0882  0.2774
 2656TIP3   OH229458   2.331   2.341  15.761  0.2109  0.1432 -0.0469
 2656TIP3    H129459   2.318   2.393  15.840 -1.2189  0.4237 -0.4637
 2656TIP3    H229460   2.291   2.392  15.691  0.7041 -0.5070 -0.8174
 2657TIP3   OH229461   3.500   0.596   4.213  0.3445 -0.1837 -0.0117
 2657TIP3    H129462   3.522   0.505   4.195  0.4297 -0.1841  0.0971
 2657TIP3    H229463   3.509   0.605   4.308 -0.7201 -0.3446  0.1095
 2658TIP3   OH229464   1.349   3.444  15.063  0.3308  0.2632  0.3896
 2658TIP3    H129465   1.317   3.354  15.068  2.2021 -0.4552 -0.2239
 2658TIP3    H229466   1.290   3.487  15.001  0.1619 -0.8685 -0.2490
 2659TIP3   OH229467   6.145   6.094   0.494 -0.3892 -0.1582  0.1551
 2659TIP3    H129468   6.165   6.183   0.521 -0.6102 -0.0332 -0.0858
 2659TIP3    H229469   6.068   6.070   0.545 -0.0963 -0.3517  0.5046
 2660TIP3   OH229470   2.024   0.590   6.641 -0.3240  0.0110 -0.2180
 2660TIP3    H129471   2.051   0.535   6.714  1.5263  0.8476 -0.2354
 2660TIP3    H229472   1.998   0.674   6.681  0.9463  0.5605 -0.5219
 2661TIP3   OH229473   6.642   6.644   3.086 -0.0423 -0.3057 -0.1610
 2661TIP3    H129474   6.642   6.710   3.155  2.2820 -0.9876  0.5605
 2661TIP3    H229475   6.701   6.679   3.019  0.0937 -1.0087 -0.4182
 2662TIP3   OH229476   2.004   5.521  13.700 -0.2554  0.0077 -0.6941
 2662TIP3    H129477   1.996   5.616  13.688  3.1140  0.1333 -2.6181
 2662TIP3    H229478   2.010   5.509  13.794 -3.7907  1.3481 -0.2132
 2663TIP3   OH229479   4.078   1.956  11.808  0.4593 -0.3090 -0.3688
 2663TIP3    H129480   4.088   1.916  11.721  1.2745  1.4744 -1.1277
 2663TIP3    H229481   4.109   2.046  11.796  0.9149 -0.1515  1.8778
 2664TIP3   OH229482   1.121   4.911  14.465  0.3449  0.1700  0.7494
 2664TIP3    H129483   1.166   4.920  14.381 -0.8126 -1.3052 -0.0597
 2664TIP3    H229484   1.122   4.999  14.502  0.8519  0.8514 -0.8207
 2665TIP3   OH229485   3.511   0.340  11.800 -0.0575 -0.1971 -0.1357
 2665TIP3    H129486   3.426   0.373  11.771  0.2461  1.0664  0.3917
 2665TIP3    H229487   3.512   0.249  11.771 -0.4885  0.5155 -2.5385
 2666TIP3   OH229488   2.011   4.415   3.274  0.0296 -0.0566  0.3917
 2666TIP3    H129489   2.049   4.335   3.238 -1.5865 -0.5494 -0.2698
 2666TIP3    H229490   1.943   4.439   3.212 -1.7852 -0.0679  2.3292
 2667TIP3   OH229491   0.344   6.453  15.460  0.4065 -0.4263  0.2226
 2667TIP3    H129492   0.341   6.474  15.367 -0.2675  1.4732  0.6439
 2667TIP3    H229493   0.266   6.401  15.476  0.5710 -0.8321 -0.2990
 2668TIP3   OH229494   3.406   2.582   0.121  0.0797 -0.1301 -0.0808
 2668TIP3    H129495   3.316   2.551   0.120 -0.1500  0.5030  0.6312
 2668TIP3    H229496   3.423   2.603   0.213  1.4418 -1.6568  0.0535
 2669TIP3   OH229497   4.950   5.678   0.506 -0.0813  0.1103  0.3199
 2669TIP3    H129498   5.041   5.709   0.498  0.0289 -0.3687 -0.3774
 2669TIP3    H229499   4.929   5.690   0.598  0.6015  0.4871  0.4359
 2670TIP3   OH229500   5.897   6.188  12.443  0.3980  0.2917  0.1072
 2670TIP3    H129501   5.833   6.239  12.392  0.2540 -0.6034 -0.6180
 2670TIP3    H229502   5.912   6.110  12.391  1.7743  0.2973  0.4876
 2671TIP3   OH229503   4.329   6.482  13.735 -0.0153  0.5383  0.1527
 2671TIP3    H129504   4.371   6.493  13.649  0.6923  1.2135  0.5782
 2671TIP3    H229505   4.240   6.514  13.722 -0.7848 -1.9433 -1.0526
 2672TIP3   OH229506   5.906   5.869   4.269  0.2104 -0.0938  0.0162
 2672TIP3    H129507   5.822   5.869   4.315 -1.2287 -0.7138 -2.4929
 2672TIP3    H229508   5.890   5.816   4.191  2.7583  0.3616 -0.8659
 2673TIP3   OH229509   1.538   5.504  16.915 -0.0861  0.6244 -0.7461
 2673TIP3    H129510   1.567   5.544  16.834  2.7187  0.7270  0.2320
 2673TIP3    H229511   1.557   5.570  16.982 -1.0386  0.0023  0.1412
 2674TIP3   OH229512   0.495   5.275  11.219 -0.3395  0.1636 -0.2037
 2674TIP3    H129513   0.562   5.225  11.172 -0.0921  0.5706 -0.2881
 2674TIP3    H229514   0.429   5.294  11.152 -1.8473 -2.5034  0.4614
 2675TIP3   OH229515   0.995   0.595  13.717 -0.5427  0.9654  0.0734
 2675TIP3    H129516   0.988   0.660  13.786 -0.9215  0.8633  0.1318
 2675TIP3    H229517   1.063   0.629  13.659 -0.2948  1.0998  0.4421
 2676TIP3   OH229518   0.015   6.017  13.156  0.5404  0.1827 -0.6087
 2676TIP3    H129519  -0.016   6.033  13.245  0.1232  0.3561 -0.7838
 2676TIP3    H229520   0.067   6.095  13.134  1.6266 -0.3733 -0.0923
 2677TIP3   OH229521   3.770   4.621   5.393 -0.0796 -0.4760  0.0397
 2677TIP3    H129522   3.693   4.568   5.408 -0.5768  0.5082  1.0333
 2677TIP3    H229523   3.834   4.561   5.355 -0.9328 -1.5638  0.3133
 2678TIP3   OH229524   1.031   4.346   0.306 -0.1394  0.6086  0.4756
 2678TIP3    H129525   1.013   4.428   0.260  1.3329  0.5977 -0.1369
 2678TIP3    H229526   1.124   4.351   0.327 -0.2491 -0.5087  1.2441
 2679TIP3   OH229527   0.069   1.480   2.036 -0.2364 -0.1041 -0.0851
 2679TIP3    H129528  -0.019   1.458   2.066  0.1075  0.7980  1.5890
 2679TIP3    H229529   0.059   1.561   1.987 -0.3035  0.0823  0.2417
 2680TIP3   OH229530   3.155   6.677   5.938  0.9140  0.0872  0.2307
 2680TIP3    H129531   3.122   6.644   6.021 -0.2530 -0.8265 -0.5657
 2680TIP3    H229532   3.235   6.725   5.960 -0.1897  1.1353  2.0440
 2681TIP3   OH229533   6.424   4.439   3.947 -0.6010 -0.2974 -0.0635
 2681TIP3    H129534   6.430   4.479   3.860 -1.5539  1.3726  0.6220
 2681TIP3    H229535   6.337   4.401   3.950 -1.1036  0.8925  0.6753
 2682TIP3   OH229536   2.140   2.529   4.924  0.0889 -0.3788  0.4038
 2682TIP3    H129537   2.061   2.476   4.932  1.4073 -2.2799  1.3734
 2682TIP3    H229538   2.182   2.522   5.010 -0.2884  3.2563  0.9457
 2683TIP3   OH229539   5.851   4.444   2.395 -0.1098 -0.8441  0.5684
 2683TIP3    H129540   5.867   4.380   2.326 -2.8829  0.0674 -0.9566
 2683TIP3    H229541   5.908   4.518   2.373 -0.9555 -0.5709 -0.7450
 2684TIP3   OH229542   5.757   3.676  15.999  0.4047 -0.0846  0.6369
 2684TIP3    H129543   5.800   3.758  16.020 -1.0761  0.6092  1.0024
 2684TIP3    H229544   5.777   3.619  16.074  3.0268 -0.7117 -0.4920
 2685TIP3   OH229545   6.348   1.617  11.736 -0.4963 -0.5838 -0.5902
 2685TIP3    H129546   6.278   1.663  11.782  0.8733  0.5223  0.4173
 2685TIP3    H229547   6.307   1.535  11.706 -2.2462  0.1088 -0.1612
 2686TIP3   OH229548   0.151   3.004   5.386 -0.4621 -0.2980 -0.0727
 2686TIP3    H129549   0.155   2.928   5.327  1.4526 -1.3438  1.3354
 2686TIP3    H229550   0.139   2.966   5.473  1.8481  0.8859  0.8170
 2687TIP3   OH229551   2.694   3.482  16.671 -0.1938 -0.0300  0.1584
 2687TIP3    H129552   2.654   3.496  16.757 -1.2543 -0.9783 -0.1757
 2687TIP3    H229553   2.667   3.559  16.620  1.7860  1.3642  1.1257
 2688TIP3   OH229554   5.894   6.471  10.684 -0.3503  0.1857  0.3581
 2688TIP3    H129555   5.985   6.490  10.707  0.5920 -2.7741 -0.7389
 2688TIP3    H229556   5.865   6.408  10.751 -0.9337 -0.4752 -0.5055
 2689TIP3   OH229557   0.373   0.418   3.328  0.1622  0.0281  0.1259
 2689TIP3    H129558   0.389   0.326   3.347  1.0138  0.2309  0.4151
 2689TIP3    H229559   0.448   0.445   3.274  0.4909  0.8365  0.9847
 2690TIP3   OH229560   5.773   2.777   6.340  0.4276  0.3587 -0.2064
 2690TIP3    H129561   5.757   2.739   6.254  0.1549 -0.5879  0.2506
 2690TIP3    H229562   5.693   2.758   6.389  0.4802  1.1141  0.1782
 2691TIP3   OH229563   6.274   5.821   2.400 -0.2029 -0.5325  0.1971
 2691TIP3    H129564   6.325   5.898   2.426  1.2760 -1.7336  0.9625
 2691TIP3    H229565   6.226   5.796   2.479  0.7545 -1.4678  0.5037
 2692TIP3   OH229566   0.760   4.798  13.977 -0.4121 -0.3907  0.2124
 2692TIP3    H129567   0.853   4.782  13.964 -0.0265  0.2799  2.0490
 2692TIP3    H229568   0.748   4.891  13.954 -0.3497 -0.1044  1.2863
 2693TIP3   OH229569   2.992   2.654  16.660  0.0423 -0.1128 -0.1148
 2693TIP3    H129570   3.004   2.717  16.589 -1.2077 -1.9638 -2.0386
 2693TIP3    H229571   2.913   2.684  16.705 -1.2452 -0.9172 -1.7673
 2694TIP3   OH229572   5.170   1.068   0.522  0.3858  0.4229  0.2050
 2694TIP3    H129573   5.246   1.124   0.538  0.6199  0.7004 -1.7417
 2694TIP3    H229574   5.096   1.128   0.516  0.3800  0.3753 -0.2224
 2695TIP3   OH229575   1.731   4.253  15.609 -0.3147 -1.0492 -0.1839
 2695TIP3    H129576   1.757   4.344  15.600 -1.5801 -0.6511  0.0509
 2695TIP3    H229577   1.812   4.205  15.625  0.0858  0.3567  2.1513
 2696TIP3   OH229578   5.205   6.164  14.272 -0.2371 -0.0025  0.6920
 2696TIP3    H129579   5.140   6.095  14.266  0.2330 -0.3114 -1.0492
 2696TIP3    H229580   5.288   6.121  14.250  0.1247  1.0021  0.0490
 2697TIP3   OH229581   4.894   1.890  15.708 -0.1999  0.6186  0.0679
 2697TIP3    H129582   4.950   1.968  15.709  0.1595  0.3905 -1.0952
 2697TIP3    H229583   4.886   1.864  15.800  0.8006  1.2294  0.3303
 2698TIP3   OH229584   0.143   6.553   4.335 -0.5572  0.0302  0.8849
 2698TIP3    H129585   0.238   6.544   4.346 -0.2567  0.8070 -0.9182
 2698TIP3    H229586   0.111   6.463   4.333  0.5093 -0.3416 -1.3258
 2699TIP3   OH229587   1.610   0.755  11.926 -0.4677 -0.5587  0.2082
 2699TIP3    H129588   1.705   0.760  11.916 -0.2248  0.3074  2.5642
 2699TIP3    H229589   1.576   0.787  11.843  1.3102  0.0346 -0.3193
 2700TIP3   OH229590   4.010   5.068   0.992  0.0139  0.3524 -0.1396
 2700TIP3    H129591   3.916   5.058   1.007 -0.2800  0.2454 -1.9291
 2700TIP3    H229592   4.017   5.147   0.939  0.8997  0.1201 -0.3763
 2701TIP3   OH229593   5.734   3.358  16.006  0.3980 -0.3893  0.0088
 2701TIP3    H129594   5.769   3.421  16.069  0.7170 -1.5549  1.0214
 2701TIP3    H229595   5.738   3.274  16.052 -1.8114 -0.8674 -0.6195
 2702TIP3   OH229596   2.729   2.208  15.802 -0.3594  0.0612  0.0894
 2702TIP3    H129597   2.676   2.243  15.874  0.6237 -0.4132  1.0497
 2702TIP3    H229598   2.815   2.246  15.816 -0.0560 -0.3740 -0.6038
 2703TIP3   OH229599   0.156   2.985  14.574 -0.3931 -0.1254  0.0030
 2703TIP3    H129600   0.192   2.961  14.660 -0.3711  0.8678  0.2770
 2703TIP3    H229601   0.105   2.909  14.548 -0.0496 -0.6058  0.7051
 2704TIP3   OH229602   2.937   6.665   2.554 -0.2247 -0.5361  0.3475
 2704TIP3    H129603   3.015   6.713   2.525  0.9709 -3.2030 -1.0484
 2704TIP3    H229604   2.866   6.698   2.498  0.1980  0.7905  0.5725
 2705TIP3   OH229605   2.303   4.577  13.046 -0.4508  0.5832 -0.2642
 2705TIP3    H129606   2.293   4.489  13.007 -5.4849  1.1172 -0.4700
 2705TIP3    H229607   2.309   4.561  13.140  1.2676 -0.0813 -0.4609
 2706TIP3   OH229608   6.060   1.639  15.426  0.4808  0.1065  0.0250
 2706TIP3    H129609   6.024   1.674  15.345 -0.0391 -1.9763 -0.6737
 2706TIP3    H229610   6.127   1.703  15.452 -1.5854  2.4768 -0.2629
 2707TIP3   OH229611   2.716   5.050   0.935  0.1904  0.2082  0.5507
 2707TIP3    H129612   2.703   5.045   1.029  0.5504 -2.4172  0.5080
 2707TIP3    H229613   2.644   5.000   0.897  1.3572 -0.7870 -0.4299
 2708TIP3   OH229614   4.003   6.587  15.113 -0.4141 -0.4313 -0.2996
 2708TIP3    H129615   3.964   6.558  15.195  1.0958 -2.0275 -0.0922
 2708TIP3    H229616   4.057   6.663  15.137  0.2638 -1.0771  0.2621
 2709TIP3   OH229617   2.933   3.171  12.045 -1.2856  0.4160  0.0794
 2709TIP3    H129618   2.975   3.087  12.063 -1.8052  0.4694  1.6438
 2709TIP3    H229619   2.839   3.151  12.047 -1.3870  0.8490 -0.4941
 2710TIP3   OH229620   3.147   6.237  11.284 -0.0696 -0.1907  0.2919
 2710TIP3    H129621   3.143   6.273  11.195  0.6643  0.8594  0.6681
 2710TIP3    H229622   3.077   6.282  11.331  0.1950 -0.0016  0.5055
 2711TIP3   OH229623   0.845   4.932   4.857 -0.1246 -0.2809  0.8428
 2711TIP3    H129624   0.762   4.927   4.905 -0.5417  0.3816  0.2001
 2711TIP3    H229625   0.879   4.843   4.860 -1.8057 -1.0080 -0.5444
 2712TIP3   OH229626   0.775   2.477  16.541  0.2178  0.1694 -0.2473
 2712TIP3    H129627   0.687   2.484  16.503  0.3577  2.4194 -0.2255
 2712TIP3    H229628   0.830   2.448  16.468 -0.1511  0.9157 -0.8316
 2713TIP3   OH229629   4.533   3.907   0.915 -0.2167  0.1356 -0.5328
 2713TIP3    H129630   4.619   3.872   0.894  0.6862  1.5325  0.8098
 2713TIP3    H229631   4.505   3.953   0.836  1.2096  1.5134 -0.2507
 2714TIP3   OH229632   2.179   4.723  15.596 -0.1425  0.2822  0.3172
 2714TIP3    H129633   2.179   4.787  15.525  0.2908  0.7940  0.7731
 2714TIP3    H229634   2.184   4.638  15.552  2.6873  0.6740 -0.1884
 2715TIP3   OH229635   2.289   5.798   3.779  0.2104 -0.4791 -0.0629
 2715TIP3    H129636   2.321   5.883   3.748 -0.8328 -0.0407  0.0564
 2715TIP3    H229637   2.343   5.780   3.856  0.4152  0.0902 -0.0650
 2716TIP3   OH229638   6.265   5.184   1.464  0.7774  0.6986  0.0070
 2716TIP3    H129639   6.202   5.211   1.397 -0.4659  0.7793  1.1814
 2716TIP3    H229640   6.245   5.239   1.540  0.6977 -0.9032  1.1779
 2717TIP3   OH229641   4.125   1.340   4.384 -0.5219 -0.6271 -0.1323
 2717TIP3    H129642   4.139   1.426   4.344  1.8721 -1.7205 -1.7601
 2717TIP3    H229643   4.093   1.359   4.472  0.3932  1.9381 -0.3250
 2718TIP3   OH229644   5.052   3.027   3.370  0.5372  0.1821 -0.3972
 2718TIP3    H129645   5.141   3.062   3.364  0.4221  0.8327  1.3156
 2718TIP3    H229646   5.063   2.942   3.412  0.3226  0.3892  0.0754
 2719TIP3   OH229647   2.668   4.767   0.874 -0.3020  0.0328 -0.1174
 2719TIP3    H129648   2.703   4.691   0.827  0.3424  0.6704 -0.6824
 2719TIP3    H229649   2.721   4.772   0.954 -2.0931 -1.6831  1.2186
 2720TIP3   OH229650   0.360   0.233  15.794  1.2839  0.5705  0.0246
 2720TIP3    H129651   0.453   0.242  15.815  1.7448 -0.8686 -1.3162
 2720TIP3    H229652   0.341   0.307  15.736  1.6772  0.6622  0.0127
 2721TIP3   OH229653   5.626   4.613  15.581  0.0174  0.5207  0.2273
 2721TIP3    H129654   5.682   4.648  15.512 -0.4254 -0.2419 -0.5188
 2721TIP3    H229655   5.555   4.570  15.535 -1.4716  1.9132  1.1626
 2722TIP3   OH229656   3.094   5.741  14.258 -0.1833  0.1449 -0.0922
 2722TIP3    H129657   3.181   5.764  14.292  0.6995 -3.1563  0.0160
 2722TIP3    H229658   3.078   5.807  14.190  2.3647  0.8721 -0.0674
 2723TIP3   OH229659   3.082   6.608  12.329 -0.4664  0.1425  0.0744
 2723TIP3    H129660   3.120   6.696  12.331 -1.6026  0.6403  2.5544
 2723TIP3    H229661   3.022   6.609  12.255  0.8840  0.8515 -1.0249
 2724TIP3   OH229662   1.413   4.326   5.922 -0.4278 -0.0027 -0.4438
 2724TIP3    H129663   1.422   4.381   6.000 -0.6081 -1.4910  0.6452
 2724TIP3    H229664   1.498   4.281   5.915  0.2028  1.4002 -2.1085
 2725TIP3   OH229665   3.340   5.743  16.049  0.6395 -0.1064 -0.3829
 2725TIP3    H129666   3.391   5.690  15.988 -0.8271 -1.1033 -0.7860
 2725TIP3    H229667   3.349   5.698  16.133  0.1171 -0.5195 -0.5415
 2726TIP3   OH229668   3.746   0.257   4.930 -0.3687 -0.4888  0.5661
 2726TIP3    H129669   3.814   0.297   4.985 -0.1446 -1.4540  1.0135
 2726TIP3    H229670   3.674   0.239   4.991 -1.0051  0.4676  0.1057
 2727TIP3   OH229671   0.199   5.903   2.409  0.5380  0.3666 -0.3383
 2727TIP3    H129672   0.231   5.847   2.338  2.4676 -0.5308  1.2141
 2727TIP3    H229673   0.278   5.937   2.451 -0.5807  0.3231  1.8493
 2728TIP3   OH229674   3.517   0.834  16.308  0.6095 -0.4643 -0.0144
 2728TIP3    H129675   3.579   0.812  16.378  1.5934 -0.1359 -0.7860
 2728TIP3    H229676   3.536   0.771  16.239 -1.4907 -1.8883  0.6387
 2729TIP3   OH229677   6.232   2.266  16.969  0.0326 -0.4030 -0.0437
 2729TIP3    H129678   6.234   2.355  16.934 -0.8426 -0.4524 -0.2357
 2729TIP3    H229679   6.261   2.274  17.060  0.5788 -0.0155 -0.2525
 2730TIP3   OH229680   3.508   1.831   4.685 -0.1357  0.4242  0.3331
 2730TIP3    H129681   3.497   1.925   4.703  0.6978  0.8535 -1.2896
 2730TIP3    H229682   3.431   1.790   4.724 -1.3387  1.9804 -0.3405
 2731TIP3   OH229683   5.074   2.176  13.529  0.9925 -0.3443  0.3013
 2731TIP3    H129684   5.043   2.141  13.445  1.0849 -2.0436  0.9449
 2731TIP3    H229685   5.138   2.243  13.505  2.6819 -2.3617 -1.0072
 2732TIP3   OH229686   2.784   6.591  14.179  0.1875  0.5269  0.3196
 2732TIP3    H129687   2.778   6.670  14.234 -1.1906  0.5795  0.1109
 2732TIP3    H229688   2.724   6.609  14.106  2.3861  0.6751 -1.4884
 2733TIP3   OH229689   5.842   6.324  15.031  0.2043  0.2569 -0.5555
 2733TIP3    H129690   5.899   6.342  14.957  0.5758  0.7347 -0.1557
 2733TIP3    H229691   5.769   6.275  14.993  0.8745 -0.3745 -1.0715
 2734TIP3   OH229692   2.888   6.132  16.934  0.4467  0.2404 -0.3788
 2734TIP3    H129693   2.826   6.204  16.938  0.5068  0.2932 -0.3821
 2734TIP3    H229694   2.871   6.081  17.013 -2.2215 -1.9424 -2.2583
 2735TIP3   OH229695   0.525   2.394   5.799 -0.2446  0.1072  0.1942
 2735TIP3    H129696   0.577   2.315   5.787  0.3158 -0.0458  3.1407
 2735TIP3    H229697   0.589   2.463   5.816 -0.8267  0.7215 -0.0787
 2736TIP3   OH229698   5.983   0.712  11.336  0.3104 -0.1398 -0.1792
 2736TIP3    H129699   5.949   0.664  11.411  0.4209  0.6542  0.3769
 2736TIP3    H229700   6.041   0.650  11.292  1.3759 -0.1309  1.1944
 2737TIP3   OH229701   0.328   5.457  12.098 -0.0680  0.1446 -0.7223
 2737TIP3    H129702   0.248   5.404  12.090  0.8085 -1.6334  1.6505
 2737TIP3    H229703   0.304   5.527  12.158  0.1951 -0.5268  0.1809
 2738TIP3   OH229704   2.296   3.797  16.304 -0.3890 -0.8378 -0.8242
 2738TIP3    H129705   2.234   3.766  16.370  1.3556 -2.0819  0.2762
 2738TIP3    H229706   2.335   3.717  16.269  0.5171 -0.0668 -1.5875
 2739TIP3   OH229707   5.313   2.680   0.898  0.2330  0.0061 -0.3447
 2739TIP3    H129708   5.341   2.706   0.986  1.5560  0.1662 -0.7950
 2739TIP3    H229709   5.390   2.695   0.843 -0.5827 -0.0874 -1.5373
 2740TIP3   OH229710   4.211   0.184  12.910 -0.5352  0.0849 -0.7939
 2740TIP3    H129711   4.149   0.114  12.932 -0.3775  0.4960  1.0261
 2740TIP3    H229712   4.254   0.153  12.830 -0.9890 -1.5690 -0.4215
 2741TIP3   OH229713   6.023   0.695  14.386  0.0619 -1.0566 -0.4043
 2741TIP3    H129714   5.981   0.731  14.308 -1.1115 -5.5829 -2.0277
 2741TIP3    H229715   6.110   0.669  14.356  0.1701 -1.4038  0.2155
 2742TIP3   OH229716   6.142   1.174  16.826  0.0394 -0.2009  0.1762
 2742TIP3    H129717   6.067   1.194  16.770  1.1023  1.7277 -0.6299
 2742TIP3    H229718   6.141   1.243  16.893  0.7978 -0.4422  0.4445
 2743TIP3   OH229719   2.332   4.417  14.978 -0.5013 -0.6342  0.2099
 2743TIP3    H129720   2.308   4.471  15.053 -0.8071  3.7045 -2.7522
 2743TIP3    H229721   2.251   4.372  14.954 -0.6108 -1.3875  1.9325
 2744TIP3   OH229722   6.325   3.886  14.246  0.1709 -0.6947 -0.4241
 2744TIP3    H129723   6.315   3.971  14.203  0.6189 -0.9538 -1.0571
 2744TIP3    H229724   6.336   3.906  14.339  0.5821 -0.0377 -0.6118
 2745TIP3   OH229725   4.744   4.224  12.500  0.5461  0.4397  0.0741
 2745TIP3    H129726   4.701   4.237  12.416 -0.7781 -0.6882  0.5652
 2745TIP3    H229727   4.808   4.155  12.484 -0.2767 -0.3535  0.1813
 2746TIP3   OH229728   0.889   2.627  16.735 -0.3803 -0.0019  0.2635
 2746TIP3    H129729   0.837   2.565  16.683  0.8649 -0.0396 -0.9525
 2746TIP3    H229730   0.909   2.698  16.674  3.7444 -1.5131 -0.2576
 2747TIP3   OH229731   0.194   5.238   5.584  0.0498  0.0653 -0.3972
 2747TIP3    H129732   0.256   5.212   5.652 -0.3302 -0.2934 -0.1865
 2747TIP3    H229733   0.157   5.321   5.616 -0.6607 -0.4681  0.1844
 2748TIP3   OH229734   0.153   4.074  11.605  0.0822  0.1701 -0.1394
 2748TIP3    H129735   0.125   4.005  11.544  1.4792  0.3533 -0.9996
 2748TIP3    H229736   0.225   4.035  11.653 -0.9320  0.0792  1.3270
 2749TIP3   OH229737   3.541   4.550  15.428 -0.1358 -0.0667 -0.0815
 2749TIP3    H129738   3.607   4.548  15.359  1.5141  1.1484  1.3963
 2749TIP3    H229739   3.500   4.636  15.421 -0.6601 -0.3224 -0.1801
 2750TIP3   OH229740   5.206   3.155   6.044 -0.0305 -0.1864  0.3113
 2750TIP3    H129741   5.121   3.170   6.086  1.3119  3.4870  1.9579
 2750TIP3    H229742   5.256   3.106   6.109  0.1893  0.5834  0.7304
 2751TIP3   OH229743   6.294   5.862  13.070  0.0425 -0.4032  0.0996
 2751TIP3    H129744   6.288   5.943  13.019 -1.1722 -0.0159  0.8217
 2751TIP3    H229745   6.281   5.890  13.160  3.8054 -0.8627  0.8558
 2752TIP3   OH229746   5.953   3.340  11.783  0.2033  0.2245 -0.6983
 2752TIP3    H129747   5.943   3.322  11.877  2.0730  0.1385 -0.4833
 2752TIP3    H229748   5.905   3.421  11.769 -0.5683 -0.0608  0.2269
 2753TIP3   OH229749   6.591   2.639  16.104  0.1914 -0.2810 -0.0798
 2753TIP3    H129750   6.522   2.676  16.159  0.6173  1.1664 -0.4819
 2753TIP3    H229751   6.552   2.561  16.066 -1.6716  1.1826 -1.2859
 2754TIP3   OH229752   3.968   1.555   5.931  0.0653  0.6181 -0.3026
 2754TIP3    H129753   4.009   1.475   5.897  0.4974  0.7040  0.0039
 2754TIP3    H229754   3.987   1.621   5.864  0.0608  0.5581 -0.3630
 2755TIP3   OH229755   3.504   2.180   1.401  0.2429  0.1020 -0.0656
 2755TIP3    H129756   3.518   2.162   1.494  4.2856 -1.8954 -0.9431
 2755TIP3    H229757   3.435   2.118   1.375 -0.9064  0.6714  1.5771
 2756TIP3   OH229758   5.582   0.670   0.800  0.3435 -0.0006 -0.0410
 2756TIP3    H129759   5.558   0.722   0.877  1.0610  2.7469 -1.5859
 2756TIP3    H229760   5.652   0.613   0.832  2.9029  3.3359  0.7233
 2757TIP3   OH229761   2.661   2.599   1.230  0.3467 -0.5676 -0.1560
 2757TIP3    H129762   2.675   2.505   1.235  1.1950 -0.4961 -1.0369
 2757TIP3    H229763   2.608   2.611   1.151  0.4697 -0.2814 -0.1951
 2758TIP3   OH229764   2.131   4.053  14.705 -0.1520 -0.0409 -0.0143
 2758TIP3    H129765   2.126   4.147  14.723 -0.6682  0.0412 -0.6065
 2758TIP3    H229766   2.110   4.012  14.789  0.4888  0.3714  0.3532
 2759TIP3   OH229767   4.540   5.288   5.175 -0.3059 -0.5286  0.3975
 2759TIP3    H129768   4.617   5.247   5.136  0.2417 -0.0393  0.9578
 2759TIP3    H229769   4.575   5.360   5.228 -1.2175  0.3390 -0.1561
 2760TIP3   OH229770   0.525   1.295   1.739 -0.3078  0.4835 -0.8331
 2760TIP3    H129771   0.453   1.299   1.675 -0.7216  0.5702 -0.3619
 2760TIP3    H229772   0.597   1.343   1.697 -0.9201  1.4472 -0.8009
 2761TIP3   OH229773   6.667   2.142   5.644  0.2200 -0.1784  0.2251
 2761TIP3    H129774   6.670   2.089   5.564  0.8552 -0.2781  0.3172
 2761TIP3    H229775   6.745   2.197   5.640  0.0645  0.0699  0.6019
 2762TIP3   OH229776   3.053   0.692   6.108  0.3773  0.1621  0.3617
 2762TIP3    H129777   2.990   0.728   6.045  1.6963 -0.0601 -1.1318
 2762TIP3    H229778   3.011   0.703   6.193 -1.4340  0.5348 -0.5410
 2763TIP3   OH229779   2.178   5.087  14.208 -0.0462  0.1483 -0.3421
 2763TIP3    H129780   2.197   5.177  14.181  0.4558  0.4718  1.0509
 2763TIP3    H229781   2.108   5.095  14.273  0.4458 -0.4057  0.2651
 2764TIP3   OH229782   0.987   0.168   0.351  0.6375  0.5388  0.0663
 2764TIP3    H129783   0.928   0.094   0.338 -1.2084  1.6642  1.6710
 2764TIP3    H229784   1.011   0.195   0.263 -0.4294 -0.6028 -0.5967
 2765TIP3   OH229785   6.133   4.100   4.337 -0.1630 -0.5061  0.6377
 2765TIP3    H129786   6.174   4.038   4.278  1.9362 -0.1816  1.7054
 2765TIP3    H229787   6.045   4.113   4.301  1.4230  0.5906 -3.0930
 2766TIP3   OH229788   5.902   3.865   3.271 -0.2175 -0.3106 -0.2456
 2766TIP3    H129789   5.825   3.916   3.294  0.7992  0.7784  0.8428
 2766TIP3    H229790   5.887   3.837   3.181 -2.0375 -0.4268  0.0813
 2767TIP3   OH229791   5.940   1.077  11.987  0.5960  0.2370  0.1714
 2767TIP3    H129792   5.858   1.080  11.937  0.0701  2.3709  1.0872
 2767TIP3    H229793   6.003   1.038  11.927 -0.7039  0.1168 -1.1468
 2768TIP3   OH229794   0.943   1.556  16.750 -0.3828  0.4082 -0.2733
 2768TIP3    H129795   1.024   1.527  16.793  0.2767 -0.4073 -2.0182
 2768TIP3    H229796   0.969   1.633  16.700 -0.7923  0.4281 -0.4526
 2769TIP3   OH229797   6.816   5.242  14.734 -0.0782 -0.8263  0.1237
 2769TIP3    H129798   6.877   5.315  14.748  0.4553 -0.9933 -1.2663
 2769TIP3    H229799   6.829   5.185  14.809  1.1376 -0.6162  0.0775
 2770TIP3   OH229800   5.270   4.674   1.911  0.1733 -0.3057  1.1358
 2770TIP3    H129801   5.280   4.722   1.993  1.3763 -1.9399  1.9593
 2770TIP3    H229802   5.326   4.598   1.920  3.1976  1.2665 -2.5625
 2771TIP3   OH229803   0.336   3.902  15.123 -0.0954 -0.2787 -0.1286
 2771TIP3    H129804   0.278   3.890  15.049  1.4856  2.5890 -1.9030
 2771TIP3    H229805   0.415   3.853  15.100  1.3162  2.5294 -1.4912
 2772TIP3   OH229806   2.306   1.657  15.804 -0.7666 -0.1791 -0.0478
 2772TIP3    H129807   2.310   1.600  15.727  1.6563 -0.4080  0.2144
 2772TIP3    H229808   2.258   1.734  15.775 -1.3344 -0.9963 -1.2971
 2773TIP3   OH229809   3.398   5.386   1.299  0.0746 -0.4974  0.5700
 2773TIP3    H129810   3.348   5.465   1.275  1.4227  0.0758 -0.4478
 2773TIP3    H229811   3.368   5.319   1.238  1.2899  0.1393 -0.7641
 2774TIP3   OH229812   4.788   2.184  13.301  0.1052 -0.2066 -0.6628
 2774TIP3    H129813   4.800   2.239  13.378 -0.1650 -1.6347  0.4190
 2774TIP3    H229814   4.800   2.244  13.227  2.5220  0.7454  0.4524
 2775TIP3   OH229815   6.636   1.313   1.938  0.8407  0.0235 -0.0036
 2775TIP3    H129816   6.619   1.227   1.976 -1.3177  0.2465 -0.3930
 2775TIP3    H229817   6.631   1.299   1.843  2.7296  0.1581 -0.1521
 2776TIP3   OH229818   2.128   0.069  13.761 -0.0005 -0.5360 -0.4033
 2776TIP3    H129819   2.180   0.087  13.682 -2.1707  1.4409 -1.4143
 2776TIP3    H229820   2.090  -0.018  13.745  0.8070 -0.8233 -0.8177
 2777TIP3   OH229821   4.643   1.893  14.032 -0.1032 -0.1461  0.8142
 2777TIP3    H129822   4.672   1.968  14.085  0.3922  0.6316 -0.5423
 2777TIP3    H229823   4.570   1.927  13.981 -0.4179 -0.8299  0.8058
 2778TIP3   OH229824   3.563   1.880  11.264  0.0396 -0.2280 -0.2277
 2778TIP3    H129825   3.580   1.961  11.312 -3.5168  0.1933  0.4963
 2778TIP3    H229826   3.641   1.866  11.210  1.7057  2.3695  1.4245
 2779TIP3   OH229827   5.615   3.437  11.504  0.4110  0.2502  0.2436
 2779TIP3    H129828   5.675   3.458  11.576  0.5655  1.7558 -0.3043
 2779TIP3    H229829   5.578   3.521  11.478  0.2656 -0.2947 -1.3632
 2780TIP3   OH229830   1.479   5.414   0.554  0.6835 -0.0437 -0.0188
 2780TIP3    H129831   1.521   5.398   0.470  0.0458 -0.5201 -0.2542
 2780TIP3    H229832   1.533   5.481   0.596 -0.8421  2.6771 -2.1996
 2781TIP3   OH229833   3.994   2.755  10.510  0.4462 -0.1933  0.4672
 2781TIP3    H129834   4.073   2.790  10.469  0.6567  0.3346  1.2867
 2781TIP3    H229835   3.987   2.665  10.479 -0.3192  0.6830 -2.0080
 2782TIP3   OH229836   2.071   4.577   3.684 -0.1844  0.3197 -0.1156
 2782TIP3    H129837   2.105   4.503   3.633  0.8467  2.2979 -2.3900
 2782TIP3    H229838   2.043   4.538   3.767  1.8797 -2.3749 -0.6069
 2783TIP3   OH229839   0.953   4.080   4.194  0.3619 -0.3085  0.2564
 2783TIP3    H129840   1.007   4.041   4.263  2.6225  0.3270 -1.0882
 2783TIP3    H229841   0.971   4.026   4.117  0.1741  0.7783 -0.5590
 2784TIP3   OH229842   6.805   6.735   2.866 -0.0244  0.2838 -0.1223
 2784TIP3    H129843   6.804   6.827   2.891  1.0144 -0.5926  3.3333
 2784TIP3    H229844   6.873   6.729   2.798  0.1768  1.9568 -0.0827
 2785TIP3   OH229845   4.619   5.543  12.455 -1.0040  0.7656  0.0973
 2785TIP3    H129846   4.660   5.476  12.401 -2.5032  1.2266 -1.6700
 2785TIP3    H229847   4.661   5.534  12.541  0.7219 -0.6171 -0.8633
 2786TIP3   OH229848   2.306   4.807   1.364 -0.3662  0.8052  0.6493
 2786TIP3    H129849   2.211   4.807   1.346 -0.5725 -1.8222  1.5487
 2786TIP3    H229850   2.314   4.767   1.450  1.5154  2.0917  1.1029
 2787TIP3   OH229851   4.626   3.932  15.458 -0.1409 -0.4879 -0.3549
 2787TIP3    H129852   4.536   3.899  15.459 -0.5536  0.6301 -0.0856
 2787TIP3    H229853   4.626   4.004  15.521  0.6423  0.3093 -1.2605
 2788TIP3   OH229854   4.280   0.328   0.100  0.5637 -0.0404 -0.1933
 2788TIP3    H129855   4.360   0.332   0.152  0.6054 -1.7891 -0.0947
 2788TIP3    H229856   4.214   0.371   0.154  0.8763 -0.7815  0.7868
 2789TIP3   OH229857   3.165   4.741  13.909  0.1111  0.1454 -0.2620
 2789TIP3    H129858   3.192   4.743  13.817 -0.3959  0.5324 -0.4038
 2789TIP3    H229859   3.243   4.712  13.956 -0.3184 -2.4439 -1.0681
 2790TIP3   OH229860   0.334   4.761  15.311  0.2479 -0.0888 -0.1716
 2790TIP3    H129861   0.239   4.751  15.302  0.4168 -0.7507 -1.3814
 2790TIP3    H229862   0.364   4.677  15.343  0.4437  0.0850  0.1022
 2791TIP3   OH229863   1.684   1.114  16.410 -0.0796  0.0330 -0.2069
 2791TIP3    H129864   1.704   1.021  16.418  1.0343  0.3125  0.3326
 2791TIP3    H229865   1.649   1.138  16.496 -3.9804 -0.7250 -1.5012
 2792TIP3   OH229866   6.109   4.246  12.001 -0.0228  0.7220  0.0734
 2792TIP3    H129867   6.137   4.157  11.981 -1.3525  0.4860 -0.8526
 2792TIP3    H229868   6.013   4.242  12.001 -0.1207  2.2988 -0.7550
 2793TIP3   OH229869   5.172   1.254  11.332 -0.5119  0.2324  0.0933
 2793TIP3    H129870   5.170   1.338  11.377 -2.1579 -0.0092  0.4968
 2793TIP3    H229871   5.107   1.263  11.262 -1.0906 -0.8629  0.4660
 2794TIP3   OH229872   5.210   6.340  15.343 -0.5445 -0.4783  0.3400
 2794TIP3    H129873   5.284   6.399  15.351 -2.1592  1.8012 -1.1031
 2794TIP3    H229874   5.143   6.377  15.400 -1.6167 -0.8386 -0.6664
 2795TIP3   OH229875   0.584   1.813   6.232  0.0773  0.0390 -1.1236
 2795TIP3    H129876   0.671   1.772   6.238 -0.4298 -0.9728 -0.7102
 2795TIP3    H229877   0.558   1.800   6.141  0.0576 -0.2867 -1.0734
 2796TIP3   OH229878   3.721   4.358   2.014  0.1419 -0.3490  0.1754
 2796TIP3    H129879   3.663   4.330   1.943 -0.2117 -0.8102  0.6375
 2796TIP3    H229880   3.701   4.298   2.086  1.3760 -0.6718  0.2563
 2797TIP3   OH229881   1.363   6.483  15.311 -0.1047 -0.0519 -0.2622
 2797TIP3    H129882   1.346   6.553  15.247 -0.0237 -0.2948 -0.5496
 2797TIP3    H229883   1.403   6.528  15.385 -1.2813  0.4071  0.0964
 2798TIP3   OH229884   1.382   3.357  16.557  0.1852 -0.3003  0.0467
 2798TIP3    H129885   1.402   3.286  16.618  1.2206 -0.0625 -0.0050
 2798TIP3    H229886   1.368   3.433  16.613 -0.8102 -0.5143  0.0964
 2799TIP3   OH229887   3.263   3.417   5.694 -0.0845 -0.1412  0.4922
 2799TIP3    H129888   3.321   3.355   5.651 -0.7187  0.1222 -0.7707
 2799TIP3    H229889   3.309   3.500   5.689  0.1890 -0.2613  1.0220
 2800TIP3   OH229890   2.434   3.063  12.134 -0.4125 -0.3150 -0.0434
 2800TIP3    H129891   2.342   3.075  12.156 -0.7636 -1.7661 -0.7205
 2800TIP3    H229892   2.452   2.971  12.154  1.2234  0.2591  1.2982
 2801TIP3   OH229893   1.436   0.442  16.911  0.1194 -0.1462  0.1672
 2801TIP3    H129894   1.496   0.516  16.919 -0.5302  0.3602  0.3183
 2801TIP3    H229895   1.402   0.428  16.999  0.9207 -1.2001  0.3213
 2802TIP3   OH229896   2.280   5.257  15.356 -0.6741 -0.7697  0.1968
 2802TIP3    H129897   2.218   5.266  15.428 -1.4327  1.9750 -0.7217
 2802TIP3    H229898   2.243   5.311  15.286  1.2769 -1.4245 -1.3894
 2803TIP3   OH229899   5.127   1.648   4.054  0.1680  0.1045  0.7746
 2803TIP3    H129900   5.035   1.622   4.047  0.3628 -0.6013  0.7778
 2803TIP3    H229901   5.132   1.733   4.011 -0.1211 -0.7205 -0.9050
 2804TIP3   OH229902   0.403   4.829   1.756  0.2143  0.6117  0.2824
 2804TIP3    H129903   0.445   4.837   1.841 -0.2045 -1.3171  0.6895
 2804TIP3    H229904   0.465   4.779   1.703 -0.3517  0.1774  0.0261
 2805TIP3   OH229905   1.034   0.914   3.811  0.5951  0.0494 -0.3609
 2805TIP3    H129906   1.128   0.924   3.826  1.2576 -2.8219 -2.1616
 2805TIP3    H229907   1.017   0.821   3.827 -1.0409 -0.4348 -4.2178
 2806TIP3   OH229908   3.674   5.842   5.347 -0.3226  0.2110 -0.2389
 2806TIP3    H129909   3.612   5.895   5.297  0.0143  1.3940  0.5595
 2806TIP3    H229910   3.720   5.789   5.281 -0.2607  1.3413 -1.1229
 2807TIP3   OH229911   5.078   4.246  15.590 -1.0505  0.3492 -0.3035
 2807TIP3    H129912   5.131   4.271  15.514 -1.9525  0.4728 -0.8957
 2807TIP3    H229913   5.058   4.154  15.576 -1.0872  0.3319 -0.1385
 2808TIP3   OH229914   1.086   6.503  14.250 -0.4855  0.6190 -0.5305
 2808TIP3    H129915   1.023   6.511  14.178  1.0223 -1.5752 -2.1483
 2808TIP3    H229916   1.114   6.593  14.267  0.8003  1.0231 -4.2587
 2809TIP3   OH229917   0.169   5.427   5.861 -0.0261  0.2850  0.1191
 2809TIP3    H129918   0.156   5.478   5.781 -1.5163  2.7561  1.8464
 2809TIP3    H229919   0.256   5.454   5.892  0.5512 -0.6728 -0.6588
 2810TIP3   OH229920   5.806   6.324  10.920  0.4093  0.7088 -0.3385
 2810TIP3    H129921   5.805   6.230  10.901  2.2675  0.9056 -1.4691
 2810TIP3    H229922   5.888   6.338  10.967  1.0517  2.0570 -1.8178
 2811TIP3   OH229923   2.010   6.331   3.976 -0.0565  0.2673  0.6696
 2811TIP3    H129924   1.921   6.313   4.007 -0.6902  1.0287 -0.6578
 2811TIP3    H229925   2.067   6.283   4.036 -1.4710 -2.5899 -0.2024
 2812TIP3   OH229926   2.613   4.570   2.107  0.3486 -0.4173 -0.1325
 2812TIP3    H129927   2.604   4.483   2.147 -1.1344 -0.5514 -0.7277
 2812TIP3    H229928   2.544   4.622   2.148 -2.1076 -0.9109 -3.4300
 2813TIP3   OH229929   3.633   4.832   0.992  0.4257 -0.0769 -0.0182
 2813TIP3    H129930   3.676   4.917   1.002 -0.0727  0.1273  0.4629
 2813TIP3    H229931   3.642   4.810   0.899  1.9917 -0.2761  0.1717
 2814TIP3   OH229932   0.594   4.519  14.606 -0.3051 -0.3038 -0.1179
 2814TIP3    H129933   0.615   4.549  14.694  0.4780  1.3258 -0.8434
 2814TIP3    H229934   0.629   4.430  14.602  0.9797  0.1537  0.7185
 2815TIP3   OH229935   2.291   6.581  11.496 -0.5810  0.1677 -0.3399
 2815TIP3    H129936   2.335   6.629  11.426  0.7297 -0.2905  0.1571
 2815TIP3    H229937   2.356   6.518  11.526 -1.7271 -0.7980  0.1362
 2816TIP3   OH229938   0.797   1.423  12.109 -0.8010 -0.4601  0.4903
 2816TIP3    H129939   0.779   1.490  12.044 -1.8965 -1.0695  0.1663
 2816TIP3    H229940   0.891   1.432  12.127 -0.9158  1.0801  0.3706
 2817TIP3   OH229941   1.197   4.023  10.400  0.2298  0.2451 -0.3274
 2817TIP3    H129942   1.268   3.959  10.392  2.1625  2.3350 -0.3038
 2817TIP3    H229943   1.143   4.008  10.323 -0.0363 -2.2137  0.2797
 2818TIP3   OH229944   4.901   4.904   2.508 -0.6909  0.2685  0.0138
 2818TIP3    H129945   4.943   4.866   2.586  1.3815 -1.3707 -1.8306
 2818TIP3    H229946   4.908   4.999   2.522  1.5655  0.0218  0.8924
 2819TIP3   OH229947   0.392   1.868   1.660 -0.2574 -0.4866 -0.2316
 2819TIP3    H129948   0.384   1.959   1.630  0.8882 -0.0268  0.7886
 2819TIP3    H229949   0.398   1.817   1.580 -0.3802  0.3914 -0.8170
 2820TIP3   OH229950   5.712   1.047  17.080 -0.1572 -0.4070  0.4744
 2820TIP3    H129951   5.732   0.974  17.137  2.3371  0.4542  0.7558
 2820TIP3    H229952   5.751   1.123  17.123  0.0127  0.5845 -1.3478
 2821TIP3   OH229953   6.572   1.826   2.450 -0.3991  0.1346  0.2327
 2821TIP3    H129954   6.565   1.748   2.395  0.1688  0.1687  0.1057
 2821TIP3    H229955   6.651   1.812   2.502  0.3016  1.1131 -0.5589
 2822TIP3   OH229956   4.277   1.414   1.961 -0.3675 -0.3734  0.1348
 2822TIP3    H129957   4.224   1.444   1.887  0.9813  0.9515 -0.3201
 2822TIP3    H229958   4.253   1.471   2.033  0.0953 -0.0687  0.0507
 2823TIP3   OH229959   2.951   4.489  14.610  0.1069  0.0059  0.3234
 2823TIP3    H129960   2.941   4.423  14.541  0.8064  1.4449 -1.1797
 2823TIP3    H229961   2.935   4.441  14.691 -0.4837 -1.7721 -0.8146
 2824TIP3   OH229962   6.433   3.518  16.204 -0.1268  0.0787  0.5884
 2824TIP3    H129963   6.444   3.523  16.299  0.6994  0.1126  0.5007
 2824TIP3    H229964   6.521   3.497  16.172  0.0543  2.1797 -0.3278
 2825TIP3   OH229965   6.738   0.291  14.337 -0.0668 -0.5262  0.1981
 2825TIP3    H129966   6.646   0.308  14.355  0.2434  0.9646  0.4226
 2825TIP3    H229967   6.779   0.289  14.424  0.6084  1.8710 -0.0222
 2826TIP3   OH229968   0.035   6.130   4.609  0.5176 -0.5101 -0.0794
 2826TIP3    H129969  -0.031   6.065   4.633 -0.7850  0.5423 -0.7325
 2826TIP3    H229970   0.053   6.178   4.689 -0.5038  0.0665 -0.1888
 2827TIP3   OH229971   6.559   6.015   4.943  0.0575 -0.0332 -0.3906
 2827TIP3    H129972   6.598   5.928   4.935  0.0273 -0.2137  1.1593
 2827TIP3    H229973   6.546   6.044   4.853  0.2728 -1.5385 -0.9277
 2828TIP3   OH229974   6.777   1.690   5.974 -0.4769 -1.1068 -0.3969
 2828TIP3    H129975   6.780   1.653   6.062 -0.7633  0.5083  0.2998
 2828TIP3    H229976   6.699   1.651   5.934 -1.0140 -0.9293  0.4721
 2829TIP3   OH229977   3.217   4.477   1.226 -0.5402 -0.0551 -0.0591
 2829TIP3    H129978   3.141   4.470   1.168  0.4302 -3.1317 -1.0569
 2829TIP3    H229979   3.270   4.547   1.189  0.2705 -2.2400 -3.2064
 2830TIP3   OH229980   2.499   0.315   0.743  0.0886  0.2235 -0.0256
 2830TIP3    H129981   2.485   0.283   0.832 -0.0456 -1.9469 -0.7990
 2830TIP3    H229982   2.410   0.331   0.709  0.0494 -0.7603 -0.4001
 2831TIP3   OH229983   1.909   5.970  15.475  0.4635 -0.3323  0.3389
 2831TIP3    H129984   1.911   6.065  15.479 -1.2299 -0.3032  0.8614
 2831TIP3    H229985   1.881   5.942  15.563  1.1708 -1.3199  0.2655
 2832TIP3   OH229986   2.350   5.385   5.088  0.3026  0.0054  0.0625
 2832TIP3    H129987   2.293   5.462   5.096  0.4048  0.0167  0.7451
 2832TIP3    H229988   2.320   5.327   5.158  0.3649 -0.4895 -0.3191
 2833TIP3   OH229989   4.102   1.975   1.705 -0.0069 -0.0902  0.6551
 2833TIP3    H129990   4.189   1.952   1.673 -0.6619 -1.5166 -0.1656
 2833TIP3    H229991   4.058   2.013   1.629 -0.2746  0.1518  0.9294
 2834TIP3   OH229992   1.473   3.670   3.358 -0.0046  0.0281 -0.5107
 2834TIP3    H129993   1.478   3.585   3.402 -1.9293 -1.1279 -2.4721
 2834TIP3    H229994   1.391   3.708   3.388 -0.3039  0.1445 -1.4517
 2835TIP3   OH229995   3.896   5.506  13.665 -0.0968 -0.0851  0.1238
 2835TIP3    H129996   3.958   5.448  13.621  0.1923  1.3829 -1.4984
 2835TIP3    H229997   3.933   5.519  13.752  1.5591  0.2212 -0.5913
 2836TIP3   OH229998   3.866   5.902   3.689 -0.4571 -0.5583  0.0461
 2836TIP3    H129999   3.891   5.811   3.706 -0.7466 -0.4457  1.0974
 2836TIP3    H230000   3.867   5.944   3.775 -1.7354  0.0750 -0.2407
 2837TIP3   OH230001   3.572   3.384  13.241 -0.0091  0.1268  0.5978
 2837TIP3    H130002   3.652   3.343  13.210 -0.2069 -0.1476  0.4471
 2837TIP3    H230003   3.559   3.348  13.329  0.3361  0.6022  0.8490
 2838TIP3   OH230004   0.684   5.262   3.630 -0.1151 -0.0062 -0.3183
 2838TIP3    H130005   0.764   5.250   3.579  0.3406  0.0846  0.3738
 2838TIP3    H230006   0.630   5.321   3.577  0.6528  0.6587 -0.3623
 2839TIP3   OH230007   1.931   2.959  15.158  0.7137 -0.3175  0.0994
 2839TIP3    H130008   1.839   2.970  15.182  1.0904  2.2915  0.4938
 2839TIP3    H230009   1.933   2.972  15.063  0.7900  0.6161  0.2201
 2840TIP3   OH230010   1.540   3.581   1.900 -0.5482 -0.0753 -0.2152
 2840TIP3    H130011   1.553   3.503   1.846  1.5346  0.7542 -0.9863
 2840TIP3    H230012   1.629   3.615   1.915 -1.4164  2.1906  0.0352
 2841TIP3   OH230013   3.698   6.240   3.473  0.2151  0.2500 -0.9667
 2841TIP3    H130014   3.642   6.245   3.550 -1.5257 -0.3748 -2.1627
 2841TIP3    H230015   3.752   6.319   3.478 -0.9127  0.9729  0.0987
 2842TIP3   OH230016   4.111   4.076  14.956  0.8062  0.4772 -0.5751
 2842TIP3    H130017   4.129   4.159  14.913  1.0583  1.3298  1.1548
 2842TIP3    H230018   4.016   4.066  14.950  0.6867  1.2949 -0.0445
 2843TIP3   OH230019   1.027   1.942   5.287 -0.1768  0.1965  0.3196
 2843TIP3    H130020   0.995   1.985   5.208 -0.0851 -0.1463  0.0911
 2843TIP3    H230021   0.950   1.900   5.324 -0.1132 -0.1119  0.1052
 2844TIP3   OH230022   6.671   2.905  11.534 -0.2241 -0.1354  0.5324
 2844TIP3    H130023   6.616   2.979  11.560  1.6018  1.3339  0.3843
 2844TIP3    H230024   6.726   2.888  11.610  0.3580 -0.4010  0.0531
 2845TIP3   OH230025   1.526   0.525  15.587  1.0775 -0.1891 -0.1593
 2845TIP3    H130026   1.433   0.523  15.566  0.9960  0.0968  0.1795
 2845TIP3    H230027   1.570   0.515  15.502  0.7441  0.4326 -0.4050
 2846TIP3   OH230028   5.292   6.354   0.859  0.0511 -0.3371  0.0659
 2846TIP3    H130029   5.296   6.447   0.882  1.5655 -0.4765  0.4207
 2846TIP3    H230030   5.381   6.322   0.873 -0.2675 -1.6615 -0.8244
 2847TIP3   OH230031   0.632   5.941  15.577  0.7804 -0.2531 -0.1174
 2847TIP3    H130032   0.676   5.863  15.611 -1.7431 -2.3574 -1.5125
 2847TIP3    H230033   0.644   5.936  15.482 -0.5253  0.3309 -0.3276
 2848TIP3   OH230034   3.544   1.888  15.616 -0.1310  0.1011 -0.4196
 2848TIP3    H130035   3.523   1.922  15.703 -0.1535  0.2542 -0.4843
 2848TIP3    H230036   3.613   1.947  15.584 -1.4995  1.2434 -1.3065
 2849TIP3   OH230037   3.775   2.312  13.669  0.2556 -0.2803  0.0171
 2849TIP3    H130038   3.760   2.219  13.648 -0.0631  0.2221 -2.0445
 2849TIP3    H230039   3.870   2.323  13.664  0.3520 -0.6426  0.9440
 2850TIP3   OH230040   6.356   5.068  12.072  0.1418  0.8506 -0.1690
 2850TIP3    H130041   6.281   5.020  12.105  1.2532 -1.1422 -0.4589
 2850TIP3    H230042   6.319   5.132  12.011 -1.4065  0.6993  0.6025
 2851TIP3   OH230043   3.861   6.579   3.341 -0.3925 -0.0977 -0.0231
 2851TIP3    H130044   3.824   6.545   3.259 -1.2243  0.6291  0.0362
 2851TIP3    H230045   3.954   6.587   3.324 -0.5094 -0.2774 -0.7914
 2852TIP3   OH230046   0.750   4.067   1.742  0.2901  0.2161  0.1571
 2852TIP3    H130047   0.694   4.118   1.802  2.7797  0.5199  2.3431
 2852TIP3    H230048   0.765   3.985   1.788  1.2955 -0.0257 -0.5952
 2853TIP3   OH230049   2.632   1.401  12.489 -0.2584 -0.3530  0.1975
 2853TIP3    H130050   2.566   1.340  12.455  0.4945  0.4466 -2.8253
 2853TIP3    H230051   2.712   1.349  12.493  0.3467  0.3653 -2.2272
 2854TIP3   OH230052   4.089   3.117   5.226 -0.1559  0.4760  0.1836
 2854TIP3    H130053   4.177   3.082   5.229  0.3020  1.6700  1.4722
 2854TIP3    H230054   4.092   3.194   5.284 -1.2961  2.1891 -1.9682
 2855TIP3   OH230055   5.511   2.146  13.694  0.3173 -0.2621 -0.4001
 2855TIP3    H130056   5.527   2.229  13.737  1.6794 -1.3336  1.2120
 2855TIP3    H230057   5.423   2.120  13.722  0.1041  0.3737 -0.4859
 2856TIP3   OH230058   4.661   3.403  16.185  0.1946  0.1069  0.3424
 2856TIP3    H130059   4.649   3.423  16.278 -0.8848 -1.3175  0.5156
 2856TIP3    H230060   4.581   3.433  16.143  0.9512  1.3552 -0.2473
 2857TIP3   OH230061   6.280   1.127  14.195 -0.2416 -0.3256  0.5247
 2857TIP3    H130062   6.277   1.180  14.275 -1.2457  0.1184  0.2005
 2857TIP3    H230063   6.306   1.040  14.225  0.7409  0.1736  1.1524
 2858TIP3   OH230064   5.419   3.316  16.853  0.4119 -0.0291 -0.0443
 2858TIP3    H130065   5.480   3.268  16.797 -0.0981  0.1341 -0.7338
 2858TIP3    H230066   5.462   3.400  16.869  1.3741 -0.7489  1.2880
 2859TIP3   OH230067   4.057   1.065  12.221  0.2383  0.4106 -0.1696
 2859TIP3    H130068   4.142   1.043  12.259  0.9414  1.9579 -0.8234
 2859TIP3    H230069   4.006   1.099  12.294 -0.1029 -1.2268  0.3832
 2860TIP3   OH230070   3.367   5.636   6.140  0.8642 -0.2079  0.0177
 2860TIP3    H130071   3.343   5.728   6.150  1.2432 -0.2564  1.5394
 2860TIP3    H230072   3.284   5.589   6.149  0.7885 -0.0620  0.0832
 2861TIP3   OH230073   5.728   1.562   1.515 -0.8149  0.5844 -0.2831
 2861TIP3    H130074   5.805   1.508   1.496 -1.6364 -0.3558 -0.9664
 2861TIP3    H230075   5.712   1.611   1.435 -2.3065 -0.9414 -0.9435
 2862TIP3   OH230076   6.073   3.853   0.007 -0.5561 -0.1472 -0.1804
 2862TIP3    H130077   6.083   3.796  -0.070 -0.2687 -0.7950  0.3306
 2862TIP3    H230078   5.990   3.899  -0.007 -0.1848  0.2324 -1.2013
 2863TIP3   OH230079   1.535   2.807   3.763 -0.1687 -0.7871  0.5486
 2863TIP3    H130080   1.593   2.879   3.740 -1.0047  0.0888  1.1282
 2863TIP3    H230081   1.449   2.834   3.730 -0.3121 -1.9237 -0.0154
 2864TIP3   OH230082   6.377   4.333   3.062 -0.1084 -0.8028 -0.1443
 2864TIP3    H130083   6.322   4.255   3.063  0.3383 -1.1127  0.3077
 2864TIP3    H230084   6.383   4.360   3.153 -2.6597  1.4701 -0.5589
 2865TIP3   OH230085   4.970   0.805   5.531 -0.3663 -0.6759 -0.0414
 2865TIP3    H130086   5.008   0.817   5.618 -2.6833  0.0288  0.9178
 2865TIP3    H230087   5.001   0.881   5.481 -0.9239  0.1941  0.9003
 2866TIP3   OH230088   0.066   1.575  15.554 -0.3270 -0.0730  0.1724
 2866TIP3    H130089   0.033   1.530  15.477 -0.1651 -0.1133  0.1258
 2866TIP3    H230090   0.125   1.642  15.519  1.8462 -1.8228  0.3740
 2867TIP3   OH230091   6.186   0.578  11.718 -0.0557 -0.1202 -0.0451
 2867TIP3    H130092   6.224   0.504  11.672  3.5719  1.0364  0.9075
 2867TIP3    H230093   6.261   0.621  11.760 -2.2872  3.0344  0.8863
 2868TIP3   OH230094   2.769   5.590   1.229  0.6285 -0.4949  0.3211
 2868TIP3    H130095   2.740   5.677   1.200  1.9962 -0.5459 -1.3267
 2868TIP3    H230096   2.738   5.531   1.160  2.4238 -0.8628 -0.1965
 2869TIP3   OH230097   6.806   1.131   0.115 -0.5718  0.1505  0.5303
 2869TIP3    H130098   6.779   1.109   0.026 -1.5628  1.3447  0.5263
 2869TIP3    H230099   6.833   1.047   0.153 -0.9730 -0.5067 -0.6019
 2870TIP3   OH230100   6.642   5.837   2.645 -0.4168  0.0037  0.1272
 2870TIP3    H130101   6.657   5.787   2.565  0.8603  0.5678  0.0117
 2870TIP3    H230102   6.689   5.790   2.713  2.3094  1.9690 -0.3102
 2871TIP3   OH230103   4.635   1.837  13.705  0.4166 -0.2607  0.1321
 2871TIP3    H130104   4.629   1.921  13.660 -1.0146  0.9680  2.4796
 2871TIP3    H230105   4.552   1.830  13.752  1.9873 -1.2561  2.8689
 2872TIP3   OH230106   0.657   2.878  14.198  0.5542  0.1479  0.4868
 2872TIP3    H130107   0.616   2.891  14.283 -0.3889  1.2686 -0.1206
 2872TIP3    H230108   0.751   2.883  14.216  0.3309  2.1824  1.1998
 2873TIP3   OH230109   5.653   1.912  12.843  0.7199  0.0383 -0.1198
 2873TIP3    H130110   5.744   1.884  12.834  0.0777 -1.7759 -1.3786
 2873TIP3    H230111   5.650   1.998  12.800  1.6269 -0.3637 -1.0135
 2874TIP3   OH230112   2.635   6.229  12.662  0.0343  0.0942  0.7965
 2874TIP3    H130113   2.648   6.308  12.610 -0.1969  0.3377  1.1078
 2874TIP3    H230114   2.723   6.191  12.671 -0.0082 -0.2771 -0.2853
 2875TIP3   OH230115   0.205   2.170   5.608  0.1800 -0.6799 -0.1837
 2875TIP3    H130116   0.172   2.098   5.662 -0.2011  1.2405  2.2233
 2875TIP3    H230117   0.245   2.231   5.670 -0.8752  1.9464 -1.9960
 2876TIP3   OH230118   6.283   0.740  16.063  0.2592  0.4998 -0.2367
 2876TIP3    H130119   6.313   0.787  16.141 -1.2812  1.8062 -0.3929
 2876TIP3    H230120   6.360   0.694  16.031  0.8439 -0.3698  2.2749
 2877TIP3   OH230121   3.288   0.338   5.599 -0.1479  0.3732 -0.1109
 2877TIP3    H130122   3.258   0.411   5.653 -0.4174 -0.7489  1.2834
 2877TIP3    H230123   3.380   0.327   5.624 -0.7683 -1.3221  1.4729
 2878TIP3   OH230124   5.843   1.129  13.796  0.1154 -0.0733 -0.8462
 2878TIP3    H130125   5.784   1.175  13.856  2.0629  2.5306 -0.8286
 2878TIP3    H230126   5.891   1.067  13.852  0.2744  0.7066 -0.1013
 2879TIP3   OH230127   3.495   2.542   0.988 -0.0166 -0.0475  0.2593
 2879TIP3    H130128   3.582   2.536   0.948 -0.9019 -2.9272 -1.4221
 2879TIP3    H230129   3.495   2.475   1.056 -0.8877 -0.0503  0.2633
 2880TIP3   OH230130   3.367   4.828   2.114  0.4777  0.5380  0.5459
 2880TIP3    H130131   3.423   4.751   2.101  0.9182  1.1876 -1.5321
 2880TIP3    H230132   3.378   4.850   2.207  0.0416 -2.1261  1.2743
 2881TIP3   OH230133   6.240   4.026  14.498 -0.1610 -0.3649 -0.4344
 2881TIP3    H130134   6.325   4.056  14.529 -0.3453 -0.8601  0.5315
 2881TIP3    H230135   6.177   4.059  14.563 -0.4853 -1.8793  0.0375
 2882TIP3   OH230136   3.836   3.479  15.060 -0.2709 -0.1511 -0.1845
 2882TIP3    H130137   3.813   3.571  15.046  0.6437  0.3539  1.4439
 2882TIP3    H230138   3.753   3.435  15.075 -0.7057  0.4278 -0.8600
 2883TIP3   OH230139   4.769   2.959  11.733  0.0176 -0.0466 -0.8048
 2883TIP3    H130140   4.723   2.876  11.721  1.3210 -0.7740 -0.9356
 2883TIP3    H230141   4.759   2.979  11.826  0.6294 -0.9359 -0.5358
 2884TIP3   OH230142   5.443   0.133   1.898  0.1798 -0.2413  0.8047
 2884TIP3    H130143   5.479   0.053   1.859 -0.2595  0.3085 -0.7589
 2884TIP3    H230144   5.389   0.101   1.971 -1.5279 -1.5472 -0.9644
 2885TIP3   OH230145   6.263   1.890  14.640  0.5478 -0.1729  0.8525
 2885TIP3    H130146   6.285   1.964  14.583 -3.0981  0.7504  0.5247
 2885TIP3    H230147   6.242   1.930  14.724 -1.2926 -0.8212  0.7193
 2886TIP3   OH230148   0.124   0.435  15.656 -0.1362  0.0875  0.0316
 2886TIP3    H130149   0.208   0.414  15.613  0.4337 -0.7605  1.4958
 2886TIP3    H230150   0.143   0.512  15.710 -0.8209  1.0931 -1.1645
 2887TIP3   OH230151   2.862   2.166  15.204 -0.2080  0.1146 -0.1358
 2887TIP3    H130152   2.849   2.085  15.253 -1.5402  1.0063  1.0241
 2887TIP3    H230153   2.860   2.139  15.112 -0.2036 -1.2127  0.2425
 2888TIP3   OH230154   3.438   0.552   3.774 -0.9229  0.2787 -0.2188
 2888TIP3    H130155   3.442   0.646   3.793 -0.1145  0.3657 -0.8077
 2888TIP3    H230156   3.494   0.512   3.841 -0.9336  0.2534 -0.2251
 2889TIP3   OH230157   6.278   5.405   0.377 -0.2467 -0.2487  0.1323
 2889TIP3    H130158   6.366   5.395   0.412 -0.8184 -4.0892  0.6699
 2889TIP3    H230159   6.290   5.403   0.282  0.3283 -0.0120  0.1993
 2890TIP3   OH230160   2.406   4.916   1.007 -0.5931  0.1470 -0.1472
 2890TIP3    H130161   2.418   4.932   1.101 -2.0516 -0.1475  0.1032
 2890TIP3    H230162   2.417   4.822   0.997  1.1229  0.3786 -0.5297
 2891TIP3   OH230163   1.278   5.568  10.789 -0.0915 -0.5145 -0.2993
 2891TIP3    H130164   1.280   5.535  10.880  1.9052  1.3893  0.3871
 2891TIP3    H230165   1.366   5.551  10.756 -0.6849 -0.7880 -1.7519
 2892TIP3   OH230166   2.566   6.551   2.293  0.4503 -0.4597 -0.2723
 2892TIP3    H130167   2.528   6.638   2.302  2.9830  0.8342 -1.4039
 2892TIP3    H230168   2.527   6.515   2.214 -0.0576 -0.0468 -0.2070
 2893TIP3   OH230169   4.556   2.325   3.403  0.1817 -0.3441  0.1493
 2893TIP3    H130170   4.502   2.328   3.324 -1.4312  1.6160  1.2680
 2893TIP3    H230171   4.624   2.390   3.388 -0.8776  0.9644  0.8470
 2894TIP3   OH230172   2.524   2.535   2.423 -0.0499 -0.1377  0.2326
 2894TIP3    H130173   2.618   2.543   2.405 -0.0992 -0.8275 -0.3319
 2894TIP3    H230174   2.513   2.577   2.508  0.6813  0.4458  0.0486
 2895TIP3   OH230175   4.913   5.441  13.993  0.2974 -0.1694  0.6116
 2895TIP3    H130176   4.971   5.471  13.923 -1.1426  0.7144 -0.2506
 2895TIP3    H230177   4.930   5.347  14.000  1.6582  0.0381  0.2395
 2896TIP3   OH230178   0.712   4.128   0.834 -0.5364  0.2999  0.2281
 2896TIP3    H130179   0.697   4.043   0.874  0.1386  0.9065  1.8116
 2896TIP3    H230180   0.758   4.179   0.901  0.9973  1.2204 -1.4597
 2897TIP3   OH230181   6.362   2.869   3.640  0.3256  0.1263 -0.8459
 2897TIP3    H130182   6.306   2.792   3.631 -0.5474  0.8656 -1.8262
 2897TIP3    H230183   6.438   2.849   3.585  1.3238 -1.1298  0.9556
 2898TIP3   OH230184   6.162   6.015  12.878  0.3479 -0.3191 -0.0586
 2898TIP3    H130185   6.121   6.088  12.832 -0.0534  0.2623  1.2035
 2898TIP3    H230186   6.198   5.960  12.808  0.3421  0.8932 -1.0318
 2899TIP3   OH230187   5.030   0.361  11.012  0.2387 -0.2686 -0.1884
 2899TIP3    H130188   4.942   0.400  11.007 -0.8482 -2.5068  0.5343
 2899TIP3    H230189   5.090   0.435  11.006 -1.7338  1.4813  0.9493
 2900TIP3   OH230190   6.322   6.490  13.431 -0.1032  0.2816  0.1070
 2900TIP3    H130191   6.394   6.434  13.402  0.1333  0.0960  1.0225
 2900TIP3    H230192   6.306   6.549  13.358  1.3412  0.6732  0.0849
 2901TIP3   OH230193   3.976   4.505   6.586  0.0892  0.2329 -0.1373
 2901TIP3    H130194   3.918   4.437   6.621  1.2821 -0.6631  0.1101
 2901TIP3    H230195   3.944   4.519   6.497 -1.5150  0.8952  0.5121
 2902TIP3   OH230196   1.070   4.315  11.067 -0.3988  0.6059 -0.0414
 2902TIP3    H130197   1.099   4.406  11.057  2.0863 -0.1995 -0.5603
 2902TIP3    H230198   1.043   4.289  10.979  1.2083  0.1109 -0.4034
 2903TIP3   OH230199   3.708   0.627   3.027 -0.4360  0.1356 -0.0550
 2903TIP3    H130200   3.670   0.548   3.066 -0.7697 -0.8974 -2.4010
 2903TIP3    H230201   3.802   0.614   3.032 -0.4858 -0.2324 -0.0879
 2904TIP3   OH230202   3.192   1.305  11.424  0.3336 -0.0207 -0.0307
 2904TIP3    H130203   3.152   1.223  11.397  0.0829  0.6513 -1.7724
 2904TIP3    H230204   3.284   1.285  11.436  0.3401 -0.4868 -0.8183
 2905TIP3   OH230205   4.224   0.616   1.571 -0.0507  0.2540  0.1238
 2905TIP3    H130206   4.174   0.537   1.552 -0.4550  0.5109  0.1243
 2905TIP3    H230207   4.268   0.637   1.488  0.4485 -0.2456  0.2540
 2906TIP3   OH230208   5.449   6.517  12.408  0.7605 -0.0811 -0.1989
 2906TIP3    H130209   5.383   6.481  12.349 -0.0323  0.2144  0.5030
 2906TIP3    H230210   5.401   6.542  12.487  2.0228 -1.7365  1.1357
 2907TIP3   OH230211   4.234   5.773  12.628 -0.0251 -0.0538  0.5086
 2907TIP3    H130212   4.290   5.846  12.652  0.6294  0.0835 -1.3756
 2907TIP3    H230213   4.266   5.700  12.680 -0.0899  0.7551  1.7095
 2908TIP3   OH230214   6.638   5.642   2.428 -0.3840 -0.3838 -0.0309
 2908TIP3    H130215   6.634   5.698   2.350  0.0262  0.3457  0.4610
 2908TIP3    H230216   6.577   5.571   2.410 -0.7773  0.1294 -0.7449
 2909TIP3   OH230217   5.713   1.602   6.209 -0.3040  0.5890 -0.0812
 2909TIP3    H130218   5.768   1.641   6.277 -0.6379 -0.5748  0.8641
 2909TIP3    H230219   5.713   1.508   6.229 -1.2643  0.3708 -1.0728
 2910TIP3   OH230220   3.440   2.351   3.936  0.4819  0.2901 -0.1705
 2910TIP3    H130221   3.373   2.284   3.948  0.9038 -0.2140 -0.6055
 2910TIP3    H230222   3.411   2.401   3.860 -0.1780  1.0297  0.5559
 2911TIP3   OH230223   1.745   1.875  13.401 -0.0721  0.9369 -0.0651
 2911TIP3    H130224   1.779   1.810  13.340  0.3367  0.8128  0.2942
 2911TIP3    H230225   1.759   1.837  13.488 -1.0751  0.9050  0.0958
 2912TIP3   OH230226   6.352   4.917   3.799  0.7408 -0.2860 -0.4460
 2912TIP3    H130227   6.262   4.902   3.769  1.0918 -2.8919 -0.3065
 2912TIP3    H230228   6.346   4.914   3.895  0.9067 -0.1223 -0.4314
 2913TIP3   OH230229   3.095   0.537   3.861 -0.6305  0.2758 -0.2200
 2913TIP3    H130230   3.086   0.534   3.765 -0.7841 -0.9250 -0.1735
 2913TIP3    H230231   3.005   0.550   3.892 -0.8876 -1.4518 -0.1692
 2914TIP3   OH230232   6.566   4.454  16.377 -0.0641  0.2587  0.3351
 2914TIP3    H130233   6.482   4.497  16.395  0.5715  1.2846  0.8768
 2914TIP3    H230234   6.557   4.367  16.418 -1.1242  0.0885 -0.2346
 2915TIP3   OH230235   4.664   5.978  10.812  0.3558 -0.0948 -0.4173
 2915TIP3    H130236   4.668   5.947  10.902  0.2189 -0.7026 -0.6201
 2915TIP3    H230237   4.597   5.924  10.771 -0.5501  1.0966 -0.5247
 2916TIP3   OH230238   6.748   1.093   5.218  0.1956 -0.0124 -0.5636
 2916TIP3    H130239   6.802   1.172   5.225 -0.0154  0.1906 -1.1873
 2916TIP3    H230240   6.701   1.104   5.135 -1.9072  0.5016  0.6512
 2917TIP3   OH230241   1.717   0.570   3.454  0.3944  0.0544  0.0690
 2917TIP3    H130242   1.718   0.491   3.400  2.6132  0.8017 -1.0382
 2917TIP3    H230243   1.796   0.563   3.508 -0.8851  0.1595  2.0158
 2918TIP3   OH230244   2.745   4.739  14.310  0.2745 -0.3775  0.2990
 2918TIP3    H130245   2.712   4.781  14.389 -0.4559 -1.4672  0.5818
 2918TIP3    H230246   2.840   4.749  14.315  0.2148 -0.2795  1.2211
 2919TIP3   OH230247   3.498   2.924  15.285 -0.4365 -0.5021 -0.0279
 2919TIP3    H130248   3.411   2.892  15.260 -0.2896 -1.0910  0.2120
 2919TIP3    H230249   3.487   3.019  15.292 -1.3709 -0.6821  1.1663
 2920TIP3   OH230250   3.972   1.007  13.318 -0.3564 -0.0536 -0.0422
 2920TIP3    H130251   3.923   1.044  13.391 -1.7453 -0.9741 -0.4947
 2920TIP3    H230252   4.029   0.942  13.359 -1.4989 -0.9342  0.1763
 2921TIP3   OH230253   0.197   0.347   4.105  0.3672 -0.1677 -0.1601
 2921TIP3    H130254   0.157   0.276   4.154 -1.0862  0.5689 -0.2492
 2921TIP3    H230255   0.133   0.418   4.109  2.3413  1.5927  0.9978
 2922TIP3   OH230256   1.516   1.843   4.041  0.0392  0.2952 -0.2295
 2922TIP3    H130257   1.441   1.786   4.059 -2.1128  2.8929 -0.7538
 2922TIP3    H230258   1.558   1.854   4.126  0.2150 -1.6863 -0.0381
 2923TIP3   OH230259   4.385   2.777  11.724 -0.2567  0.2417  0.4604
 2923TIP3    H130260   4.332   2.803  11.649 -0.7496  1.3028  1.1749
 2923TIP3    H230261   4.442   2.708  11.690 -1.4007 -0.2114 -0.5483
 2924TIP3   OH230262   1.530   0.429  14.414 -0.4831  0.0100  0.3925
 2924TIP3    H130263   1.445   0.410  14.374 -0.3836  1.7889 -0.7240
 2924TIP3    H230264   1.535   0.524  14.417  1.2218 -0.0738  0.9790
 2925TIP3   OH230265   0.932   2.282   4.005 -0.0063  0.0570 -0.2330
 2925TIP3    H130266   0.949   2.228   3.928 -2.2271 -0.1912 -0.5804
 2925TIP3    H230267   0.911   2.369   3.970 -0.4733  0.0890  0.1232
 2926TIP3   OH230268   6.518   5.708   6.105  0.3049 -0.4437  0.5520
 2926TIP3    H130269   6.481   5.645   6.168 -0.2498  0.9280  1.6352
 2926TIP3    H230270   6.485   5.793   6.135  2.2472  0.5337 -0.0092
 2927TIP3   OH230271   4.079   3.418   1.772 -0.1899  0.5214 -0.5346
 2927TIP3    H130272   3.990   3.397   1.800 -0.6327  1.4488 -1.2123
 2927TIP3    H230273   4.078   3.406   1.677  0.1295  1.4733 -0.6697
 2928TIP3   OH230274   0.710   4.456  16.125 -0.3611 -0.6953 -0.0316
 2928TIP3    H130275   0.659   4.512  16.184 -1.6965 -0.7746 -1.0811
 2928TIP3    H230276   0.680   4.367  16.145 -0.6773 -0.7383 -0.6776
 2929TIP3   OH230277   6.749   0.358  13.322 -0.1619  0.0616 -0.2549
 2929TIP3    H130278   6.758   0.452  13.308  1.2933  0.1450  1.0672
 2929TIP3    H230279   6.658   0.339  13.301 -0.0343  1.4586 -2.2199
 2930TIP3   OH230280   2.942   3.902  11.914 -0.0525 -0.4469  0.2198
 2930TIP3    H130281   2.935   3.834  11.982  1.5821  1.2336  2.1372
 2930TIP3    H230282   3.016   3.875  11.861 -1.0766 -1.5495 -0.6832
 2931TIP3   OH230283   6.325   5.436   0.089 -0.0141 -0.2244 -0.0946
 2931TIP3    H130284   6.307   5.527   0.065  0.7755 -0.2012 -0.6457
 2931TIP3    H230285   6.420   5.427   0.077 -0.2244 -1.3838 -1.0026
 2932TIP3   OH230286   2.633   5.004   3.864  0.1865 -0.8023  0.1763
 2932TIP3    H130287   2.573   4.930   3.858  0.3605 -1.0929  1.7892
 2932TIP3    H230288   2.644   5.033   3.773 -0.6713 -2.1088 -0.3674
 2933TIP3   OH230289   1.327   2.707  15.481  0.7921 -0.5036  0.0643
 2933TIP3    H130290   1.245   2.752  15.459  0.6179 -0.5692  0.5860
 2933TIP3    H230291   1.302   2.615  15.491  1.0868 -0.6691 -0.6470
 2934TIP3   OH230292   4.398   5.831   4.558 -0.2375  0.3203 -0.5506
 2934TIP3    H130293   4.382   5.846   4.652  0.2957  2.1641 -0.7319
 2934TIP3    H230294   4.325   5.876   4.514 -0.6206 -0.7489 -1.0257
 2935TIP3   OH230295   0.579   0.680   1.641 -0.3503  0.1257  0.0409
 2935TIP3    H130296   0.499   0.651   1.685 -1.0892  0.3698 -1.1145
 2935TIP3    H230297   0.558   0.674   1.548  0.6505  1.1430 -0.2534
 2936TIP3   OH230298   4.419   4.668  17.023  0.0800 -0.2931 -0.3034
 2936TIP3    H130299   4.476   4.682  17.099  0.4400 -2.4717 -0.1565
 2936TIP3    H230300   4.470   4.701  16.949  0.6532 -0.2716  0.0936
 2937TIP3   OH230301   1.630   3.454  11.131  0.1505 -0.5909 -0.1254
 2937TIP3    H130302   1.715   3.460  11.089  0.6556  0.9562  1.0633
 2937TIP3    H230303   1.583   3.533  11.102 -0.7470 -1.2534 -0.5010
 2938TIP3   OH230304   4.127   3.222   3.846 -0.4687  0.0645  0.0657
 2938TIP3    H130305   4.059   3.263   3.794  1.0227  0.3828 -1.6746
 2938TIP3    H230306   4.115   3.259   3.934 -1.3430  1.5530 -0.6600
 2939TIP3   OH230307   4.387   3.152  11.602  0.4412 -0.5327  0.1090
 2939TIP3    H130308   4.405   3.159  11.509  0.4972 -0.2643  0.1412
 2939TIP3    H230309   4.453   3.206  11.645 -0.7490  0.8731  0.1899
 2940TIP3   OH230310   5.344   6.425   6.271 -0.4817 -0.0039  0.6127
 2940TIP3    H130311   5.313   6.337   6.250  2.5969 -0.9032 -0.5460
 2940TIP3    H230312   5.304   6.481   6.205 -0.7352 -0.8946 -0.0079
 2941TIP3   OH230313   0.199   1.714  14.662  0.3069 -0.2115  0.2377
 2941TIP3    H130314   0.164   1.717  14.751  0.4755  0.2206  0.2919
 2941TIP3    H230315   0.143   1.773  14.612  0.1104 -0.5803  0.0181
 2942TIP3   OH230316   1.352   0.288  16.133 -0.0569 -0.5180 -0.1491
 2942TIP3    H130317   1.331   0.226  16.204  0.0278 -0.2542  0.1105
 2942TIP3    H230318   1.442   0.315  16.151  0.4084 -1.4240 -1.0874
 2943TIP3   OH230319   5.923   4.228  15.199 -0.5784  0.1495 -0.1195
 2943TIP3    H130320   5.852   4.164  15.195 -0.1003 -0.3902 -0.0903
 2943TIP3    H230321   5.987   4.189  15.260 -0.0048  0.3677 -0.5778
 2944TIP3   OH230322   2.021   2.301  15.020  0.1664 -0.8528  0.1968
 2944TIP3    H130323   2.037   2.372  15.082 -0.5219 -1.3761  0.9947
 2944TIP3    H230324   1.928   2.281  15.030  0.1909 -1.3642 -0.5508
 2945TIP3   OH230325   4.640   0.833   2.621 -0.6224 -0.2896  0.0941
 2945TIP3    H130326   4.666   0.770   2.553 -0.7047 -0.2519  0.0272
 2945TIP3    H230327   4.702   0.819   2.692  0.1222  0.4083 -0.4136
 2946TIP3   OH230328   5.994   6.350   1.211  0.4283 -0.7778  0.0254
 2946TIP3    H130329   6.046   6.421   1.175 -0.8108 -0.0453 -0.3242
 2946TIP3    H230330   6.000   6.280   1.146 -0.5830 -0.0024 -0.9103
 2947TIP3   OH230331   5.978   2.643   3.990  0.4690 -0.0450 -0.4439
 2947TIP3    H130332   5.947   2.721   4.036  0.4051  0.2378 -0.9655
 2947TIP3    H230333   5.984   2.669   3.898 -0.0295 -0.8028 -0.6978
 2948TIP3   OH230334   4.425   2.998  11.840 -0.3521 -0.3116  0.2511
 2948TIP3    H130335   4.374   3.054  11.782 -0.2726  0.9074  1.3255
 2948TIP3    H230336   4.430   2.914  11.795 -1.4591  0.2056 -0.8551
 2949TIP3   OH230337   6.757   6.360  13.559  0.3596 -0.0766 -0.0123
 2949TIP3    H130338   6.729   6.323  13.643 -2.8526  2.6959  0.2326
 2949TIP3    H230339   6.838   6.407  13.580  0.4829 -0.7894  1.1722
 2950TIP3   OH230340   2.204   1.884  11.843  0.0916  0.0355  0.1326
 2950TIP3    H130341   2.284   1.882  11.789  0.5666 -1.4336  0.8567
 2950TIP3    H230342   2.223   1.825  11.916 -1.7950 -0.5931  0.1421
 2951TIP3   OH230343   6.421   1.684   2.158 -0.0938 -0.1251  0.3470
 2951TIP3    H130344   6.329   1.661   2.143 -0.1285 -0.8446  1.6239
 2951TIP3    H230345   6.461   1.604   2.192  0.6156  0.6578  1.3877
 2952TIP3   OH230346   4.801   2.625   1.699 -0.1593 -0.0555  0.0416
 2952TIP3    H130347   4.781   2.532   1.685 -1.9084  0.4590 -1.0073
 2952TIP3    H230348   4.726   2.672   1.662  0.9872  1.8076  0.0060
 2953TIP3   OH230349   3.148   1.020  15.200 -0.0852  0.1341 -0.1399
 2953TIP3    H130350   3.175   0.996  15.111 -0.8008  2.5138 -1.0373
 2953TIP3    H230351   3.142   0.937  15.246  1.3606 -1.0615 -2.0124
 2954TIP3   OH230352   5.766   0.851  17.275  0.4424  0.2974  0.3362
 2954TIP3    H130353   5.778   0.761  17.307  1.1766  0.8702  1.7052
 2954TIP3    H230354   5.683   0.879  17.314 -0.4349 -0.2234 -1.1286
 2955TIP3   OH230355   1.855   4.429  14.153  0.0606  0.5403  0.1853
 2955TIP3    H130356   1.887   4.354  14.104 -0.0434  0.9747 -0.5666
 2955TIP3    H230357   1.867   4.503  14.094 -0.2349  1.0498  0.7520
 2956TIP3   OH230358   1.558   4.621  14.891  0.5071  0.9497  0.2094
 2956TIP3    H130359   1.565   4.702  14.940  3.2576  0.4747  0.6621
 2956TIP3    H230360   1.599   4.555  14.946 -0.6238 -0.5456 -0.6719
 2957TIP3   OH230361   4.774   2.983   0.654 -0.6059 -0.0256 -0.0243
 2957TIP3    H130362   4.722   2.961   0.731 -0.1712  0.1327  0.3161
 2957TIP3    H230363   4.851   2.926   0.660 -0.3636  0.2909 -0.1117
 2958TIP3   OH230364   5.104   4.945  11.323 -0.2096  0.3007 -0.7432
 2958TIP3    H130365   5.188   4.914  11.356 -1.2942 -0.1336  1.7033
 2958TIP3    H230366   5.085   5.023  11.376 -1.9385 -0.3384 -0.3925
 2959TIP3   OH230367   5.276   2.286   2.148  0.4797  0.2166  0.1779
 2959TIP3    H130368   5.254   2.281   2.241 -1.2887 -0.4673 -0.2619
 2959TIP3    H230369   5.318   2.203   2.128 -0.6979 -0.3391 -0.0162
 2960TIP3   OH230370   6.721   3.627   0.042 -0.1419 -0.0371 -0.2835
 2960TIP3    H130371   6.712   3.651  -0.050  0.6644 -0.8430 -0.5786
 2960TIP3    H230372   6.654   3.559   0.055  0.3799 -0.6031 -0.5248
 2961TIP3   OH230373   6.746   4.074   0.022 -0.1142 -0.0911 -0.1664
 2961TIP3    H130374   6.786   3.988   0.012  0.0320 -0.1723  1.1130
 2961TIP3    H230375   6.814   4.136  -0.003  1.4665 -0.1429  3.7116
 2962TIP3   OH230376   3.245   3.278   4.299 -0.0818 -0.3747  0.3114
 2962TIP3    H130377   3.256   3.349   4.235  1.6305 -0.7198  0.1895
 2962TIP3    H230378   3.285   3.202   4.257  0.1853 -0.8453  1.3957
 2963TIP3   OH230379   0.401   0.161   5.508  0.0080 -0.2689  0.0307
 2963TIP3    H130380   0.424   0.076   5.545 -1.4999 -0.2669  0.9875
 2963TIP3    H230381   0.305   0.160   5.501  0.0762  0.7295 -1.4639
 2964TIP3   OH230382   2.856   4.417   0.554 -0.3175  0.0190 -0.0639
 2964TIP3    H130383   2.922   4.443   0.618 -0.9487  0.6827  0.3400
 2964TIP3    H230384   2.776   4.462   0.583 -1.3077 -1.9091  0.2949
 2965TIP3   OH230385   1.661   6.793  12.248 -0.4473  0.3770 -0.6730
 2965TIP3    H130386   1.709   6.835  12.319  1.5141  1.5351 -2.6093
 2965TIP3    H230387   1.708   6.711  12.232 -1.0752 -0.0344 -0.4306
 2966TIP3   OH230388   2.546   1.942   4.935  0.1796 -0.1598  0.9405
 2966TIP3    H130389   2.463   1.987   4.946 -0.6552 -1.1912 -0.9731
 2966TIP3    H230390   2.525   1.849   4.946  1.3635 -0.3231  1.9862
 2967TIP3   OH230391   5.447   4.595  17.264  0.2261 -0.1471 -0.2750
 2967TIP3    H130392   5.511   4.634  17.204  0.5883  1.1227  0.9090
 2967TIP3    H230393   5.376   4.659  17.269  1.3446  0.9792  2.5701
 2968TIP3   OH230394   1.452   1.508   1.900 -0.2971 -0.3231 -0.1541
 2968TIP3    H130395   1.506   1.466   1.834 -2.1730 -2.1532 -0.6065
 2968TIP3    H230396   1.439   1.597   1.869  0.0141 -0.7514 -1.5221
 2969TIP3   OH230397   5.115   3.470   4.641 -0.2046  0.3139 -0.0898
 2969TIP3    H130398   5.078   3.524   4.571 -0.9726  1.7251  1.3932
 2969TIP3    H230399   5.210   3.477   4.629 -0.3069  1.7706 -0.0698
 2970TIP3   OH230400   2.100   5.615   2.395 -0.2924  0.1413 -0.6468
 2970TIP3    H130401   2.117   5.642   2.305  0.4673 -0.5231 -0.7040
 2970TIP3    H230402   2.167   5.660   2.447 -2.0260  2.1961 -0.1455
 2971TIP3   OH230403   2.885   2.483   0.872  0.3490 -0.6033 -0.2519
 2971TIP3    H130404   2.871   2.575   0.851  1.5347 -0.2417  0.5009
 2971TIP3    H230405   2.953   2.454   0.811  1.1798 -0.5174  0.6089
 2972TIP3   OH230406   4.186   6.648  12.099 -0.8010 -0.7046  0.4081
 2972TIP3    H130407   4.218   6.692  12.020 -0.3348  0.0049  0.9884
 2972TIP3    H230408   4.191   6.715  12.167 -1.2457 -1.3022  1.0329
 2973TIP3   OH230409   4.398   4.695   4.696 -0.3504  0.4514 -0.2053
 2973TIP3    H130410   4.422   4.784   4.672  2.1921 -0.1196  0.1220
 2973TIP3    H230411   4.335   4.668   4.628 -0.7028  2.2777 -0.6171
 2974TIP3   OH230412   6.409   3.478  14.890 -0.2486 -0.3180  0.2736
 2974TIP3    H130413   6.433   3.492  14.982 -1.3824  1.2221  0.3706
 2974TIP3    H230414   6.315   3.498  14.887  0.0942  1.1908 -1.5085
 2975TIP3   OH230415   3.389   5.098   1.309  0.0355  0.5132  0.4541
 2975TIP3    H130416   3.352   5.175   1.353  1.1950  1.1791  0.2936
 2975TIP3    H230417   3.480   5.094   1.340  0.3137 -0.1055 -0.4182
 2976TIP3   OH230418   4.724   0.562   2.759 -0.1832 -0.3427  0.3980
 2976TIP3    H130419   4.712   0.638   2.817  0.9769 -1.2061  1.7916
 2976TIP3    H230420   4.693   0.488   2.811  1.5400 -1.2224  0.1848
 2977TIP3   OH230421   4.700   3.373   2.987  0.8589 -0.8931 -0.0000
 2977TIP3    H130422   4.748   3.444   3.029 -0.2180  0.1679 -0.5044
 2977TIP3    H230423   4.749   3.354   2.908  2.1789 -2.0066  1.0756
 2978TIP3   OH230424   6.664   2.591   6.112  0.7994 -0.3873  0.0581
 2978TIP3    H130425   6.714   2.624   6.187 -0.5859  2.8943 -0.3672
 2978TIP3    H230426   6.696   2.643   6.038 -0.0347 -1.4454 -1.0648
 2979TIP3   OH230427   0.864   2.069   0.169  0.0664 -0.0751  0.1251
 2979TIP3    H130428   0.928   2.069   0.241 -0.6300  0.2698  0.7550
 2979TIP3    H230429   0.839   1.977   0.159  1.9224 -0.4709 -1.2830
 2980TIP3   OH230430   1.783   0.919  15.257  0.6017  0.5511 -0.0049
 2980TIP3    H130431   1.706   0.970  15.281 -1.5503 -2.3433 -0.6436
 2980TIP3    H230432   1.837   0.920  15.336 -1.7933 -0.5014  1.6827
 2981TIP3   OH230433   0.802   3.631   5.875 -0.0901 -0.1807 -0.3804
 2981TIP3    H130434   0.892   3.616   5.902 -0.1187 -0.8998 -0.6868
 2981TIP3    H230435   0.749   3.590   5.943 -0.2362  2.0726  0.9357
 2982TIP3   OH230436   1.328   5.728   0.739 -0.3256 -0.1736  0.2959
 2982TIP3    H130437   1.389   5.799   0.717  0.5822 -1.0462 -0.0290
 2982TIP3    H230438   1.369   5.684   0.813 -0.4077 -0.9563 -0.1208
 2983TIP3   OH230439   1.606   0.684   1.204  0.2670  0.1013 -0.1093
 2983TIP3    H130440   1.647   0.744   1.266 -0.4664  2.7712 -2.0710
 2983TIP3    H230441   1.528   0.651   1.249 -0.6074  2.5038  0.1938
 2984TIP3   OH230442   4.499   4.750   3.126 -0.6242 -0.3947  0.3777
 2984TIP3    H130443   4.546   4.802   3.192 -1.6897  2.1158 -0.7665
 2984TIP3    H230444   4.413   4.791   3.121 -1.0016 -1.3896 -1.6423
 2985TIP3   OH230445   4.380   6.531  15.640 -0.4256 -0.1425 -0.1685
 2985TIP3    H130446   4.459   6.563  15.684  0.3937 -1.2644 -0.7859
 2985TIP3    H230447   4.392   6.557  15.548 -0.5374 -0.7605 -0.3588
 2986TIP3   OH230448   5.277   1.766   4.258  0.3382  0.3753 -0.0031
 2986TIP3    H130449   5.308   1.822   4.186  1.3602  0.2104  0.2936
 2986TIP3    H230450   5.210   1.710   4.219 -0.5642  1.6733 -0.3505
 2987TIP3   OH230451   1.296   4.225   1.362 -0.2916 -0.4131 -0.6340
 2987TIP3    H130452   1.370   4.270   1.321 -0.2259 -1.7491 -2.0341
 2987TIP3    H230453   1.328   4.203   1.450 -0.1283  1.7076 -0.1521
 2988TIP3   OH230454   2.623   1.785  13.593 -0.1899  0.6144  0.1637
 2988TIP3    H130455   2.663   1.866  13.626  2.4715 -0.9322  0.8764
 2988TIP3    H230456   2.560   1.760  13.661  0.0280  1.3249  0.6302
 2989TIP3   OH230457   1.862   1.972   5.098 -0.7380 -0.2504 -0.0902
 2989TIP3    H130458   1.871   2.061   5.062 -1.8300  1.2295  3.1098
 2989TIP3    H230459   1.778   1.941   5.066 -0.3832 -0.1120 -1.1683
 2990TIP3   OH230460   4.766   4.791   1.919  0.2127 -0.0471  0.1703
 2990TIP3    H130461   4.847   4.837   1.942  0.8461 -0.5170 -1.0793
 2990TIP3    H230462   4.700   4.861   1.911  0.9786  0.5646 -0.8963
 2991TIP3   OH230463   6.542   4.938   4.952  0.0377  0.0339  0.1964
 2991TIP3    H130464   6.550   4.919   5.045 -1.3263  1.1370  0.5535
 2991TIP3    H230465   6.471   5.003   4.946 -0.2540 -0.4090 -1.6447
 2992TIP3   OH230466   5.749   1.763  12.243  0.1351  0.4653 -0.3358
 2992TIP3    H130467   5.801   1.832  12.283  0.1281  0.3310 -0.0940
 2992TIP3    H230468   5.753   1.690  12.305 -2.3755  1.2944  0.8916
 2993TIP3   OH230469   0.198   4.194  13.494  0.7705 -0.0101 -0.5375
 2993TIP3    H130470   0.121   4.230  13.451  1.3296  0.1109 -1.4718
 2993TIP3    H230471   0.166   4.118  13.542 -0.6091  2.3186  2.3351
 2994TIP3   OH230472   6.323   4.808  15.705 -0.1582  0.3688  0.1878
 2994TIP3    H130473   6.362   4.723  15.684 -0.6602  0.0748  0.4481
 2994TIP3    H230474   6.237   4.788  15.740 -0.2166  0.9794  0.4113
 2995TIP3   OH230475   2.797   6.660   1.682 -0.8069  0.0768 -0.1458
 2995TIP3    H130476   2.702   6.675   1.678 -0.7203  0.7950  0.4134
 2995TIP3    H230477   2.818   6.618   1.599 -1.2697  1.9132 -1.2328
 2996TIP3   OH230478   3.330   2.798  13.026  0.2198 -0.4442 -0.0439
 2996TIP3    H130479   3.253   2.785  12.971  0.0908  0.9362 -0.2207
 2996TIP3    H230480   3.306   2.762  13.111 -0.1468 -1.1800 -0.4541
 2997TIP3   OH230481   5.675   6.060   2.855 -0.0793  0.1229  0.3367
 2997TIP3    H130482   5.726   6.089   2.778 -0.8050  0.4712 -0.0193
 2997TIP3    H230483   5.656   5.968   2.837 -0.7576  0.3595 -0.1913
 2998TIP3   OH230484   4.174   2.063   2.638 -0.5738  0.1160  0.3168
 2998TIP3    H130485   4.263   2.037   2.660 -0.9250 -0.7173  0.7917
 2998TIP3    H230486   4.144   1.997   2.576 -0.2376  1.4137 -1.2737
 2999TIP3   OH230487   3.544   5.084   5.016  0.4708 -0.4302  0.0717
 2999TIP3    H130488   3.587   4.999   5.030 -0.5417 -0.9723 -0.0912
 2999TIP3    H230489   3.462   5.077   5.065  0.7350  0.7489  0.7062
 3000TIP3   OH230490   5.060   1.888  11.134  0.1712  0.0538  0.3536
 3000TIP3    H130491   4.969   1.860  11.133  0.5773 -1.2900  0.0766
 3000TIP3    H230492   5.096   1.854  11.216  0.5996  0.0058  0.1502
 3001TIP3   OH230493   2.612   6.390  14.949 -0.2366  0.3192 -0.1303
 3001TIP3    H130494   2.680   6.394  15.016  0.1971 -1.1201 -0.4738
 3001TIP3    H230495   2.582   6.299  14.951  0.1488  0.1229 -2.2434
 3002TIP3   OH230496   0.055   1.936  14.045 -0.2884  0.3708  0.5335
 3002TIP3    H130497   0.127   1.979  14.092 -1.3127  0.3639  2.1691
 3002TIP3    H230498   0.081   1.844  14.041  0.5006  0.6249 -0.2475
 3003TIP3   OH230499   5.754   4.522  16.739 -0.3839  0.0272  0.0087
 3003TIP3    H130500   5.787   4.462  16.805 -0.2948  0.6120  0.4951
 3003TIP3    H230501   5.660   4.503  16.734 -0.4228  0.1122  0.4368
 3004TIP3   OH230502   3.234   0.983  10.997 -0.2778  0.3228  0.1954
 3004TIP3    H130503   3.268   0.995  10.908  0.8447  1.8150  0.8026
 3004TIP3    H230504   3.160   1.044  11.002 -0.3567  0.2197  0.2764
 3005TIP3   OH230505   4.972   2.881   1.576  0.3711  0.0756 -0.0257
 3005TIP3    H130506   4.883   2.868   1.609  0.6574 -1.5799  0.1126
 3005TIP3    H230507   4.960   2.924   1.491 -0.4974  1.1504  0.6249
 3006TIP3   OH230508   4.137   2.554  11.696  0.1387 -0.6292 -0.6521
 3006TIP3    H130509   4.147   2.460  11.711 -0.1256 -0.7374 -1.1566
 3006TIP3    H230510   4.183   2.595  11.770  0.1417 -1.1524 -0.3623
 3007TIP3   OH230511   5.428   0.524   4.192 -0.5182 -0.6464 -0.7091
 3007TIP3    H130512   5.393   0.514   4.280 -0.3250 -4.0873 -0.9679
 3007TIP3    H230513   5.451   0.435   4.164  4.1109  0.8544 -2.3060
 3008TIP3   OH230514   0.233   4.135  16.034 -0.6087  0.4793 -0.0706
 3008TIP3    H130515   0.263   4.221  16.004  1.9182  0.3252  1.7706
 3008TIP3    H230516   0.167   4.154  16.100  0.2327  1.0541  0.6265
 3009TIP3   OH230517   5.983   6.074  13.317  0.6735  0.1341 -0.4347
 3009TIP3    H130518   5.912   6.083  13.253  0.5932  1.6745 -0.1487
 3009TIP3    H230519   5.939   6.068  13.402  0.8251 -0.5516 -0.4073
 3010TIP3   OH230520   4.910   2.204   0.493 -0.1854 -0.0540  0.0883
 3010TIP3    H130521   4.998   2.172   0.472  0.2870  1.4032 -0.2147
 3010TIP3    H230522   4.905   2.290   0.451 -1.2680  0.4616  1.2327
 3011TIP3   OH230523   2.137   2.832   2.534 -0.0071 -0.2963 -0.7212
 3011TIP3    H130524   2.230   2.852   2.539  0.2344 -1.3340 -1.1394
 3011TIP3    H230525   2.132   2.747   2.490 -1.1238 -0.4445 -0.3239
 3012TIP3   OH230526   5.391   5.133  12.577  0.0542  0.1738 -0.2663
 3012TIP3    H130527   5.364   5.183  12.499 -0.0877 -1.5103 -1.3210
 3012TIP3    H230528   5.320   5.146  12.640 -0.8081 -0.1073 -1.1736
 3013TIP3   OH230529   3.614   6.387  12.139  0.0560 -0.0454  0.7328
 3013TIP3    H130530   3.621   6.342  12.223 -0.7579 -0.0812  0.7856
 3013TIP3    H230531   3.635   6.320  12.074  0.6298 -0.0325  0.9025
 3014TIP3   OH230532   3.713   6.661   5.514 -0.1314  0.2749 -0.0997
 3014TIP3    H130533   3.733   6.702   5.599 -0.0942  0.5575 -0.2444
 3014TIP3    H230534   3.741   6.725   5.449  0.3936 -0.1885 -0.3367
 3015TIP3   OH230535   4.267   4.188   0.080 -0.2197  0.5719 -0.3445
 3015TIP3    H130536   4.269   4.094   0.061 -0.8718  0.4459  0.1616
 3015TIP3    H230537   4.356   4.218   0.064 -0.5764  0.3670 -2.9443
 3016TIP3   OH230538   2.793   4.444  14.126  0.1542 -0.0838 -0.6032
 3016TIP3    H130539   2.785   4.404  14.039  1.9427  0.3886 -1.0136
 3016TIP3    H230540   2.786   4.372  14.187  3.1149 -1.0793 -1.3224
 3017TIP3   OH230541   3.523   1.089   5.167 -0.0305 -0.3033 -0.4918
 3017TIP3    H130542   3.453   1.100   5.230  0.3484  0.6546 -0.2179
 3017TIP3    H230543   3.597   1.136   5.206  0.6778 -1.0745 -0.8977
 3018TIP3   OH230544   5.339   2.353   0.872 -0.0179  0.5187 -0.3089
 3018TIP3    H130545   5.313   2.357   0.780 -0.5058  1.0255 -0.1534
 3018TIP3    H230546   5.368   2.443   0.892  1.1289  0.1468 -0.2730
 3019TIP3   OH230547   0.574   1.622  14.146  0.4064 -0.3354  0.4802
 3019TIP3    H130548   0.542   1.532  14.142 -0.2514 -0.0584 -0.7890
 3019TIP3    H230549   0.525   1.662  14.218 -0.5748 -0.5092 -0.0829
 3020TIP3   OH230550   2.772   0.825   5.174  0.0568 -0.1001  0.0189
 3020TIP3    H130551   2.783   0.829   5.269 -0.6200 -0.5059  0.1249
 3020TIP3    H230552   2.860   0.830   5.138  0.1329  3.2202  0.5377
 3021TIP3   OH230553   6.141   3.081   1.695 -0.2043 -0.5047 -0.3407
 3021TIP3    H130554   6.054   3.075   1.734  0.3487  1.0092  1.1897
 3021TIP3    H230555   6.140   3.017   1.624 -2.2979 -1.0568  0.1548
 3022TIP3   OH230556   2.421   3.605   3.030 -0.4161 -0.0316  0.4656
 3022TIP3    H130557   2.511   3.605   2.996 -0.1939 -1.6308  1.0381
 3022TIP3    H230558   2.366   3.611   2.951  0.1806  3.3116  0.2148
 3023TIP3   OH230559   4.699   3.083   1.461  0.0810  0.1555 -0.2548
 3023TIP3    H130560   4.658   3.082   1.375  0.1041 -0.1590 -0.2638
 3023TIP3    H230561   4.792   3.102   1.444 -0.3012  2.2055 -0.1245
 3024TIP3   OH230562   2.704   0.596   4.303  0.1297  0.0483  0.3018
 3024TIP3    H130563   2.760   0.673   4.305  0.7429 -0.3913  0.2338
 3024TIP3    H230564   2.718   0.553   4.388 -0.1605 -0.0238  0.3159
 3025TIP3   OH230565   1.968   2.125   0.884  0.2267 -0.0142 -0.0307
 3025TIP3    H130566   2.043   2.086   0.838 -0.5239 -0.8769 -0.5265
 3025TIP3    H230567   1.894   2.112   0.825 -0.5244 -0.1308  0.9350
 3026TIP3   OH230568   5.000   1.859   3.468  0.2453  0.4639  0.1453
 3026TIP3    H130569   5.082   1.893   3.503  1.2020 -2.3024  0.6529
 3026TIP3    H230570   5.021   1.834   3.378  0.2920 -1.2956  0.6230
 3027TIP3   OH230571   1.061   4.849   2.333  0.2359  0.5789 -0.6159
 3027TIP3    H130572   0.976   4.861   2.377  0.6589 -0.9195  0.6535
 3027TIP3    H230573   1.070   4.927   2.278 -1.3684  1.3969  0.2234
 3028TIP3   OH230574   0.669   4.642   0.788  0.5053 -0.3129 -0.0124
 3028TIP3    H130575   0.731   4.631   0.717  0.0829 -2.8726 -0.0518
 3028TIP3    H230576   0.623   4.558   0.793 -1.5153  0.8148  1.3515
 3029TIP3   OH230577   1.150   1.509  11.445  0.2569 -0.6401 -0.6724
 3029TIP3    H130578   1.078   1.569  11.465  1.2249  0.4125 -0.3016
 3029TIP3    H230579   1.195   1.549  11.371  0.4720 -1.2923 -0.8983
 3030TIP3   OH230580   1.364   4.274   1.639 -0.3742  0.1346  0.0083
 3030TIP3    H130581   1.401   4.188   1.658  0.1494  0.3286 -0.1360
 3030TIP3    H230582   1.422   4.336   1.682  1.1554  0.6043 -2.6655
 3031TIP3   OH230583   4.066   5.409   0.118 -0.0179  0.0329  0.7676
 3031TIP3    H130584   4.081   5.343   0.051 -0.2432 -1.1355  1.8453
 3031TIP3    H230585   4.149   5.414   0.166  0.7677  2.2264 -0.7453
 3032TIP3   OH230586   0.305   6.303   6.291  0.6365  0.2469 -0.1748
 3032TIP3    H130587   0.378   6.337   6.344  0.0293 -0.7338  1.3233
 3032TIP3    H230588   0.226   6.330   6.338  0.1164 -2.3512  0.5588
 3033TIP3   OH230589   1.201   0.759   1.536  0.1922 -0.2999  0.1260
 3033TIP3    H130590   1.245   0.842   1.556 -0.8254 -0.1215  1.7171
 3033TIP3    H230591   1.123   0.784   1.487 -0.7537 -0.1842  1.6430
 3034TIP3   OH230592   4.226   3.013   0.768  0.0219  0.0518  0.0527
 3034TIP3    H130593   4.269   2.943   0.816 -0.1767 -1.3004 -1.6898
 3034TIP3    H230594   4.295   3.076   0.750  0.7470 -0.8847 -0.5027
 3035TIP3   OH230595   1.693   6.122   3.366 -0.4650  0.1877  0.1727
 3035TIP3    H130596   1.774   6.145   3.410  0.9076 -1.2965 -1.5209
 3035TIP3    H230597   1.669   6.037   3.402 -3.0353  1.9642  2.9849
 3036TIP3   OH230598   3.339   2.520  11.049 -0.0783  0.2458  0.2558
 3036TIP3    H130599   3.250   2.542  11.076 -0.3228  1.6431 -1.6288
 3036TIP3    H230600   3.394   2.591  11.083 -0.0805  0.8511 -0.9919
 3037TIP3   OH230601   4.468   3.073  16.477  0.3718 -0.0256  0.3983
 3037TIP3    H130602   4.459   3.162  16.443 -0.2999  0.9549  3.0572
 3037TIP3    H230603   4.494   3.021  16.400 -0.6988  2.1577 -1.5100
 3038TIP3   OH230604   6.421   2.133   1.477  0.1335  0.0025  0.5773
 3038TIP3    H130605   6.340   2.138   1.427 -0.4092 -1.2074  1.3099
 3038TIP3    H230606   6.468   2.213   1.455  0.7881 -1.3671 -3.3213
 3039TIP3   OH230607   2.768   1.967  11.090  0.2325 -0.3083  0.3072
 3039TIP3    H130608   2.706   2.038  11.108  1.3550  0.4952  1.0319
 3039TIP3    H230609   2.712   1.892  11.068 -0.9643  0.7028 -0.1465
 3040TIP3   OH230610   1.533   4.679  13.647  0.2159  0.7341 -0.1621
 3040TIP3    H130611   1.575   4.625  13.714  1.6618  1.3982 -0.4969
 3040TIP3    H230612   1.457   4.717  13.690 -0.8184 -1.5389  0.0920
 3041TIP3   OH230613   6.741   4.759   4.603  0.5256  0.4529  0.3949
 3041TIP3    H130614   6.772   4.849   4.598  0.5800  0.6639  3.3865
 3041TIP3    H230615   6.781   4.715   4.528  1.6547  2.5763 -0.2887
 3042TIP3   OH230616   1.573   0.063   0.989 -0.3043  0.8558 -0.0006
 3042TIP3    H130617   1.667   0.058   0.976 -0.2931  1.5255 -0.1992
 3042TIP3    H230618   1.558   0.026   1.076  0.3472  2.4884  0.8268
 3043TIP3   OH230619   0.254   3.677  17.141  0.0629 -0.0708 -0.4939
 3043TIP3    H130620   0.310   3.658  17.066  1.4750  0.5021  0.4064
 3043TIP3    H230621   0.182   3.614  17.133  2.5654 -3.1896  0.1683
 3044TIP3   OH230622   0.197   1.370   1.293  0.0775  0.0560 -0.1614
 3044TIP3    H130623   0.282   1.407   1.268 -0.0595 -0.0525 -0.8120
 3044TIP3    H230624   0.201   1.280   1.263 -0.3154  0.0874 -0.2996
 3045TIP3   OH230625   0.502   4.570   0.550 -0.3198 -0.5087  0.2801
 3045TIP3    H130626   0.565   4.509   0.590 -0.6167 -1.0775 -0.1183
 3045TIP3    H230627   0.433   4.579   0.616  0.8185  1.1738  1.2916
 3046TIP3   OH230628   2.087   4.042   1.303  0.1229 -0.2493 -0.0333
 3046TIP3    H130629   2.094   3.985   1.380  0.6747 -1.7033 -1.1428
 3046TIP3    H230630   2.076   4.130   1.340 -0.3362 -1.0004  1.7053
 3047TIP3   OH230631   5.584   3.200   0.495  0.2088 -0.4230 -0.3050
 3047TIP3    H130632   5.601   3.140   0.422  0.2627  0.6993 -1.2329
 3047TIP3    H230633   5.641   3.275   0.478  0.5837 -0.3629  1.1608
 3048TIP3   OH230634   3.243   2.338  12.210 -0.2422  0.0729  0.0409
 3048TIP3    H130635   3.337   2.356  12.220  0.0832 -0.2277 -2.2322
 3048TIP3    H230636   3.216   2.393  12.137 -1.8536  0.1223  0.6557
 3049TIP3   OH230637   1.457   1.032  12.221 -0.1633 -0.9642  0.3490
 3049TIP3    H130638   1.546   1.048  12.251 -0.1135  0.0514 -0.3229
 3049TIP3    H230639   1.461   0.948  12.176  0.3333 -1.1880  0.8152
 3050TIP3   OH230640   3.044   5.007   3.469  0.4595 -0.3721  0.2074
 3050TIP3    H130641   3.010   5.071   3.407  2.0918 -1.6804 -2.1411
 3050TIP3    H230642   3.031   4.922   3.426  1.4807 -1.3278  1.7210
 3051TIP3   OH230643   1.608   1.271  17.215 -0.0830  0.0295 -0.1259
 3051TIP3    H130644   1.519   1.303  17.229 -0.9758 -1.5734 -1.9612
 3051TIP3    H230645   1.661   1.321  17.278 -2.1990  1.2399  0.7669
 3052TIP3   OH230646   1.064   1.561   1.019 -0.2867 -0.2422  0.4445
 3052TIP3    H130647   1.053   1.480   0.970 -1.4152 -0.6853  1.3880
 3052TIP3    H230648   1.010   1.625   0.973  0.2119 -0.1547 -0.0175
 3053TIP3   OH230649   5.959   0.277  11.917 -0.4066 -0.2876 -0.2190
 3053TIP3    H130650   5.866   0.261  11.934 -0.0503 -1.1575  0.9746
 3053TIP3    H230651   6.000   0.278  12.004  0.7052  0.0826 -0.7287
 3054TIP3   OH230652   1.198   2.636   5.436 -0.4782 -0.3710 -0.2741
 3054TIP3    H130653   1.195   2.731   5.450  0.1061 -0.5672  1.2844
 3054TIP3    H230654   1.159   2.624   5.350 -1.9752  1.1508  0.1454
 3055TIP3   OH230655   6.258   0.100  12.030 -0.0195  0.6372  0.0807
 3055TIP3    H130656   6.333   0.048  12.059  0.2732  0.3628 -1.1586
 3055TIP3    H230657   6.250   0.168  12.097  1.5833  0.9140  0.0132
 3056TIP3   OH230658   0.629   1.694   3.052  0.3535  0.8087 -0.5479
 3056TIP3    H130659   0.568   1.729   2.987  0.3705  0.5928 -0.6782
 3056TIP3    H230660   0.690   1.766   3.068  0.6140  0.7053 -1.0960
 3057TIP3   OH230661   3.321   4.869   5.401 -0.0121  0.4801  0.6426
 3057TIP3    H130662   3.236   4.830   5.421  0.4393 -1.0370 -0.3814
 3057TIP3    H230663   3.371   4.859   5.482 -1.1139  2.2774  1.5819
 3058TIP3   OH230664   1.198   6.390  11.302  0.4225  0.5245 -0.1999
 3058TIP3    H130665   1.178   6.339  11.381 -1.1002 -0.3080 -1.1112
 3058TIP3    H230666   1.289   6.369  11.283  0.1521 -0.9734  0.0833
 3059TIP3   OH230667   2.038   4.242   6.320  0.3436 -0.1732 -0.0938
 3059TIP3    H130668   2.025   4.202   6.406 -1.5297 -0.6373 -0.5778
 3059TIP3    H230669   2.032   4.170   6.258 -0.0383  0.4100 -0.7486
 3060TIP3   OH230670   4.190   6.539  10.770  0.1537  0.4649  0.1494
 3060TIP3    H130671   4.189   6.491  10.853 -1.4264 -0.1569 -0.2139
 3060TIP3    H230672   4.264   6.503  10.722 -0.9051 -1.4754 -0.0486
 3061TIP3   OH230673   3.260   0.862  16.414  0.1933 -0.7315  0.2381
 3061TIP3    H130674   3.351   0.873  16.387  0.4418 -1.2077  0.8709
 3061TIP3    H230675   3.214   0.933  16.371  0.5804 -1.4629 -1.4384
 3062TIP3   OH230676   0.073   6.380   2.330  0.3780  0.4657  1.0050
 3062TIP3    H130677   0.085   6.295   2.371  1.6806  0.8170  1.3837
 3062TIP3    H230678   0.006   6.366   2.264  0.5663 -0.8461  1.0885
 3063TIP3   OH230679   4.335   1.503   0.085  0.2161 -0.3523  0.6849
 3063TIP3    H130680   4.378   1.444   0.147  1.0327  0.5804  1.0262
 3063TIP3    H230681   4.407   1.548   0.041 -0.3802 -0.3744 -0.3275
 3064TIP3   OH230682   4.840   2.615   4.894  0.4259  0.0055  0.7657
 3064TIP3    H130683   4.821   2.653   4.980 -0.5248  0.4224  0.3737
 3064TIP3    H230684   4.933   2.634   4.880  0.4670  0.3630  1.4800
 3065TIP3   OH230685   1.440   1.360  12.382 -0.3122  0.0717  0.2154
 3065TIP3    H130686   1.500   1.286  12.395  0.2538  0.6881  1.1526
 3065TIP3    H230687   1.371   1.346  12.447  0.0495  0.6328  0.7158
 3066TIP3   OH230688   4.381   2.355   6.114 -0.0587  0.1543  0.2855
 3066TIP3    H130689   4.397   2.336   6.207 -0.2339  0.0153  0.2872
 3066TIP3    H230690   4.412   2.445   6.103 -0.6462  0.4086  0.6379
 3067TIP3   OH230691   5.363   3.698   0.617 -0.6018 -0.2364  0.2848
 3067TIP3    H130692   5.427   3.758   0.579 -0.5171 -1.1034 -0.9726
 3067TIP3    H230693   5.382   3.614   0.575  0.0345 -1.4142  2.8584
 3068TIP3   OH230694   4.340   6.677   5.540  0.0765  0.6907 -0.1812
 3068TIP3    H130695   4.345   6.771   5.556 -1.5315  0.3881  2.3329
 3068TIP3    H230696   4.425   6.643   5.570 -0.2922  1.0351  1.2658
 3069TIP3   OH230697   5.807   4.896  13.960 -0.7809  0.0897 -0.3286
 3069TIP3    H130698   5.720   4.884  13.999 -0.1447  0.7428  1.3704
 3069TIP3    H230699   5.821   4.991  13.963  0.1393 -0.0461 -0.2291
 3070TIP3   OH230700   1.167   0.008   2.801 -0.2685 -0.0159 -0.2561
 3070TIP3    H130701   1.228  -0.063   2.777  1.1705  1.4499 -1.0098
 3070TIP3    H230702   1.222   0.070   2.849 -1.0426  1.6101 -1.4520
 3071TIP3   OH230703   6.238   3.151  11.415 -0.0037 -0.4229 -0.2876
 3071TIP3    H130704   6.218   3.229  11.466 -0.7810 -0.3659 -0.6580
 3071TIP3    H230705   6.244   3.182  11.325  0.9459 -0.5887 -0.2866
 3072TIP3   OH230706   6.439   0.297  16.659 -0.1826  0.8239 -0.2341
 3072TIP3    H130707   6.471   0.379  16.620 -0.5210  0.1725 -1.9353
 3072TIP3    H230708   6.344   0.301  16.649 -0.3861  1.1940  1.6771
 3073TIP3   OH230709   3.074   2.040   5.427 -0.2576 -0.5562  0.3421
 3073TIP3    H130710   3.101   2.127   5.457  2.3849 -1.3565  0.4072
 3073TIP3    H230711   3.081   1.985   5.505 -0.1421 -1.2159 -0.1287
 3074TIP3   OH230712   4.012   5.711   4.214  0.5368  0.2574  0.4630
 3074TIP3    H130713   4.026   5.777   4.282  1.8917  2.2454 -1.6997
 3074TIP3    H230714   4.091   5.657   4.217 -0.1108 -0.6398  1.5305
 3075TIP3   OH230715   0.944   3.461   1.167 -0.0092 -0.2496 -0.2694
 3075TIP3    H130716   1.008   3.521   1.206  0.2920 -1.2613  0.8319
 3075TIP3    H230717   0.888   3.435   1.240  1.5121 -3.3799 -0.1099
 3076TIP3   OH230718   0.386   4.300  11.236 -0.0309  0.3996 -0.6736
 3076TIP3    H130719   0.399   4.214  11.277  3.3124  0.6769 -0.9980
 3076TIP3    H230720   0.377   4.360  11.310  1.0466  0.2137 -0.3779
 3077TIP3   OH230721   6.572   4.043  16.055  0.3654  0.2813 -0.2031
 3077TIP3    H130722   6.501   3.984  16.079 -0.9723  1.1867 -1.8706
 3077TIP3    H230723   6.529   4.126  16.035  2.1660  1.6686  1.4827
 3078TIP3   OH230724   5.562   3.343  16.450 -0.0203 -0.5090  0.3311
 3078TIP3    H130725   5.618   3.419  16.463  0.0616 -0.4355 -0.4275
 3078TIP3    H230726   5.473   3.378  16.453 -0.0647 -0.7180  2.1601
 3079TIP3   OH230727   3.339   1.223  11.921 -0.6027  0.5478 -0.5794
 3079TIP3    H130728   3.307   1.313  11.935 -0.2638  0.7111 -0.8320
 3079TIP3    H230729   3.305   1.174  11.996 -1.4292  0.7189 -0.8287
 3080TIP3   OH230730   2.338   4.914   2.817 -0.0018  0.2296  0.0983
 3080TIP3    H130731   2.337   4.918   2.721 -1.1843  1.5917  0.1420
 3080TIP3    H230732   2.311   5.001   2.845  1.9687  0.3724  1.7107
 3081TIP3   OH230733   6.258   2.641   2.325 -0.1504  0.1631  0.1466
 3081TIP3    H130734   6.195   2.666   2.393 -1.2193 -0.5323 -0.5742
 3081TIP3    H230735   6.256   2.714   2.263  1.6245  1.3016  1.3837
 3082TIP3   OH230736   5.169   0.633   0.922  0.4177 -0.0029  0.1096
 3082TIP3    H130737   5.162   0.544   0.887  0.6422 -0.2883  0.7659
 3082TIP3    H230738   5.167   0.690   0.846 -2.4840 -0.4130 -0.1700
 3083TIP3   OH230739   2.186   3.277  16.720  0.6314  0.5065 -0.2253
 3083TIP3    H130740   2.250   3.227  16.770  0.7024 -0.3453 -1.1576
 3083TIP3    H230741   2.104   3.227  16.728  1.3744 -1.3976 -3.5824
 3084TIP3   OH230742   5.057   5.862  16.800  0.1082  0.0237  0.3142
 3084TIP3    H130743   5.042   5.796  16.867 -2.5684  1.3333  1.0344
 3084TIP3    H230744   5.053   5.813  16.717 -1.6718 -0.7431  0.8421
 3085TIP3   OH230745   1.985   0.581  16.201  0.2688  0.2024  0.0465
 3085TIP3    H130746   1.939   0.538  16.129  0.1081 -0.2224  0.3968
 3085TIP3    H230747   2.070   0.604  16.165  0.5183 -0.8197 -0.0108
 3086TIP3   OH230748   3.087   0.620  14.956  0.4261 -0.2765 -0.4158
 3086TIP3    H130749   3.026   0.546  14.947 -0.7307  0.6577 -0.3064
 3086TIP3    H230750   3.079   0.647  15.047 -0.7425  1.3130 -0.9539
 3087TIP3   OH230751   2.864   0.979  12.393  0.2039 -1.1402 -0.2250
 3087TIP3    H130752   2.862   1.074  12.404 -0.3247 -1.3502  1.6432
 3087TIP3    H230753   2.928   0.964  12.324  1.5490  0.4620  0.6531
 3088TIP3   OH230754   2.387   5.004  14.562  0.1112  0.3860 -0.1871
 3088TIP3    H130755   2.373   4.919  14.521  0.5591  1.0731 -1.8106
 3088TIP3    H230756   2.476   5.029  14.537  0.6196  0.5832  1.6897
 3089TIP3   OH230757   3.980   5.886   1.059  0.6163  0.7502  0.0072
 3089TIP3    H130758   3.924   5.962   1.045 -1.5559 -0.9235 -0.6462
 3089TIP3    H230759   3.966   5.863   1.151 -1.8154 -1.1923 -0.7933
 3090TIP3   OH230760   3.643   1.482  16.547 -0.3719  0.2670  0.0816
 3090TIP3    H130761   3.647   1.420  16.474 -0.8637 -1.2619  1.3381
 3090TIP3    H230762   3.580   1.548  16.518 -0.3628 -0.1821 -0.9916
 3091TIP3   OH230763   5.741   6.285  16.366 -0.3774  0.0603  0.4010
 3091TIP3    H130764   5.796   6.265  16.442 -0.6923  0.2773  0.6854
 3091TIP3    H230765   5.782   6.236  16.294  2.6032  3.3780 -0.3112
 3092TIP3   OH230766   1.559   3.946   4.995 -0.1862  0.3721 -0.1848
 3092TIP3    H130767   1.488   3.984   5.047  0.8298  3.0056 -0.6949
 3092TIP3    H230768   1.638   3.960   5.048  0.1432 -1.5338 -0.1363
 3093TIP3   OH230769   6.489   3.377   2.270  0.8198  0.3007  0.0484
 3093TIP3    H130770   6.577   3.351   2.245  0.3402  0.2685 -1.6388
 3093TIP3    H230771   6.441   3.295   2.278  0.9099  0.3226  0.8952
 3094TIP3   OH230772   0.974   3.266   3.853 -0.1467  0.3961 -0.0031
 3094TIP3    H130773   0.976   3.351   3.809  0.3786  1.1801  1.4847
 3094TIP3    H230774   0.979   3.288   3.946 -0.2946 -1.2633  0.4066
 3095TIP3   OH230775   4.964   5.996  12.881 -0.0110 -0.7128  0.7824
 3095TIP3    H130776   5.028   6.066  12.868 -0.1157 -0.9104 -1.0116
 3095TIP3    H230777   5.006   5.918  12.846 -0.8206 -1.0528  0.5402
 3096TIP3   OH230778   1.360   1.451   0.403 -0.4547 -0.0639  0.3923
 3096TIP3    H130779   1.340   1.366   0.365  0.2175 -0.2573  0.4543
 3096TIP3    H230780   1.339   1.441   0.496  1.9223 -0.9641  0.8858
 3097TIP3   OH230781   4.701   5.104  12.691  0.2487 -0.5210  0.1290
 3097TIP3    H130782   4.732   5.147  12.612 -0.3977  1.0075  0.6900
 3097TIP3    H230783   4.776   5.103  12.750  0.3615 -0.4910 -0.0160
 3098TIP3   OH230784   4.073   2.112   1.978  0.0585 -0.2623  0.5053
 3098TIP3    H130785   4.069   2.174   2.051  0.9790  0.5391 -0.1249
 3098TIP3    H230786   4.044   2.162   1.902  0.7730 -0.6051  0.0014
 3099TIP3   OH230787   5.845   6.813  16.476 -0.1421 -0.6148 -0.0301
 3099TIP3    H130788   5.832   6.722  16.451  2.1536 -0.6511 -1.2379
 3099TIP3    H230789   5.803   6.863  16.406  1.2480 -0.7554 -0.9862
 3100TIP3   OH230790   6.271   5.177   5.492  0.7184 -0.1145  0.5512
 3100TIP3    H130791   6.198   5.129   5.450  1.9272 -0.2310 -1.4798
 3100TIP3    H230792   6.253   5.169   5.586 -1.9274 -0.0905  0.1045
 3101TIP3   OH230793   0.305   4.699  17.071 -0.2732 -0.2043 -0.3924
 3101TIP3    H130794   0.268   4.611  17.070  0.5409 -0.6318  2.1112
 3101TIP3    H230795   0.398   4.686  17.091 -0.1417  1.1966 -0.0090
 3102TIP3   OH230796   0.211   4.674  16.211 -0.1620 -0.1105 -0.1394
 3102TIP3    H130797   0.285   4.637  16.163 -0.7222 -2.1381  0.5280
 3102TIP3    H230798   0.145   4.604  16.213 -2.2868  1.7908 -1.0908
 3103TIP3   OH230799   2.305   1.027  15.804  0.2180 -0.7518  0.9994
 3103TIP3    H130800   2.292   1.078  15.724 -1.6156 -0.4132  1.4884
 3103TIP3    H230801   2.399   1.034  15.822  0.6729 -0.9816 -1.2063
 3104TIP3   OH230802   1.468   0.542   4.213  0.0116  0.0276 -0.6535
 3104TIP3    H130803   1.435   0.455   4.235  0.2383  0.6949  2.4622
 3104TIP3    H230804   1.561   0.540   4.238 -0.2465  1.5140  0.4677
 3105TIP3   OH230805   4.961   0.015   4.856 -0.1222  0.1082 -0.2775
 3105TIP3    H130806   4.995  -0.042   4.925 -0.9081  0.6076  0.5286
 3105TIP3    H230807   5.009  -0.012   4.777  0.7102 -0.5337  0.4355
 3106TIP3   OH230808   3.018   3.250   1.301 -0.2156  0.0258  0.2625
 3106TIP3    H130809   3.098   3.222   1.345  0.9537  1.2461 -1.0490
 3106TIP3    H230810   3.020   3.204   1.217 -1.6702 -1.1062  0.8186
 3107TIP3   OH230811   4.040   1.627   3.637  0.0714  0.0011  0.7011
 3107TIP3    H130812   4.086   1.630   3.553 -1.4437 -0.8472 -0.1899
 3107TIP3    H230813   3.948   1.617   3.613 -0.8835  3.8701  2.3864
 3108TIP3   OH230814   1.890   0.260  15.007 -0.0241 -0.2765  0.2770
 3108TIP3    H130815   1.949   0.236  15.079 -0.7856 -1.4780  0.5202
 3108TIP3    H230816   1.942   0.246  14.928  1.0464  1.7125  0.5984
 3109TIP3   OH230817   4.967   5.212  13.342  0.2924  0.1777  0.4384
 3109TIP3    H130818   5.021   5.265  13.283  0.5119  0.2799  0.7282
 3109TIP3    H230819   5.028   5.183  13.410  0.1489 -0.3669  0.3305
 3110TIP3   OH230820   1.001   4.785  11.781 -0.6742 -0.3237 -0.0992
 3110TIP3    H130821   1.072   4.846  11.803 -0.8846 -0.2377  0.3511
 3110TIP3    H230822   1.034   4.735  11.706  0.2635 -0.9651  0.7267
 3111TIP3   OH230823   4.061   1.814   2.806 -0.9130  0.0387  0.1924
 3111TIP3    H130824   4.045   1.906   2.783 -2.2219 -0.3284 -0.4440
 3111TIP3    H230825   4.153   1.811   2.832 -0.5252  1.2899 -0.9979
 3112TIP3   OH230826   5.707   3.467  16.788  0.0011 -0.1764 -0.3243
 3112TIP3    H130827   5.719   3.374  16.770  2.6508  0.5247 -2.6603
 3112TIP3    H230828   5.791   3.495  16.825 -0.3237  1.5163 -0.8285
 3113TIP3   OH230829   2.447   3.986  13.149 -0.0470 -0.0934  0.0079
 3113TIP3    H130830   2.360   3.968  13.186  0.0687  0.3297  0.4855
 3113TIP3    H230831   2.493   3.903  13.156  0.0885  0.0637  1.1398
 3114TIP3   OH230832   0.206   5.885  16.697  0.1562  0.1898 -0.2420
 3114TIP3    H130833   0.129   5.939  16.715  1.4918  2.5807 -1.4589
 3114TIP3    H230834   0.261   5.895  16.774  0.2778  0.2856 -0.3421
 3115TIP3   OH230835   3.878   0.052  14.571  0.1283 -0.5419  0.6563
 3115TIP3    H130836   3.872   0.117  14.500  1.5459  0.0468  1.0544
 3115TIP3    H230837   3.907  -0.028  14.528  0.4074 -0.3438  0.4724
 3116TIP3   OH230838   6.305   5.522  16.776  0.9543  0.0089  0.1202
 3116TIP3    H130839   6.364   5.455  16.742  0.0589 -0.0296 -1.4106
 3116TIP3    H230840   6.299   5.587  16.706 -0.7020  0.0715  0.2930
 3117TIP3   OH230841   5.813   0.171  16.253 -0.4960 -0.2615 -0.5052
 3117TIP3    H130842   5.727   0.163  16.212 -1.0288 -1.1096  0.7758
 3117TIP3    H230843   5.872   0.122  16.194 -0.8435  0.4170 -1.4404
 3118TIP3   OH230844   4.037   2.903   2.675 -0.0608  0.2180  0.0195
 3118TIP3    H130845   3.983   2.969   2.718 -1.5005 -0.7623 -0.2275
 3118TIP3    H230846   3.989   2.821   2.687  1.5618 -0.7505  0.1098
 3119TIP3   OH230847   0.286   1.208  13.346  0.0013 -0.4256  0.2090
 3119TIP3    H130848   0.196   1.187  13.322 -0.2462 -0.9177  1.5062
 3119TIP3    H230849   0.284   1.299  13.373 -0.1456 -0.4920  0.4217
 3120TIP3   OH230850   0.356   1.523  14.969  0.9162 -0.3059 -0.0461
 3120TIP3    H130851   0.342   1.458  14.900  1.9980 -0.1018 -0.4735
 3120TIP3    H230852   0.298   1.595  14.946  1.9301  0.1482 -1.2690
 3121TIP3   OH230853   0.487   2.357  13.628 -0.0255 -0.0861 -0.5363
 3121TIP3    H130854   0.484   2.262  13.611 -2.6128 -0.1519  0.1016
 3121TIP3    H230855   0.477   2.397  13.542  0.9404 -0.3683 -0.7906
 3122TIP3   OH230856   4.082   6.592   5.530  0.2829 -0.3248  0.5314
 3122TIP3    H130857   4.177   6.603   5.531 -0.0264  2.6110  1.1123
 3122TIP3    H230858   4.048   6.680   5.515 -2.3525 -1.4053 -0.0482
 3123TIP3   OH230859   0.131   6.387  14.098 -1.0342  0.4135 -0.3694
 3123TIP3    H130860   0.200   6.395  14.032 -0.9940 -1.5185 -0.5997
 3123TIP3    H230861   0.169   6.423  14.178  0.0360 -0.1091 -0.6416
 3124TIP3   OH230862   2.249   2.902   6.350 -0.1039  0.3439 -0.1169
 3124TIP3    H130863   2.252   2.930   6.259  1.1564 -0.1341 -0.2274
 3124TIP3    H230864   2.209   2.815   6.348 -1.3499  0.9010 -0.0623
 3125TIP3   OH230865   3.342   6.672  14.034 -0.1399  0.1023 -0.6693
 3125TIP3    H130866   3.295   6.743  14.078  3.6100  1.7174  0.8456
 3125TIP3    H230867   3.392   6.715  13.965  0.4734 -1.3750 -1.1658
 3126TIP3   OH230868   5.200   2.745   2.271 -0.1817  0.3987  0.4535
 3126TIP3    H130869   5.207   2.835   2.237  0.8589 -0.1701 -0.9051
 3126TIP3    H230870   5.113   2.740   2.308 -0.6790  1.6274 -0.5020
 3127TIP3   OH230871   6.665   1.811   2.035  0.6504  0.6238 -0.3522
 3127TIP3    H130872   6.704   1.835   2.119 -0.8658 -1.5940  1.0371
 3127TIP3    H230873   6.577   1.780   2.057  0.4796 -0.6632 -2.6680
 3128TIP3   OH230874   4.992   3.265  11.997  0.0059 -0.0905  0.1411
 3128TIP3    H130875   5.039   3.262  12.080  0.4002  0.7210 -0.0475
 3128TIP3    H230876   4.902   3.246  12.020  0.4009 -1.5493  0.5254
 3129TIP3   OH230877   4.123   3.362   5.692 -0.1545  0.2728  0.5236
 3129TIP3    H130878   4.066   3.438   5.694 -2.0663 -1.1432  1.9048
 3129TIP3    H230879   4.172   3.367   5.775  0.9351  0.8839 -0.1482
 3130TIP3   OH230880   2.519   2.672  13.662 -0.4543 -0.5460  0.8767
 3130TIP3    H130881   2.565   2.603  13.614  0.7447  0.5837  0.3619
 3130TIP3    H230882   2.477   2.627  13.735  1.0649 -1.6819  1.0650
 3131TIP3   OH230883   1.499   1.535  13.393 -0.3206 -0.0327 -0.1315
 3131TIP3    H130884   1.427   1.502  13.446  1.6776 -1.6159  1.6782
 3131TIP3    H230885   1.533   1.457  13.349 -1.1090  1.0592 -2.7510
 3132TIP3   OH230886   3.130   4.601  16.099 -0.5250  0.2750  0.2622
 3132TIP3    H130887   3.166   4.573  16.183  0.9079  1.2957  0.0071
 3132TIP3    H230888   3.062   4.536  16.079  0.4137 -1.0485  1.2874
 3133TIP3   OH230889   5.101   4.111   1.686 -0.2823  0.5841  0.0099
 3133TIP3    H130890   5.086   4.100   1.592 -2.0493 -1.8498  0.5218
 3133TIP3    H230891   5.019   4.149   1.718  0.0599  0.7540  0.6774
 3134TIP3   OH230892   4.329   5.875   5.988 -0.7962 -0.5571  0.6964
 3134TIP3    H130893   4.359   5.784   5.979  1.1551  0.1345 -0.0159
 3134TIP3    H230894   4.395   5.927   5.942 -2.5333  1.1296  0.0491
 3135TIP3   OH230895   2.757   4.781   0.147 -0.3759  0.1932 -0.3042
 3135TIP3    H130896   2.730   4.859   0.099 -2.5699  0.6223  1.5512
 3135TIP3    H230897   2.810   4.814   0.219 -0.4738 -0.1211 -0.0866
 3136TIP3   OH230898   0.934   5.206  13.220 -0.0422 -0.3735 -0.2145
 3136TIP3    H130899   0.859   5.244  13.265 -1.4241 -1.0785 -1.8575
 3136TIP3    H230900   0.936   5.115  13.249 -0.0721 -0.4537 -0.4595
 3137TIP3   OH230901   4.746   6.508  15.498  0.0784 -0.2709  0.4087
 3137TIP3    H130902   4.715   6.426  15.537  0.0491 -0.7761 -0.6501
 3137TIP3    H230903   4.840   6.495  15.488  0.1468  0.0145  0.6766
 3138TIP3   OH230904   0.878   4.275  14.757 -0.0225  0.4716 -0.3807
 3138TIP3    H130905   0.967   4.259  14.787  0.0338 -0.3754 -1.0028
 3138TIP3    H230906   0.875   4.240  14.668 -0.2899  2.6774 -1.2679
 3139TIP3   OH230907   3.535   0.769  11.098  0.5922 -0.3777  0.1792
 3139TIP3    H130908   3.596   0.733  11.034  1.1263 -0.4160  0.7036
 3139TIP3    H230909   3.448   0.747  11.065  0.8977 -1.3956  0.0640
 3140TIP3   OH230910   6.601   4.963   0.813  0.2860  0.7816  0.5885
 3140TIP3    H130911   6.654   5.014   0.752 -0.6648  1.6970  0.5090
 3140TIP3    H230912   6.514   5.001   0.806 -0.2954 -0.4425  1.0125
 3141TIP3   OH230913   6.627   0.114  17.197  0.0947  0.2020  0.3868
 3141TIP3    H130914   6.662   0.164  17.271 -0.8118 -0.8161  1.5212
 3141TIP3    H230915   6.695   0.119  17.130  1.3221  0.3516  1.6291
 3142TIP3   OH230916   1.118   4.067   0.843 -0.4397  0.2695  0.2959
 3142TIP3    H130917   1.084   4.156   0.846 -0.3736  0.3660 -1.2662
 3142TIP3    H230918   1.121   4.039   0.935 -0.3965  1.8886  0.8034
 3143TIP3   OH230919   6.180   2.457   5.755  0.2858  0.3768  0.0297
 3143TIP3    H130920   6.263   2.488   5.791 -0.0019 -0.1645  1.1649
 3143TIP3    H230921   6.150   2.391   5.816 -1.1017  0.7296 -0.2502
 3144TIP3   OH230922   0.448   3.542  16.640 -0.0542 -0.3170  0.3700
 3144TIP3    H130923   0.519   3.512  16.584  0.6680  0.2283  0.9761
 3144TIP3    H230924   0.373   3.487  16.616 -0.2135  0.9162 -2.2345
 3145TIP3   OH230925   5.757   6.068   0.870  0.5081 -0.1736  0.0276
 3145TIP3    H130926   5.778   6.149   0.916  1.6924 -0.3779 -0.1341
 3145TIP3    H230927   5.663   6.072   0.856  0.3081  0.4250  1.4416
 3146TIP3   OH230928   1.756   1.692  16.680 -0.3506  0.4542 -0.7067
 3146TIP3    H130929   1.807   1.735  16.749 -0.2601 -0.5952 -0.1009
 3146TIP3    H230930   1.737   1.605  16.716 -2.7259  0.8817 -0.8395
 3147TIP3   OH230931   2.964   2.691   4.011  0.5814 -0.2435 -0.6068
 3147TIP3    H130932   3.050   2.730   3.999 -0.0061  0.8620 -1.2561
 3147TIP3    H230933   2.961   2.666   4.104  1.3661  0.2753 -0.4423
 3148TIP3   OH230934   5.568   3.249   1.732  0.2800 -0.4642 -0.0560
 3148TIP3    H130935   5.535   3.338   1.719 -1.9336 -1.5433 -2.0839
 3148TIP3    H230936   5.506   3.210   1.794  1.8156 -0.3307  1.6145
 3149TIP3   OH230937   3.531   1.657   3.519 -0.2110  0.3723 -0.2343
 3149TIP3    H130938   3.507   1.594   3.451  0.7549 -1.4058  1.0142
 3149TIP3    H230939   3.448   1.680   3.561 -0.4685 -0.8444 -0.0565
 3150TIP3   OH230940   6.580   6.539   1.458  0.2022  0.6384 -0.0204
 3150TIP3    H130941   6.614   6.623   1.427  0.9517  0.1410 -0.5341
 3150TIP3    H230942   6.486   6.542   1.436  0.4581  0.8480 -1.1150
 3151TIP3   OH230943   1.036   6.295  14.767  0.0406  0.0834 -0.4036
 3151TIP3    H130944   1.049   6.348  14.845 -0.3940 -1.3313  0.6523
 3151TIP3    H230945   1.081   6.343  14.697  0.7068  1.1900  0.7724
 3152TIP3   OH230946   4.268   2.962  12.226  0.3875  0.1684 -0.2045
 3152TIP3    H130947   4.180   2.994  12.247 -0.0400 -1.1991  0.1475
 3152TIP3    H230948   4.265   2.942  12.132  0.2081 -0.2196 -0.1174
 3153TIP3   OH230949   0.245   3.844   4.593 -0.2882 -0.1661  0.2051
 3153TIP3    H130950   0.332   3.885   4.595  0.2826 -1.3994  2.1836
 3153TIP3    H230951   0.190   3.902   4.645 -0.1814 -0.3662  0.5455
 3154TIP3   OH230952   2.849   1.742  13.865  0.3621  0.0044  0.1016
 3154TIP3    H130953   2.916   1.709  13.805 -0.6179  0.4885 -1.2719
 3154TIP3    H230954   2.794   1.799  13.811 -2.4596 -2.0874  0.6788
 3155TIP3   OH230955   2.083   0.337   5.078  0.7994  0.0396  0.0725
 3155TIP3    H130956   2.032   0.416   5.057  0.6106 -0.6490 -2.2536
 3155TIP3    H230957   2.172   0.369   5.090  0.5310  0.7437  0.2384
 3156TIP3   OH230958   0.023   4.605   1.083 -0.5688 -0.0607 -0.4959
 3156TIP3    H130959   0.004   4.612   1.177 -1.4233 -0.3141 -0.6538
 3156TIP3    H230960   0.018   4.696   1.051  2.7029  0.4652  0.2660
 3157TIP3   OH230961   5.345   1.670   2.836 -0.1175  0.0708  0.0176
 3157TIP3    H130962   5.330   1.666   2.742 -1.8809 -1.7052  0.3337
 3157TIP3    H230963   5.425   1.619   2.850 -0.0991 -0.0366 -0.4688
 3158TIP3   OH230964   0.020   4.244   6.068  0.2187 -0.7346  0.2778
 3158TIP3    H130965   0.040   4.328   6.110  0.7935 -0.2421 -0.9789
 3158TIP3    H230966  -0.031   4.196   6.134  1.7193 -0.2528  1.8247
 3159TIP3   OH230967   6.200   4.246  15.934 -0.3017 -0.7979  0.0487
 3159TIP3    H130968   6.212   4.216  15.844  1.8515  0.5517 -0.1508
 3159TIP3    H230969   6.115   4.290  15.933 -0.5322 -1.2434 -1.2009
 3160TIP3   OH230970   4.994   0.591  16.745  0.2963  0.7314  0.4777
 3160TIP3    H130971   5.013   0.646  16.821  1.2883  0.0193  0.7524
 3160TIP3    H230972   5.061   0.524  16.747 -1.0683 -0.6751  0.3171
 3161TIP3   OH230973   6.273   5.730   3.747  0.0819  0.2831  0.0785
 3161TIP3    H130974   6.361   5.767   3.747  0.3311 -0.3019  0.0408
 3161TIP3    H230975   6.215   5.806   3.751  0.5830  0.6777 -0.0957
 3162TIP3   OH230976   3.793   0.890   2.282 -0.1788  0.0429 -0.0307
 3162TIP3    H130977   3.768   0.803   2.253 -0.4970 -0.0459  0.4971
 3162TIP3    H230978   3.809   0.939   2.202 -1.7178 -0.0043 -0.3855
 3163TIP3   OH230979   2.301   4.656   1.593  0.3693 -0.4062  0.0418
 3163TIP3    H130980   2.230   4.684   1.651 -0.1374 -0.2780 -0.6385
 3163TIP3    H230981   2.373   4.636   1.652 -1.2666 -3.7404  1.0397
 3164TIP3   OH230982   1.976   4.623  12.846  0.3045  0.3495  0.4722
 3164TIP3    H130983   1.996   4.535  12.875  0.7382  0.1501 -0.3969
 3164TIP3    H230984   2.020   4.680  12.909 -0.8812 -0.0354  1.6618
 3165TIP3   OH230985   0.184   4.303   5.400 -0.1853 -0.1626  0.1008
 3165TIP3    H130986   0.205   4.357   5.324 -1.6514 -2.4500 -2.0195
 3165TIP3    H230987   0.091   4.315   5.414 -0.2139 -0.9075  0.5946
 3166TIP3   OH230988   1.701   5.581  11.871  0.0996  0.7576  0.0928
 3166TIP3    H130989   1.690   5.533  11.953 -0.6285  2.0276  0.7527
 3166TIP3    H230990   1.786   5.552  11.838  1.1167  1.3940  2.0798
 3167TIP3   OH230991   2.363   3.260   4.581 -0.9345 -0.5052 -0.3838
 3167TIP3    H130992   2.279   3.288   4.617 -0.5361 -0.7625  0.7949
 3167TIP3    H230993   2.427   3.287   4.647 -0.0107  0.3609 -1.6222
 3168TIP3   OH230994   1.155   2.284  16.071  0.1589  0.4155 -0.5255
 3168TIP3    H130995   1.104   2.270  15.991  0.0855  0.7132 -0.5296
 3168TIP3    H230996   1.237   2.237  16.055 -0.1040 -0.0565 -0.5228
 3169TIP3   OH230997   3.040   0.381  15.276 -0.4321 -0.1771 -0.7953
 3169TIP3    H130998   3.057   0.338  15.192 -0.1232  0.7624 -1.2296
 3169TIP3    H230999   3.024   0.473  15.252  1.7181  0.5324  0.3733
 3170TIP3   OH231000   4.569   1.789  13.395 -0.0283  0.4648 -0.7151
 3170TIP3    H131001   4.567   1.856  13.463 -2.0196 -0.0520 -0.2299
 3170TIP3    H231002   4.606   1.833  13.319 -0.2038  1.7765 -0.0540
 3171TIP3   OH231003   4.318   3.922   4.486  0.1310 -0.1803 -0.7504
 3171TIP3    H131004   4.259   3.987   4.525  1.3065  0.9853 -0.8630
 3171TIP3    H231005   4.351   3.965   4.407  1.7061 -0.5021 -0.2866
 3172TIP3   OH231006   1.330   4.412   4.102 -0.3015 -0.5705  0.1658
 3172TIP3    H131007   1.345   4.331   4.053 -0.7344 -0.4534 -0.1608
 3172TIP3    H231008   1.247   4.397   4.148  0.3734 -0.8943  1.2959
 3173TIP3   OH231009   4.783   4.939   0.619  0.0132  0.2390 -0.1042
 3173TIP3    H131010   4.755   5.021   0.659 -1.0884 -1.4855  2.7509
 3173TIP3    H231011   4.703   4.903   0.580  0.4213  0.3005 -1.0214
 3174TIP3   OH231012   2.443   1.934  11.717  0.1116 -0.2414 -0.0889
 3174TIP3    H131013   2.519   1.977  11.678 -1.3683  2.3905 -0.2304
 3174TIP3    H231014   2.476   1.852  11.752  2.6941  0.1539 -1.5100
 3175TIP3   OH231015   5.541   0.894   1.631 -0.2636 -0.2624  0.2046
 3175TIP3    H131016   5.496   0.885   1.547 -1.1101 -0.9898  0.7322
 3175TIP3    H231017   5.632   0.869   1.613 -0.3451 -0.0027 -0.5828
 3176TIP3   OH231018   3.641   5.754  12.546  0.3470 -0.2442 -0.0885
 3176TIP3    H131019   3.657   5.820  12.614  0.0086 -1.1885  0.9173
 3176TIP3    H231020   3.603   5.680  12.593 -1.8131 -0.1340 -1.6242
 3177TIP3   OH231021   0.984   2.899   2.908  0.1911 -0.0880 -0.0430
 3177TIP3    H131022   0.905   2.876   2.957  0.9583  0.5680  1.5074
 3177TIP3    H231023   0.953   2.958   2.839 -0.6098  0.5558  0.8558
 3178TIP3   OH231024   6.454   6.302   5.412  0.6367 -0.2166 -0.6055
 3178TIP3    H131025   6.481   6.232   5.353  2.6346  1.3638 -1.6162
 3178TIP3    H231026   6.459   6.263   5.499 -0.0751 -1.8716 -1.2808
 3179TIP3   OH231027   5.387   4.542   3.211  0.0946  0.4265 -0.4500
 3179TIP3    H131028   5.466   4.596   3.203  1.3927 -1.3667  0.0644
 3179TIP3    H231029   5.366   4.545   3.305  1.2989 -1.4818 -0.0858
 3180TIP3   OH231030   0.995   3.786   5.200  0.1113 -0.0060 -0.2963
 3180TIP3    H131031   1.082   3.784   5.240  0.0714 -2.7681 -0.2911
 3180TIP3    H231032   0.935   3.763   5.271 -0.3501 -0.8807 -0.9578
 3181TIP3   OH231033   6.065   5.334  15.121 -0.6642 -0.0209 -0.5216
 3181TIP3    H131034   6.013   5.260  15.089 -1.9424  1.2686 -1.4699
 3181TIP3    H231035   6.023   5.411  15.083  1.7660  1.0798 -1.0680
 3182TIP3   OH231036   0.531   5.930  16.428  0.0187 -0.0519  0.6927
 3182TIP3    H131037   0.454   5.957  16.478  0.4264  2.4413  0.0264
 3182TIP3    H231038   0.497   5.867  16.364 -1.4403  0.9679  0.4521
 3183TIP3   OH231039   3.358   5.921  15.640 -0.2100 -0.0828  0.3942
 3183TIP3    H131040   3.362   5.923  15.735 -0.1603 -0.8046  0.4138
 3183TIP3    H231041   3.306   5.842  15.620  1.2253 -0.9009 -0.1933
 3184TIP3   OH231042   1.274   4.778  14.902 -0.3242 -0.5027 -0.1409
 3184TIP3    H131043   1.204   4.713  14.902  2.2052 -3.3971  0.4909
 3184TIP3    H231044   1.307   4.778  14.812 -0.0503 -0.4409 -0.0421
 3185TIP3   OH231045   5.722   4.268  11.672 -0.1556  0.8273  0.6068
 3185TIP3    H131046   5.812   4.288  11.698 -0.3902  2.4003  0.2891
 3185TIP3    H231047   5.713   4.307  11.585 -0.4703 -1.2682 -0.3204
 3186TIP3   OH231048   0.443   5.536  11.286 -0.3331 -0.6192 -0.4710
 3186TIP3    H131049   0.459   5.443  11.267  0.4311 -0.4483 -0.6627
 3186TIP3    H231050   0.462   5.581  11.204 -0.8535 -0.3007 -0.4207
 3187TIP3   OH231051   6.295   5.948  17.279 -0.3857 -0.8790 -0.0837
 3187TIP3    H131052   6.263   5.860  17.293 -1.6808 -0.2629  0.8881
 3187TIP3    H231053   6.216   6.002  17.269  0.3677  0.2521 -0.1014
 3188TIP3   OH231054   3.703   3.376   0.360  0.4591 -0.3411 -0.2067
 3188TIP3    H131055   3.780   3.343   0.405  0.1308 -1.5503 -0.5282
 3188TIP3    H231056   3.725   3.467   0.338  1.1419 -0.1743  1.1559
 3189TIP3   OH231057   2.914   6.191   5.452  0.1904  0.0143  0.3791
 3189TIP3    H131058   2.861   6.112   5.439 -1.1022  0.5304  2.3459
 3189TIP3    H231059   2.882   6.252   5.386 -0.6431 -0.1936  0.5856
 3190TIP3   OH231060   5.063   3.875  13.741 -0.4710  0.4389 -0.2569
 3190TIP3    H131061   5.055   3.957  13.693  2.7382  1.8058  1.3879
 3190TIP3    H231062   4.994   3.878  13.807 -1.0536  1.3191 -0.9075
 3191TIP3   OH231063   5.762   3.375  14.676  0.4954  0.1544  0.0423
 3191TIP3    H131064   5.759   3.280  14.669 -1.2835  0.0926  1.3353
 3191TIP3    H231065   5.798   3.392  14.763  0.0214  0.6431  0.1485
 3192TIP3   OH231066   1.710   5.099  16.817  0.2821 -0.4304 -0.4653
 3192TIP3    H131067   1.746   5.071  16.901 -0.1992  2.4163  0.7211
 3192TIP3    H231068   1.620   5.067  16.818  0.4429 -0.8770 -0.1380
 3193TIP3   OH231069   2.116   1.308   1.413  0.2767  0.0488  0.1789
 3193TIP3    H131070   2.202   1.309   1.456 -0.3136 -0.9869  1.4189
 3193TIP3    H231071   2.136   1.311   1.319  1.6227  1.2078  0.4811
 3194TIP3   OH231072   6.626   0.744   1.107 -0.3027 -0.1755  0.4014
 3194TIP3    H131073   6.601   0.655   1.132 -0.2944 -0.5707 -0.9605
 3194TIP3    H231074   6.671   0.733   1.023 -2.1305  1.3105 -0.8130
 3195TIP3   OH231075   0.045   4.974   3.863  0.0765  0.3204  0.5092
 3195TIP3    H131076   0.078   4.884   3.868 -0.0304  0.2627  0.1571
 3195TIP3    H231077   0.120   5.026   3.834 -0.3311  0.0790 -1.0281
 3196TIP3   OH231078   1.427   6.760   2.796 -0.1384  0.0644 -0.7497
 3196TIP3    H131079   1.358   6.716   2.846  0.5123 -0.8692 -0.6609
 3196TIP3    H231080   1.498   6.696   2.793  2.1013  2.3201  2.2023
 3197TIP3   OH231081   5.967   1.743  17.070  0.3085  0.3315 -0.0895
 3197TIP3    H131082   5.881   1.720  17.107  0.0326  2.6897  0.7993
 3197TIP3    H231083   6.030   1.699  17.127 -0.2109  1.4968  1.4253
 3198TIP3   OH231084   1.380   5.653  14.488 -0.1289 -0.3620  0.3473
 3198TIP3    H131085   1.406   5.613  14.405  0.1667  0.1677  0.1763
 3198TIP3    H231086   1.462   5.685  14.526 -0.5313  1.4771 -0.2730
 3199TIP3   OH231087   6.533   3.525   5.019  0.2935  0.2939  0.5135
 3199TIP3    H131088   6.575   3.556   5.100 -0.2930 -0.1755  0.9943
 3199TIP3    H231089   6.606   3.492   4.966  0.6645  0.4698  0.9054
 3200TIP3   OH231090   5.359   2.768   1.172  0.2148  0.1947  0.1039
 3200TIP3    H131091   5.384   2.683   1.208  0.7133 -0.4758 -1.7751
 3200TIP3    H231092   5.434   2.824   1.192  0.8285 -0.3744 -0.5621
 3201TIP3   OH231093   0.292   0.726   2.448  0.2307 -0.6452  0.5605
 3201TIP3    H131094   0.216   0.773   2.482  0.5068 -0.7990  1.4029
 3201TIP3    H231095   0.336   0.789   2.391 -1.7673 -1.2612 -1.7990
 3202TIP3   OH231096   6.307   3.021  13.205  0.0087 -0.6375  0.5485
 3202TIP3    H131097   6.295   3.079  13.130 -0.3129  0.5476  1.4853
 3202TIP3    H231098   6.399   2.995  13.201 -0.4709 -2.1420 -1.3334
 3203TIP3   OH231099   1.104   2.657   4.647 -0.6672 -0.3687 -0.6786
 3203TIP3    H131100   1.025   2.697   4.613 -0.6058  0.1459 -0.2187
 3203TIP3    H231101   1.175   2.695   4.595 -0.7694 -1.3045 -1.5201
 3204TIP3   OH231102   3.649   4.583   2.390  0.4555 -0.0499 -0.0148
 3204TIP3    H131103   3.650   4.667   2.345 -0.3738 -1.2986 -2.4452
 3204TIP3    H231104   3.737   4.548   2.377  0.4797 -0.0237  0.0812
 3205TIP3   OH231105   2.850   0.156   2.557 -0.2949 -0.4885 -0.3520
 3205TIP3    H131106   2.904   0.231   2.531 -1.6918  0.2354 -1.2601
 3205TIP3    H231107   2.829   0.112   2.475 -0.5502 -1.1350  0.0558
 3206TIP3   OH231108   3.526   6.614   3.653 -0.3805 -0.2902  0.6933
 3206TIP3    H131109   3.459   6.550   3.626  0.1341 -0.3921 -0.4039
 3206TIP3    H231110   3.609   6.575   3.622  0.2121 -0.2561  2.1961
 3207TIP3   OH231111   2.055   2.624   1.021  0.4350  0.3974  0.6057
 3207TIP3    H131112   1.975   2.640   1.070 -0.5428  0.7965 -1.0922
 3207TIP3    H231113   2.124   2.621   1.088 -0.8499  0.9905  1.9801
 3208TIP3   OH231114   1.648   0.962   3.501  0.1052 -0.0299  0.3555
 3208TIP3    H131115   1.568   0.909   3.499 -0.3587  0.7270 -1.2508
 3208TIP3    H231116   1.706   0.920   3.438 -0.2142  1.2959 -0.8280
 3209TIP3   OH231117   6.161   4.189   2.254 -0.1271 -0.2510 -0.1558
 3209TIP3    H131118   6.237   4.130   2.255  0.2127  0.0770 -2.5435
 3209TIP3    H231119   6.087   4.132   2.232 -0.5438 -0.5118  1.8378
 3210TIP3   OH231120   0.602   2.931   5.339 -0.5174  0.6049  0.2623
 3210TIP3    H131121   0.615   2.839   5.316  0.5092  0.1894  2.4495
 3210TIP3    H231122   0.544   2.965   5.270 -1.0536 -1.7136 -0.4562
 3211TIP3   OH231123   1.868   0.135   0.764 -0.5160 -0.3855  0.3784
 3211TIP3    H131124   1.779   0.169   0.760 -0.1785  0.6072  0.9591
 3211TIP3    H231125   1.914   0.197   0.821  0.2295 -1.5890  1.1203
 3212TIP3   OH231126   3.893   0.854  14.665 -0.2556  0.3448  0.5517
 3212TIP3    H131127   3.964   0.914  14.643  0.5335 -1.0077 -0.7399
 3212TIP3    H231128   3.816   0.890  14.621  0.1458  0.5902  0.0434
 3213TIP3   OH231129   2.283   2.794   3.667  0.0162  0.3107  0.2139
 3213TIP3    H131130   2.353   2.826   3.724 -1.3059  1.0444  1.4544
 3213TIP3    H231131   2.304   2.831   3.581  3.0996 -2.3792 -0.3074
 3214TIP3   OH231132   4.378   1.854  15.704  0.0459 -0.3937  0.1981
 3214TIP3    H131133   4.325   1.906  15.764  0.5961  1.9460 -1.2579
 3214TIP3    H231134   4.327   1.853  15.623  1.4827  0.5810 -0.7413
 3215TIP3   OH231135   4.915   4.599  15.127 -0.0262  0.2953 -0.2084
 3215TIP3    H131136   4.895   4.535  15.195 -1.5417  0.3938 -0.5393
 3215TIP3    H231137   5.005   4.580  15.102  0.2146 -0.3918  1.1079
 3216TIP3   OH231138   5.335   5.232   5.111 -0.0669  0.1596 -0.1543
 3216TIP3    H131139   5.380   5.152   5.084 -1.3271 -0.0434 -1.7448
 3216TIP3    H231140   5.368   5.250   5.199 -1.0369 -3.1026  0.9646
 3217TIP3   OH231141   1.449   5.281   6.509 -0.2731  0.0580 -0.4500
 3217TIP3    H131142   1.489   5.210   6.560 -0.3911 -0.4799 -1.0836
 3217TIP3    H231143   1.368   5.302   6.555 -0.3428 -0.3727 -0.3745
 3218TIP3   OH231144   5.240   3.314   3.897 -0.4313 -0.3040 -0.4505
 3218TIP3    H131145   5.274   3.296   3.810 -0.9388  0.1852 -0.7550
 3218TIP3    H231146   5.182   3.241   3.916 -1.5588  0.3832 -1.1873
 3219TIP3   OH231147   1.639   0.843  16.360 -0.2830  0.5271 -0.1955
 3219TIP3    H131148   1.717   0.847  16.306  0.1293  0.3056  0.3767
 3219TIP3    H231149   1.582   0.781  16.316  0.0193  0.4046 -0.4139
 3220TIP3   OH231150   1.206   4.486   1.964 -0.0359  0.2666 -0.5779
 3220TIP3    H131151   1.159   4.408   1.935  0.6331 -1.0487  1.7538
 3220TIP3    H231152   1.166   4.510   2.047  0.9893  1.3150 -0.3628
 3221TIP3   OH231153   4.631   0.233  14.398 -0.2012 -0.6052  0.2351
 3221TIP3    H131154   4.556   0.265  14.448 -0.3969  0.9308 -1.0321
 3221TIP3    H231155   4.593   0.177  14.330 -0.3325  1.3124 -1.2983
 3222TIP3   OH231156   1.229   2.255   5.894 -0.0173  0.5635 -0.2513
 3222TIP3    H131157   1.192   2.254   5.805 -1.4779 -2.5819  0.2964
 3222TIP3    H231158   1.167   2.309   5.945  1.5774  3.5505 -1.3642
 3223TIP3   OH231159   3.941   2.220  14.588 -0.8540  0.3544  0.0814
 3223TIP3    H131160   4.025   2.179  14.606  0.1527  1.5972 -1.5979
 3223TIP3    H231161   3.878   2.148  14.591  0.5795 -0.9720 -0.8036
 3224TIP3   OH231162   1.690   5.183   3.206 -0.0660 -0.3312 -0.0232
 3224TIP3    H131163   1.719   5.158   3.118 -1.8012  1.1253 -1.0675
 3224TIP3    H231164   1.599   5.152   3.211  0.2890 -1.1708  1.6065
 3225TIP3   OH231165   1.376   4.712   4.702  0.1056 -0.0798 -0.5311
 3225TIP3    H131166   1.452   4.668   4.742 -0.9802 -1.1938  0.3570
 3225TIP3    H231167   1.343   4.648   4.638 -2.0433 -0.9948  1.4207
 3226TIP3   OH231168   4.187   0.511   2.245  0.5875 -0.5174  0.1748
 3226TIP3    H131169   4.136   0.587   2.272  2.0673  1.0534 -1.3266
 3226TIP3    H231170   4.236   0.486   2.323 -0.7889 -0.6791  1.0032
 3227TIP3   OH231171   5.937   0.798   1.865 -0.0489 -0.6805 -0.6144
 3227TIP3    H131172   5.857   0.843   1.837  0.0515 -1.3115 -1.9555
 3227TIP3    H231173   5.916   0.762   1.951 -0.5447  0.8390 -0.0763
 3228TIP3   OH231174   1.903   1.123   3.162 -0.1472 -0.8184 -0.1195
 3228TIP3    H131175   1.814   1.143   3.192  0.1079  2.0425 -1.1339
 3228TIP3    H231176   1.957   1.133   3.241 -0.0656  2.4810 -0.5207
 3229TIP3   OH231177   1.365   5.411   6.229  0.7202  0.1729 -0.7073
 3229TIP3    H131178   1.307   5.482   6.202  1.0245  0.4087 -0.7371
 3229TIP3    H231179   1.443   5.455   6.263  0.7411 -0.1399 -0.3481
 3230TIP3   OH231180   6.687   1.060  16.121  0.1391  0.4658 -0.2766
 3230TIP3    H131181   6.744   1.120  16.170  1.3273 -0.7599 -0.1299
 3230TIP3    H231182   6.709   1.076  16.029 -0.4472  1.1395 -0.3012
 3231TIP3   OH231183   3.910   0.588  12.606 -0.2896 -0.4552 -0.1776
 3231TIP3    H131184   3.834   0.644  12.616  1.0185  1.4270 -0.4594
 3231TIP3    H231185   3.971   0.639  12.553  1.1833 -1.8926  0.0776
 3232TIP3   OH231186   3.806   2.911  12.256 -0.1071 -0.2872 -0.3752
 3232TIP3    H131187   3.812   3.002  12.226 -1.0036  0.3508  1.3229
 3232TIP3    H231188   3.778   2.862  12.179  1.1229  0.7481 -1.5046
 3233TIP3   OH231189   2.949   3.572   6.061  0.0431  0.4237  0.0069
 3233TIP3    H131190   2.993   3.573   5.975  0.1607 -2.8515 -0.0151
 3233TIP3    H231191   2.856   3.576   6.040  0.0006 -1.9166 -0.4017
 3234TIP3   OH231192   1.901   3.803  14.511 -0.8247  0.2792  0.2263
 3234TIP3    H131193   1.891   3.782  14.604 -0.8988  0.6028  0.2901
 3234TIP3    H231194   1.887   3.719  14.467 -0.1296 -0.0153  0.5449
 3235TIP3   OH231195   3.389   4.993  15.765  0.4440  0.5475  0.0474
 3235TIP3    H131196   3.330   5.034  15.701  0.4170 -1.0661 -0.9915
 3235TIP3    H231197   3.412   4.909  15.726  0.8579 -0.2473  1.9385
 3236TIP3   OH231198   5.656   4.401  15.170  0.2707  0.6191  0.4219
 3236TIP3    H131199   5.627   4.350  15.245  0.3645 -0.1396 -0.0588
 3236TIP3    H231200   5.722   4.347  15.128 -0.8666  0.3575 -1.0846
 3237TIP3   OH231201   2.924   0.927  13.222 -0.2243  0.1573 -0.0531
 3237TIP3    H131202   2.850   0.868  13.204 -0.2680 -0.0800  0.8679
 3237TIP3    H231203   2.924   0.936  13.318  2.3514 -1.6829  0.1825
 3238TIP3   OH231204   3.666   2.293  12.469  1.2373  0.1242  0.3836
 3238TIP3    H131205   3.667   2.379  12.427  0.0141  1.0699  2.2257
 3238TIP3    H231206   3.714   2.305  12.551  1.1683 -0.9936  0.6045
 3239TIP3   OH231207   6.775   6.677  12.841 -0.3228 -0.0616  0.1577
 3239TIP3    H131208   6.800   6.585  12.853  1.0469  0.1382 -1.0803
 3239TIP3    H231209   6.755   6.685  12.748 -1.2021  0.7367  0.3992
 3240TIP3   OH231210   0.272   6.339   6.954 -0.9933  0.3150  0.0620
 3240TIP3    H131211   0.215   6.301   7.021  0.1060  0.2978  0.9952
 3240TIP3    H231212   0.256   6.285   6.876  0.0580 -1.6698  1.1821
 3241TIP3   OH231213   6.688   4.861  10.583 -0.2128 -0.3108 -0.7679
 3241TIP3    H131214   6.713   4.952  10.566 -0.7380  0.4806  2.4364
 3241TIP3    H231215   6.593   4.864  10.597 -0.5786 -1.7155 -2.7840
 3242TIP3   OH231216   4.420   6.322   1.616 -0.0141 -0.5210 -0.2215
 3242TIP3    H131217   4.453   6.251   1.561 -2.0333  0.3188 -2.5908
 3242TIP3    H231218   4.332   6.294   1.641 -0.2255  0.4409  0.1277
 3243TIP3   OH231219   6.805   4.106   3.295 -0.8215  0.3119  0.3905
 3243TIP3    H131220   6.779   4.016   3.315  1.0098 -0.5296 -0.8707
 3243TIP3    H231221   6.867   4.129   3.364  1.2077 -0.5865 -1.0951
 3244TIP3   OH231222   6.498   2.962  13.939  0.1806  0.1126 -0.2283
 3244TIP3    H131223   6.431   3.020  13.901  0.0492  0.6546  0.8265
 3244TIP3    H231224   6.580   2.994  13.901  0.0387  0.5888 -0.1439
 3245TIP3   OH231225   0.555   0.127   5.060 -0.1334  0.6612  0.4443
 3245TIP3    H131226   0.507   0.164   4.986  0.1799 -0.4785 -0.3414
 3245TIP3    H231227   0.520   0.172   5.137 -3.0568 -0.7182 -0.0282
 3246TIP3   OH231228   1.115   6.486   4.660 -0.0067  0.2338 -0.0726
 3246TIP3    H131229   1.180   6.463   4.727  0.3461 -0.4300 -0.6413
 3246TIP3    H231230   1.061   6.552   4.702  0.8547  0.5814  0.5187
 3247TIP3   OH231231   1.118   4.504  12.259 -0.5662  0.5604 -0.0850
 3247TIP3    H131232   1.040   4.454  12.238  0.2075 -0.3500 -0.8265
 3247TIP3    H231233   1.092   4.595  12.245 -1.2898  0.2194 -1.0276
 3248TIP3   OH231234   3.037   1.359  12.777  0.8396  0.1415  0.6124
 3248TIP3    H131235   2.976   1.326  12.843  1.5365 -2.8571 -0.1377
 3248TIP3    H231236   3.124   1.340  12.814  1.2556 -3.4739 -1.9043
 3249TIP3   OH231237   1.415   0.172  15.404  0.5372 -0.3114 -0.6160
 3249TIP3    H131238   1.494   0.199  15.452  0.4822  0.6820 -1.0745
 3249TIP3    H231239   1.363   0.125  15.468  0.0830  1.7262  0.5390
 3250TIP3   OH231240   4.167   0.423   0.880  0.0692  0.1495  0.3994
 3250TIP3    H131241   4.141   0.425   0.788  0.2024  1.4998  0.3848
 3250TIP3    H231242   4.085   0.434   0.928  0.2643  1.6145  0.4018
 3251TIP3   OH231243   2.369   2.257   4.664 -0.0827 -0.1579  0.1455
 3251TIP3    H131244   2.296   2.200   4.685 -0.1203 -0.3244 -0.4211
 3251TIP3    H231245   2.421   2.262   4.745 -1.0340  0.4422  0.7239
 3252TIP3   OH231246   6.782   4.538   5.516 -0.5773  0.2647 -0.9639
 3252TIP3    H131247   6.791   4.510   5.425 -3.4199 -1.3778 -0.8006
 3252TIP3    H231248   6.700   4.586   5.518 -1.3698 -1.1235  1.0534
 3253TIP3   OH231249   1.671   6.099  15.970  0.4275 -0.5501  0.0038
 3253TIP3    H131250   1.617   6.097  15.891  0.0154  0.0223  0.2702
 3253TIP3    H231251   1.641   6.177  16.018  1.0314 -0.5995  0.4703
 3254TIP3   OH231252   1.179   3.944  14.868  0.0914 -0.2732 -0.3296
 3254TIP3    H131253   1.129   3.945  14.786  0.5433 -1.3934 -0.6301
 3254TIP3    H231254   1.118   3.907  14.933 -0.6322  1.6286  0.0963
 3255TIP3   OH231255   1.527   0.856  11.678  0.2185  0.1296  0.5743
 3255TIP3    H131256   1.440   0.892  11.659 -0.2955 -0.8566  1.0494
 3255TIP3    H231257   1.532   0.777  11.625 -0.0161 -0.9593  2.1379
 3256TIP3   OH231258   5.351   5.052  13.346  0.2802  0.0454  0.4406
 3256TIP3    H131259   5.443   5.078  13.352  0.4202 -0.2070 -0.5251
 3256TIP3    H231260   5.351   4.958  13.361  0.2466 -0.0377 -0.0505
 3257TIP3   OH231261   5.212   2.837   4.323  0.1947 -0.7915  1.0413
 3257TIP3    H131262   5.123   2.857   4.351  0.6808  1.1487  1.2157
 3257TIP3    H231263   5.268   2.881   4.387  1.2859  0.0548 -0.4712
 3258TIP3   OH231264   1.454   1.607  10.515 -0.1089 -0.1399 -0.2837
 3258TIP3    H131265   1.466   1.698  10.490 -2.0697 -0.4387 -2.5023
 3258TIP3    H231266   1.515   1.558  10.459 -0.1719 -0.3089 -0.2055
 3259TIP3   OH231267   1.900   5.518  12.447  0.1291  0.0242 -0.4212
 3259TIP3    H131268   1.900   5.436  12.498  1.0954  0.0081 -0.4393
 3259TIP3    H231269   1.876   5.585  12.510 -1.8510 -0.4116 -0.6606
 3260TIP3   OH231270   0.303   0.754   4.164 -0.2836 -0.0573 -0.7124
 3260TIP3    H131271   0.352   0.836   4.175  0.1902 -0.5433  0.9792
 3260TIP3    H231272   0.226   0.766   4.219 -2.3232  0.8376 -3.6137
 3261TIP3   OH231273   0.947   5.720  13.534 -0.5570  0.1242  0.2087
 3261TIP3    H131274   1.033   5.756  13.558 -0.6290  1.1576 -1.0304
 3261TIP3    H231275   0.886   5.792  13.552 -1.0721 -0.3513  0.3529
 3262TIP3   OH231276   1.130   5.841   3.026 -0.1248  0.0280  0.2802
 3262TIP3    H131277   1.154   5.925   3.064 -0.7598  0.2539  0.1820
 3262TIP3    H231278   1.201   5.782   3.051 -0.3896  0.2415  1.5685
 3263TIP3   OH231279   0.323   4.572   0.850 -0.3293  0.3109  0.2669
 3263TIP3    H131280   0.238   4.582   0.808 -0.8609 -0.4391  1.1528
 3263TIP3    H231281   0.312   4.613   0.936  0.2745  0.3943  0.3056
 3264TIP3   OH231282   0.826   0.744  12.571 -0.6075 -0.3430 -0.0698
 3264TIP3    H131283   0.913   0.731  12.533 -0.0292  1.7633  0.4687
 3264TIP3    H231284   0.773   0.777  12.499 -0.1990  1.1082  0.2763
 3265TIP3   OH231285   3.821   4.399   0.152  0.0422  0.5310  0.1638
 3265TIP3    H131286   3.916   4.406   0.161  0.1474 -0.8704  0.1825
 3265TIP3    H231287   3.792   4.360   0.235 -0.4122 -0.1535 -0.3143
 3266TIP3   OH231288   5.396   2.295  14.362 -0.4606 -0.1402  0.5868
 3266TIP3    H131289   5.475   2.287  14.309  0.3392  1.8796  1.4195
 3266TIP3    H231290   5.347   2.366  14.320 -0.3439  0.7229  1.8733
 3267TIP3   OH231291   1.828   3.232  13.889 -0.0431  0.2767 -0.6565
 3267TIP3    H131292   1.758   3.181  13.847 -1.0129 -0.7825  2.1290
 3267TIP3    H231293   1.782   3.286  13.954  1.4493  1.5785 -0.6576
 3268TIP3   OH231294   6.171   6.460  13.642 -0.4777 -0.0701 -0.1485
 3268TIP3    H131295   6.172   6.547  13.681  2.0665 -0.2903  0.3615
 3268TIP3    H231296   6.222   6.468  13.562 -0.3200 -1.0611 -0.1619
 3269TIP3   OH231297   4.115   3.304  15.863  0.4444  0.3885  0.3573
 3269TIP3    H131298   4.189   3.273  15.811 -1.1692  0.7147 -2.2190
 3269TIP3    H231299   4.109   3.397  15.843 -2.0856 -0.0895 -1.3722
 3270TIP3   OH231300   5.467   3.699  16.777 -0.5202 -0.0907 -0.1059
 3270TIP3    H131301   5.496   3.732  16.862 -0.1671 -0.1731 -0.1911
 3270TIP3    H231302   5.526   3.625  16.759 -1.7645 -1.2290  0.4158
 3271TIP3   OH231303   1.883   1.100   1.764 -0.2449 -0.0428 -0.5471
 3271TIP3    H131304   1.910   1.163   1.832  0.1406 -0.5332 -0.2417
 3271TIP3    H231305   1.918   1.016   1.795 -2.0782 -0.6864 -0.1845
 3272TIP3   OH231306   2.281   6.124   4.648  0.3108 -0.1776  0.0852
 3272TIP3    H131307   2.209   6.110   4.709 -1.5023 -0.3419 -2.0491
 3272TIP3    H231308   2.263   6.210   4.610  1.4721 -0.0500 -0.1856
 3273TIP3   OH231309   3.753   6.474  16.117  0.4969 -0.2720 -0.1465
 3273TIP3    H131310   3.679   6.456  16.058 -0.6140  0.2522  1.0504
 3273TIP3    H231311   3.736   6.420  16.194  1.5420 -0.3822  0.0151
 3274TIP3   OH231312   5.007   4.471  13.731 -0.4904  0.3500  0.7800
 3274TIP3    H131313   5.070   4.443  13.664 -0.9815 -0.8891  0.8298
 3274TIP3    H231314   4.928   4.493  13.681 -1.0666 -1.1879  1.0033
 3275TIP3   OH231315   6.523   0.622  11.671 -0.0411 -0.0303 -0.1551
 3275TIP3    H131316   6.480   0.567  11.606 -1.4837  1.3775 -0.4227
 3275TIP3    H231317   6.598   0.570  11.700 -1.1987 -2.0077 -0.5957
 3276TIP3   OH231318   4.471   3.392   1.901 -0.8830  0.3365 -0.4516
 3276TIP3    H131319   4.459   3.448   1.824  0.0222  1.5806  0.2781
 3276TIP3    H231320   4.451   3.449   1.976 -0.1939 -0.3863  0.3017
 3277TIP3   OH231321   2.863   2.525  13.345 -0.0472  0.1691 -0.0838
 3277TIP3    H131322   2.816   2.475  13.279 -2.0986 -0.4022  1.7616
 3277TIP3    H231323   2.932   2.466  13.375 -0.1024 -0.1568 -0.5965
 3278TIP3   OH231324   6.103   1.171   4.549 -0.8402  0.6090 -0.0345
 3278TIP3    H131325   6.141   1.133   4.628 -0.2293  0.6617 -0.3040
 3278TIP3    H231326   6.055   1.247   4.580 -1.9687 -0.3014  0.4957
 3279TIP3   OH231327   5.025   1.149  11.551  0.0156  0.3788  0.4078
 3279TIP3    H131328   5.091   1.175  11.487  0.9848  1.6313  1.8751
 3279TIP3    H231329   4.965   1.223  11.554  0.3104  0.5866  1.3655
 3280TIP3   OH231330   5.008   3.993  14.494 -0.5872 -0.4429 -0.2488
 3280TIP3    H131331   4.948   3.918  14.488 -0.0558 -0.8886  0.0094
 3280TIP3    H231332   5.070   3.980  14.422 -0.4444 -0.2940 -0.1538
 3281TIP3   OH231333   2.369   6.253   0.502  0.1076  0.3521  0.4555
 3281TIP3    H131334   2.404   6.296   0.580 -1.7113  1.4524  0.6839
 3281TIP3    H231335   2.370   6.160   0.524  4.1944  0.1541 -0.0911
 3282TIP3   OH231336   5.188   5.431   1.768  0.1557 -0.5338 -0.3955
 3282TIP3    H131337   5.125   5.366   1.738 -3.5327  2.1013  1.2819
 3282TIP3    H231338   5.230   5.463   1.688 -1.3391 -1.6058 -1.6283
 3283TIP3   OH231339   2.777   3.306   4.212  0.7127 -0.0691 -0.3596
 3283TIP3    H131340   2.791   3.397   4.187 -0.7149  0.3012  0.1112
 3283TIP3    H231341   2.850   3.285   4.271 -0.8432  1.9014  2.3909
 3284TIP3   OH231342   2.340   3.347   1.445  0.1336 -0.2399  0.2438
 3284TIP3    H131343   2.367   3.418   1.387 -1.3104 -0.1146 -0.3191
 3284TIP3    H231344   2.404   3.278   1.429 -0.1783 -0.1754 -1.4853
 3285TIP3   OH231345   4.284   2.134   5.997 -0.1632 -0.6235 -0.7467
 3285TIP3    H131346   4.318   2.217   6.029 -0.2730 -0.1438 -1.8406
 3285TIP3    H231347   4.306   2.071   6.065 -2.1362  0.7044  1.1790
 3286TIP3   OH231348   6.135   3.537  14.868  0.3977 -0.3271  0.2229
 3286TIP3    H131349   6.137   3.628  14.837  0.4337 -0.0547  1.0179
 3286TIP3    H231350   6.049   3.504  14.840  0.0171  0.2337  0.7414
 3287TIP3   OH231351   4.978   0.998   6.066 -0.0442 -0.5937  0.3100
 3287TIP3    H131352   4.907   1.027   6.123 -1.3834 -0.7140 -1.2753
 3287TIP3    H231353   4.971   0.903   6.065  1.5942 -0.7716  1.9644
 3288TIP3   OH231354   5.450   1.285  17.228  0.0095  0.0858  0.3723
 3288TIP3    H131355   5.483   1.341  17.298  0.2894  0.1055  0.2250
 3288TIP3    H231356   5.437   1.344  17.154 -0.4443  0.0939  0.4604
 3289TIP3   OH231357   1.093   1.444  12.682  0.3958  0.0622 -0.2156
 3289TIP3    H131358   1.020   1.500  12.711  1.6482  1.2385  0.7593
 3289TIP3    H231359   1.117   1.394  12.760 -0.6255 -1.7845 -1.0480
 3290TIP3   OH231360   2.439   4.896   1.820 -0.1190  0.0678  0.6526
 3290TIP3    H131361   2.439   4.920   1.913 -0.7726 -0.7121  0.8518
 3290TIP3    H231362   2.426   4.980   1.775 -2.5139  0.1312  1.3626
 3291TIP3   OH231363   3.011   2.684  11.984 -0.5041  0.6076  0.8476
 3291TIP3    H131364   3.078   2.681  11.916 -0.0972  0.5706  1.2437
 3291TIP3    H231365   3.057   2.659  12.064 -1.3855 -1.2106  0.8189
 3292TIP3   OH231366   5.495   4.700  15.200 -0.2346 -0.1260  0.2064
 3292TIP3    H131367   5.456   4.748  15.273  1.8479  1.0631  0.5621
 3292TIP3    H231368   5.476   4.608  15.219 -1.8756  0.3385  0.9312
 3293TIP3   OH231369   4.917   1.985  11.464  0.1197  0.1226  0.4898
 3293TIP3    H131370   4.902   2.073  11.430 -0.3698  0.5958  1.8845
 3293TIP3    H231371   4.890   1.927  11.393  1.0820  1.0912 -0.7029
 3294TIP3   OH231372   2.380   1.584  13.333  0.2317  0.1677  0.1756
 3294TIP3    H131373   2.372   1.523  13.260  1.5087  0.0150  0.1466
 3294TIP3    H231374   2.370   1.530  13.411  0.3759  0.0784  0.1332
 3295TIP3   OH231375   5.484   1.845  10.870  0.4241  0.2792 -0.2550
 3295TIP3    H131376   5.406   1.844  10.816  1.1801  2.1537 -1.4119
 3295TIP3    H231377   5.553   1.880  10.813  1.9214 -0.5694  0.9893
 3296TIP3   OH231378   6.719   3.259   2.144 -0.0577  0.7932 -0.6478
 3296TIP3    H131379   6.740   3.315   2.069 -1.3824  0.6419 -1.1576
 3296TIP3    H231380   6.783   3.188   2.140  1.6416  2.2445  0.0013
 3297TIP3   OH231381   4.082   0.657  11.448  0.6444 -0.2678  0.1530
 3297TIP3    H131382   3.988   0.644  11.461  0.9513 -2.4786  0.2856
 3297TIP3    H231383   4.115   0.681  11.535  0.1884  0.7392  0.0605
 3298TIP3   OH231384   4.527   1.628  13.951 -0.1286 -0.1320  0.3368
 3298TIP3    H131385   4.550   1.720  13.936  0.1044 -0.4516 -1.3437
 3298TIP3    H231386   4.495   1.626  14.041  1.8785  1.2194  1.1244
 3299TIP3   OH231387   4.720   0.302  12.910 -0.3248  0.3372 -0.0855
 3299TIP3    H131388   4.654   0.301  12.980  0.7838  3.5566  1.1213
 3299TIP3    H231389   4.672   0.332  12.832 -0.6183  1.2942  0.4541
 3300TIP3   OH231390   0.413   2.186  11.574 -0.0437 -0.0044  0.1499
 3300TIP3    H131391   0.432   2.240  11.651  1.1097 -0.0360 -0.0918
 3300TIP3    H231392   0.441   2.098  11.599  0.2592 -0.0306 -0.2677
 3301TIP3   OH231393   2.611   0.024  13.003  0.5968 -0.1926  0.4084
 3301TIP3    H131394   2.642  -0.062  13.030  2.2506  1.3047  3.5444
 3301TIP3    H231395   2.516   0.021  13.019  0.8202 -1.0405  1.6205
 3302TIP3   OH231396   0.227   0.566   4.491  1.0494 -0.3888 -0.3719
 3302TIP3    H131397   0.154   0.542   4.435  0.7111 -2.6801  0.9505
 3302TIP3    H231398   0.249   0.656   4.467 -1.1386 -0.2429 -1.9081
 3303TIP3   OH231399   1.973   4.277   6.696 -0.7918  0.0154 -0.1044
 3303TIP3    H131400   1.964   4.200   6.640  0.2222  0.3605 -0.7542
 3303TIP3    H231401   1.903   4.336   6.668  0.1696  0.4966 -1.5275
 3304TIP3   OH231402   4.371   4.576   0.582  0.4814  0.2623  0.5796
 3304TIP3    H131403   4.300   4.563   0.644  0.8667  1.4790  1.2801
 3304TIP3    H231404   4.371   4.496   0.529  0.0972 -0.7489  2.0687
 3305TIP3   OH231405   5.537   3.624   5.090  0.5625  0.3459 -0.8507
 3305TIP3    H131406   5.498   3.710   5.104 -0.8146  0.1477 -3.1170
 3305TIP3    H231407   5.585   3.605   5.170 -1.7184  1.8497  0.9223
 3306TIP3   OH231408   3.893   5.135   3.921  0.3398  0.0560 -0.3186
 3306TIP3    H131409   3.839   5.210   3.947 -0.7717 -0.8377 -0.0156
 3306TIP3    H231410   3.973   5.145   3.973 -0.3246  0.3329  0.6772
 3307TIP3   OH231411   1.598   0.075  13.945 -0.0123  0.3920 -0.4088
 3307TIP3    H131412   1.566  -0.002  13.992 -2.7528  0.1577 -2.5351
 3307TIP3    H231413   1.579   0.148  14.003  0.4638 -0.2848  0.6139
 3308TIP3   OH231414   1.381   4.116   4.798  0.4759  0.6727 -0.2815
 3308TIP3    H131415   1.444   4.184   4.824 -0.8227  1.4495  0.8793
 3308TIP3    H231416   1.308   4.126   4.858 -1.2210  0.4177 -2.2325
 3309TIP3   OH231417   6.083   6.142   1.555 -0.0834  0.0269 -0.0165
 3309TIP3    H131418   6.057   6.205   1.622  0.0780  0.9240 -0.7958
 3309TIP3    H231419   6.178   6.133   1.566 -0.1029 -0.0679  0.0759
 3310TIP3   OH231420   4.792   1.666  12.165 -0.0526  1.0113 -1.2116
 3310TIP3    H131421   4.699   1.649  12.179  0.1419  1.3078  0.5288
 3310TIP3    H231422   4.795   1.752  12.123 -0.6001  0.5893 -2.1227
 3311TIP3   OH231423   2.956   6.558  16.893 -0.3129  0.2402 -0.1719
 3311TIP3    H131424   3.044   6.549  16.857  0.1165  0.8984  0.6930
 3311TIP3    H231425   2.899   6.513  16.830  0.6552 -0.3081 -0.6586
 3312TIP3   OH231426   1.345   5.697  12.591 -0.0443  0.6785 -0.5524
 3312TIP3    H131427   1.302   5.779  12.615 -2.4176 -0.7894  0.3804
 3312TIP3    H231428   1.390   5.717  12.509 -0.3463  2.9917 -0.1785
 3313TIP3   OH231429   2.551   5.385  11.519 -0.1028  1.0146  0.0417
 3313TIP3    H131430   2.577   5.357  11.431  0.5808  2.2267 -0.1433
 3313TIP3    H231431   2.457   5.398  11.513 -0.0039  1.4741 -0.6218
 3314TIP3   OH231432   6.294   0.712  12.979  0.0337 -0.1592 -0.1308
 3314TIP3    H131433   6.220   0.658  13.006 -0.5958  1.3269  1.2446
 3314TIP3    H231434   6.253   0.790  12.940  0.9001  0.1137 -0.4977
 3315TIP3   OH231435   2.301   5.329  12.464 -0.5253 -0.1921  0.4795
 3315TIP3    H131436   2.290   5.308  12.557 -0.6732  0.9335  0.7271
 3315TIP3    H231437   2.283   5.423  12.459  0.0033 -0.1455 -0.6075
 3316TIP3   OH231438   4.403   0.307   0.972 -0.0398 -0.6282  0.8357
 3316TIP3    H131439   4.485   0.346   0.942 -0.3276 -1.9890 -1.8914
 3316TIP3    H231440   4.337   0.375   0.957 -0.5751 -1.9884 -4.0808
 3317TIP3   OH231441   3.130   5.091   1.632 -0.0459 -0.2341  0.5716
 3317TIP3    H131442   3.084   5.013   1.663 -1.4542 -0.1258 -1.1594
 3317TIP3    H231443   3.128   5.151   1.706 -1.0817 -0.9272  1.1226
 3318TIP3   OH231444   5.464   6.513  11.674  0.4016 -0.3158 -0.0853
 3318TIP3    H131445   5.384   6.487  11.718  0.2345 -1.7109 -1.1686
 3318TIP3    H231446   5.534   6.479  11.730  0.2355  0.5329  0.6388
 3319TIP3   OH231447   6.154   0.280  14.859  0.7766  0.3181  0.6368
 3319TIP3    H131448   6.239   0.320  14.840  0.4282  0.4158 -0.7873
 3319TIP3    H231449   6.111   0.342  14.919  0.5617  1.7041 -0.9198
 3320TIP3   OH231450   3.463   1.145  15.121 -0.2843  0.0629 -0.0227
 3320TIP3    H131451   3.540   1.199  15.104 -0.7698  0.6243 -0.4432
 3320TIP3    H231452   3.392   1.207  15.131 -0.4140 -0.3596  1.9101
 3321TIP3   OH231453   2.477   0.796   3.930  0.3242  0.1326  0.3007
 3321TIP3    H131454   2.517   0.882   3.941  1.7452 -0.6401  1.4229
 3321TIP3    H231455   2.507   0.767   3.844 -0.2686  0.8009 -0.1403
 3322TIP3   OH231456   4.615   2.077  13.504  0.2091 -0.5725  0.0616
 3322TIP3    H131457   4.675   2.130  13.453 -0.0735  0.7013  1.0057
 3322TIP3    H231458   4.537   2.133  13.514 -0.0819 -1.1425  1.0827
 3323TIP3   OH231459   4.365   2.685  13.638  0.0367  0.3668  0.4845
 3323TIP3    H131460   4.390   2.622  13.706  0.7798  0.7291  0.5572
 3323TIP3    H231461   4.426   2.758  13.650  0.5837  0.1688 -0.9502
 3324TIP3   OH231462   3.018   1.872  10.889  0.0490 -0.0213  0.0899
 3324TIP3    H131463   2.938   1.887  10.938 -0.7650 -0.9467 -0.9407
 3324TIP3    H231464   3.011   1.783  10.856  1.7214 -0.2832  0.3898
 3325TIP3   OH231465   6.332   4.132   4.562 -0.3276  0.2781 -0.3852
 3325TIP3    H131466   6.297   4.197   4.622 -0.5674  0.9387 -1.2312
 3325TIP3    H231467   6.265   4.123   4.495  0.4424  0.4190 -1.1853
 3326TIP3   OH231468   0.468   6.259   2.466  0.4027  0.2785  0.0811
 3326TIP3    H131469   0.409   6.224   2.534  0.2027  0.5609  0.0509
 3326TIP3    H231470   0.523   6.184   2.442 -0.5764 -0.2329 -0.5735
 3327TIP3   OH231471   3.360   3.137   4.711 -0.8621  0.2952 -0.0281
 3327TIP3    H131472   3.406   3.221   4.707 -0.1760 -0.0598  0.3173
 3327TIP3    H231473   3.352   3.109   4.620 -0.0737  0.1918 -0.0698
 3328TIP3   OH231474   1.941   0.277  13.834 -0.0205  0.1319 -0.0237
 3328TIP3    H131475   2.007   0.208  13.832 -2.1155 -1.8746 -1.3059
 3328TIP3    H231476   1.964   0.329  13.911  1.4512 -2.1079  1.1031
 3329TIP3   OH231477   3.622   1.459   0.729  0.6315 -0.0967  0.1618
 3329TIP3    H131478   3.658   1.492   0.812  1.1635  0.6538 -0.3625
 3329TIP3    H231479   3.588   1.372   0.751  1.1529 -0.0806  1.0720
 3330TIP3   OH231480   4.435   3.419  11.918  0.0171 -0.4189  0.1569
 3330TIP3    H131481   4.367   3.480  11.946  0.5663 -0.5001  1.7216
 3330TIP3    H231482   4.408   3.335  11.957  0.4617 -0.6786 -0.0956
 3331TIP3   OH231483   6.064   1.638   4.526 -0.1519  0.0979 -0.2314
 3331TIP3    H131484   6.081   1.660   4.618 -1.3210 -1.5490  0.4017
 3331TIP3    H231485   6.052   1.723   4.484 -1.9149  0.8230  1.6198
 3332TIP3   OH231486   4.487   3.941  16.084 -0.1975 -0.6162  0.0192
 3332TIP3    H131487   4.456   3.990  16.161  0.9809  0.0540  0.0730
 3332TIP3    H231488   4.517   4.009  16.023  2.8613 -1.3303  0.6981
 3333TIP3   OH231489   1.464   1.626  12.401  0.1178  0.0429 -0.5443
 3333TIP3    H131490   1.419   1.542  12.407 -1.1512  0.7013 -0.6979
 3333TIP3    H231491   1.519   1.630  12.480 -2.1778  0.4159  1.0872
 3334TIP3   OH231492   6.466   6.406  12.193  0.1004  0.1716  0.0897
 3334TIP3    H131493   6.480   6.347  12.120 -0.9403 -1.0200  0.8331
 3334TIP3    H231494   6.535   6.383  12.256 -2.5204 -2.8553  1.9744
 3335TIP3   OH231495   1.757   2.620   3.447 -0.3502  0.2874  0.2070
 3335TIP3    H131496   1.676   2.669   3.454 -1.5629 -1.8418  1.8548
 3335TIP3    H231497   1.808   2.645   3.524 -0.3319  0.0737  0.2656
 3336TIP3   OH231498   5.121   6.406  16.729 -0.6257 -0.2041  0.0508
 3336TIP3    H131499   5.124   6.457  16.810 -1.2848 -1.3671  0.8032
 3336TIP3    H231500   5.143   6.317  16.755 -0.2304 -0.4703 -1.1520
 3337TIP3   OH231501   0.509   3.112  16.515  0.2602 -0.1396  0.1969
 3337TIP3    H131502   0.463   3.065  16.445 -1.0388  0.4547  0.6426
 3337TIP3    H231503   0.553   3.043  16.565 -0.2811 -0.7347 -0.1301
 3338TIP3   OH231504   2.994   6.459   4.854 -0.3637  0.0054  0.1659
 3338TIP3    H131505   3.027   6.418   4.934 -2.3441 -1.3452  0.3298
 3338TIP3    H231506   2.963   6.386   4.801 -1.6415  1.1045 -0.6329
 3339TIP3   OH231507   3.155   0.237   5.333  0.0493 -0.6523  0.0979
 3339TIP3    H131508   3.166   0.312   5.391 -0.1646  0.3810 -1.1764
 3339TIP3    H231509   3.230   0.241   5.274  0.0077 -1.4251 -0.0187
 3340TIP3   OH231510   3.006   4.653   3.956  0.3746  0.0839 -0.4681
 3340TIP3    H131511   2.985   4.632   3.865  0.8903 -0.3074 -0.4969
 3340TIP3    H231512   2.928   4.627   4.005 -0.6047  1.9052 -0.9959
 3341TIP3   OH231513   1.061   1.321   0.869  0.1967  0.3876  0.6526
 3341TIP3    H131514   1.098   1.244   0.825 -3.2380  0.2023 -2.1443
 3341TIP3    H231515   1.041   1.291   0.958  3.2837 -0.5147  1.0920
 3342TIP3   OH231516   2.221   6.709   4.070 -0.4458 -0.0441 -0.0060
 3342TIP3    H131517   2.217   6.679   3.979 -1.9457  0.9203 -0.2696
 3342TIP3    H231518   2.137   6.752   4.085 -0.0479  0.1599  1.7183
 3343TIP3   OH231519   5.029   2.271   2.587 -0.3899 -0.2096  0.0535
 3343TIP3    H131520   5.041   2.225   2.670  0.0042 -1.0831 -0.4740
 3343TIP3    H231521   5.104   2.245   2.534 -1.0825 -0.3543 -0.8771
 3344TIP3   OH231522   5.087   4.993  12.692  0.4552  0.4590 -0.6119
 3344TIP3    H131523   5.088   5.088  12.692  1.5091  0.4542  0.2572
 3344TIP3    H231524   5.052   4.970  12.605  0.5399  1.6194 -0.9662
 3345TIP3   OH231525   3.138   0.540  13.593  0.4267  0.4764 -0.4894
 3345TIP3    H131526   3.053   0.503  13.573  0.8865 -0.2790 -1.0434
 3345TIP3    H231527   3.130   0.633  13.571 -0.3428  0.4667 -0.2493
 3346TIP3   OH231528   5.530   4.711  10.808 -0.3431 -0.3745  0.0167
 3346TIP3    H131529   5.464   4.656  10.850 -0.1759 -0.4919  0.1257
 3346TIP3    H231530   5.527   4.685  10.716 -0.2531 -0.5769  0.0695
 3347TIP3   OH231531   3.043   1.300  15.658 -0.0643  0.5353  0.2250
 3347TIP3    H131532   3.041   1.264  15.569 -0.2080 -2.3191  1.3191
 3347TIP3    H231533   2.951   1.301  15.685  0.0949  0.1168  0.8005
 3348TIP3   OH231534   1.854   2.086  12.858 -0.0240  0.1080 -0.4456
 3348TIP3    H131535   1.947   2.088  12.834  0.0604  3.1131 -0.1283
 3348TIP3    H231536   1.854   2.096  12.953 -0.6257 -2.2286 -0.1879
 3349TIP3   OH231537   0.645   4.742  14.953  0.5312 -0.3979  0.7396
 3349TIP3    H131538   0.735   4.736  14.985  0.2519 -2.7263  1.1499
 3349TIP3    H231539   0.605   4.658  14.977 -1.1656 -0.1808 -1.2043
 3350TIP3   OH231540   1.185   5.982   0.143  0.3488 -0.4307 -0.1694
 3350TIP3    H131541   1.095   6.016   0.143  0.6010  0.2675 -1.9674
 3350TIP3    H231542   1.215   5.994   0.233 -0.8009  0.8350  0.0608
 3351TIP3   OH231543   1.258   2.653   0.509  0.5058  0.0580 -0.5941
 3351TIP3    H131544   1.190   2.716   0.531  0.7330 -0.2597  1.0672
 3351TIP3    H231545   1.289   2.681   0.422 -1.3950  0.4678 -1.1665
 3352TIP3   OH231546   0.683   2.869   5.829 -0.1010  0.7879 -0.0967
 3352TIP3    H131547   0.699   2.888   5.921  1.3608  0.9565 -0.3814
 3352TIP3    H231548   0.588   2.876   5.819 -0.3786 -0.4119  1.6475
 3353TIP3   OH231549   5.067   4.785   2.689 -0.0013  0.2635 -0.2450
 3353TIP3    H131550   5.093   4.694   2.670  0.3389  0.4928 -0.8670
 3353TIP3    H231551   5.045   4.783   2.782 -0.7041 -0.6291 -0.4154
 3354TIP3   OH231552   2.314   2.143   3.838  0.0985 -0.0160  0.2118
 3354TIP3    H131553   2.379   2.086   3.796 -0.5583 -1.0950  0.6480
 3354TIP3    H231554   2.295   2.100   3.921 -1.0488  0.3938  0.1620
 3355TIP3   OH231555   0.166   5.795  15.095 -0.3006 -0.1530  0.1888
 3355TIP3    H131556   0.128   5.748  15.022 -2.3212 -0.5251  1.4353
 3355TIP3    H231557   0.114   5.876  15.101  1.0107  0.7057  0.0981
 3356TIP3   OH231558   4.994   1.091  14.880 -0.4213 -0.2975 -0.0783
 3356TIP3    H131559   5.080   1.117  14.915 -1.0416  2.4029 -0.4553
 3356TIP3    H231560   4.999   0.996  14.874  1.7888 -0.3722  1.9219
 3357TIP3   OH231561   3.852   2.802  13.221 -0.4934  0.3843  0.1898
 3357TIP3    H131562   3.901   2.874  13.261  1.3844 -0.2864 -0.8601
 3357TIP3    H231563   3.899   2.723  13.248  0.1279 -0.1534 -2.3485
 3358TIP3   OH231564   4.531   5.616  16.645  0.3835 -0.5809  0.0370
 3358TIP3    H131565   4.579   5.539  16.614  1.7544  1.3301 -2.7474
 3358TIP3    H231566   4.549   5.684  16.580 -0.5503  2.2134  2.5657
 3359TIP3   OH231567   6.703   5.714  14.668 -0.2621  0.1437  0.0266
 3359TIP3    H131568   6.697   5.638  14.610  1.2269 -0.8202  1.1231
 3359TIP3    H231569   6.766   5.772  14.625  0.2234 -0.1997  0.2819
 3360TIP3   OH231570   5.578   0.291   5.940 -0.1894  0.5937 -0.7229
 3360TIP3    H131571   5.574   0.369   5.994 -1.3008 -0.6452  1.0412
 3360TIP3    H231572   5.488   0.259   5.936 -0.5794  1.9695 -5.3586
 3361TIP3   OH231573   3.605   1.973  12.031  0.4638  0.0919 -0.3916
 3361TIP3    H131574   3.587   2.062  12.062 -0.4585 -0.3013  0.2207
 3361TIP3    H231575   3.675   1.942  12.088 -1.4961 -0.7746  1.6128
 3362TIP3   OH231576   1.359   3.704   0.193  0.1750 -0.2977 -0.1721
 3362TIP3    H131577   1.338   3.786   0.148  0.0982 -0.3753 -0.2788
 3362TIP3    H231578   1.342   3.636   0.128 -0.4170 -0.4426  0.1276
 3363TIP3   OH231579   5.146   3.793  17.255  0.1833 -0.1308 -0.2125
 3363TIP3    H131580   5.200   3.839  17.191 -0.8102  1.0860 -0.1969
 3363TIP3    H231581   5.061   3.783  17.212  0.1594 -1.2808  0.0850
 3364TIP3   OH231582   6.252   2.119  15.938  0.2743  0.2624 -0.2188
 3364TIP3    H131583   6.173   2.147  15.984 -0.6903 -1.2912 -0.8936
 3364TIP3    H231584   6.263   2.183  15.868 -0.6821  0.1769 -0.4445
 3365TIP3   OH231585   2.916   5.177   3.290 -0.1996 -0.0826 -0.1253
 3365TIP3    H131586   2.849   5.238   3.259  2.0251  2.3534 -0.3402
 3365TIP3    H231587   2.916   5.106   3.226 -0.7237  1.2448 -1.6335
 3366TIP3   OH231588   5.206   1.109  14.423 -0.2493 -0.4025  0.2084
 3366TIP3    H131589   5.219   1.098  14.328  0.9059  1.7853  0.0671
 3366TIP3    H231590   5.198   1.020  14.457 -0.7464 -1.2231 -1.9519
 3367TIP3   OH231591   2.547   3.953   0.038 -0.2927  0.2689  0.4391
 3367TIP3    H131592   2.518   4.000   0.116  0.3494 -0.7510  1.2962
 3367TIP3    H231593   2.615   3.894   0.069 -0.7995 -0.9324 -0.7004
 3368TIP3   OH231594   5.227   2.501   6.157  0.2288  0.1215 -0.3239
 3368TIP3    H131595   5.274   2.434   6.206 -1.0484 -1.1827 -0.8456
 3368TIP3    H231596   5.278   2.581   6.169  2.1443 -1.0998 -0.2680
 3369TIP3   OH231597   4.767   2.350  13.017 -0.0192 -0.5017  0.0058
 3369TIP3    H131598   4.858   2.356  12.988 -0.3959 -0.7388 -1.2601
 3369TIP3    H231599   4.748   2.437  13.054  0.4185 -0.1150 -0.6589
 3370TIP3   OH231600   5.869   3.191  11.998 -0.2887  0.1936  0.6886
 3370TIP3    H131601   5.921   3.111  11.988 -0.5780 -0.0775  1.3194
 3370TIP3    H231602   5.779   3.163  11.978 -0.1449  0.7435 -0.7774
 3371TIP3   OH231603   1.735   1.502  14.104 -0.3461  0.2358 -0.7606
 3371TIP3    H131604   1.732   1.465  14.015 -0.8805 -1.7010  0.0296
 3371TIP3    H231605   1.824   1.484  14.135 -0.5624 -0.2849 -0.4288
 3372TIP3   OH231606   0.297   0.379  12.722 -0.2975  0.2311 -0.4339
 3372TIP3    H131607   0.224   0.421  12.769  0.9163  2.0914 -0.1774
 3372TIP3    H231608   0.275   0.390  12.630 -0.1085  1.2463 -0.3658
 3373TIP3   OH231609   5.852   2.102   1.028  0.4254  0.1947 -0.2668
 3373TIP3    H131610   5.769   2.142   1.003  0.2573  1.3187  1.9191
 3373TIP3    H231611   5.831   2.009   1.043 -0.2011  0.2520 -0.8140
 3374TIP3   OH231612   5.138   4.203  13.213  0.6950  0.6313  0.2169
 3374TIP3    H131613   5.219   4.201  13.264  1.9630 -0.9187 -1.7948
 3374TIP3    H231614   5.145   4.282  13.159 -0.5425  2.1457  2.2115
 3375TIP3   OH231615   6.491   2.417  15.925  0.0686  0.0612 -0.6928
 3375TIP3    H131616   6.484   2.324  15.948 -0.0981 -0.0513 -1.1947
 3375TIP3    H231617   6.564   2.421  15.864 -0.1921  0.1956 -1.0009
 3376TIP3   OH231618   2.300   6.686  12.910  0.5710  0.4608  0.2296
 3376TIP3    H131619   2.301   6.764  12.965  3.0106 -0.6123  1.7496
 3376TIP3    H231620   2.371   6.700  12.847 -1.8432  1.4346 -2.4079
 3377TIP3   OH231621   2.487   3.029  13.906 -0.7622  1.1999 -0.6065
 3377TIP3    H131622   2.468   2.978  13.984  2.5244  0.5256 -0.1798
 3377TIP3    H231623   2.507   3.117  13.939 -0.9630  1.3347 -0.8398
 3378TIP3   OH231624   6.520   3.797   2.432  0.0407 -0.2580 -0.0153
 3378TIP3    H131625   6.511   3.759   2.345 -0.7555 -0.3018  0.0792
 3378TIP3    H231626   6.489   3.729   2.492 -3.1919  1.1431  0.0328
 3379TIP3   OH231627   2.823   5.247  11.513  0.1022 -0.7910 -0.1431
 3379TIP3    H131628   2.762   5.320  11.525  1.0318  0.1540 -1.0750
 3379TIP3    H231629   2.767   5.172  11.490 -0.5961  0.4421 -2.6377
 3380TIP3   OH231630   0.154   0.448   5.562  0.6458 -0.3645  0.3717
 3380TIP3    H131631   0.131   0.362   5.596 -1.1997 -0.5106 -1.1639
 3380TIP3    H231632   0.143   0.507   5.636  1.6218 -1.3931  1.3480
 3381TIP3   OH231633   1.105   3.098   1.675  0.5118  0.2158  0.9820
 3381TIP3    H131634   1.043   3.078   1.605  1.8830 -0.7064  0.0283
 3381TIP3    H231635   1.078   3.041   1.747 -0.7686  1.0171  1.1588
 3382TIP3   OH231636   2.941   0.650   1.520  0.4250 -0.5651 -0.0584
 3382TIP3    H131637   2.931   0.706   1.597  0.8272 -1.3379  0.5650
 3382TIP3    H231638   2.863   0.667   1.467 -0.3358 -0.7613  0.9913
 3383TIP3   OH231639   0.939   4.290  12.338 -0.4503  0.0814 -0.3944
 3383TIP3    H131640   0.898   4.222  12.391 -0.2533  0.1491 -0.1561
 3383TIP3    H231641   1.006   4.243  12.288  1.3696  0.4905  1.5744
 3384TIP3   OH231642   5.661   3.213  16.718  0.1383 -0.2507 -0.1776
 3384TIP3    H131643   5.642   3.213  16.624 -0.8730  2.5975 -0.0300
 3384TIP3    H231644   5.675   3.121  16.740 -2.1216 -1.2343 -2.6143
 3385TIP3   OH231645   1.550   6.124   2.439 -0.3478  0.0119 -1.0455
 3385TIP3    H131646   1.471   6.086   2.399 -0.6833 -0.1221 -0.2535
 3385TIP3    H231647   1.582   6.056   2.498 -0.9564  0.9562  0.3843
 3386TIP3   OH231648   6.492   4.011   3.885 -0.7634  0.0193  0.3014
 3386TIP3    H131649   6.478   3.927   3.928  1.8109 -0.3532  0.4569
 3386TIP3    H231650   6.534   4.065   3.952 -0.4468  0.7314 -0.4670
 3387TIP3   OH231651   3.491   2.779  11.008 -0.3297  0.4445 -0.3357
 3387TIP3    H131652   3.486   2.841  10.936 -0.4204  0.1036 -0.6269
 3387TIP3    H231653   3.496   2.833  11.087  2.0616  0.8431 -0.7353
 3388TIP3   OH231654   4.225   4.108  11.300  0.5650  0.1485 -0.6821
 3388TIP3    H131655   4.144   4.131  11.346  0.5581 -0.0069 -0.6159
 3388TIP3    H231656   4.292   4.104  11.368  0.7350  0.7764 -0.8017
 3389TIP3   OH231657   6.356   1.972   1.904 -0.0439 -0.0342  0.3796
 3389TIP3    H131658   6.436   2.019   1.928 -0.1108 -0.1248  0.7702
 3389TIP3    H231659   6.292   2.041   1.884  0.2330  0.0408 -0.2745
 3390TIP3   OH231660   1.640   0.252   4.085  0.1504 -0.4097 -0.6103
 3390TIP3    H131661   1.633   0.279   3.993  0.1841  0.5971 -0.3223
 3390TIP3    H231662   1.549   0.245   4.115  0.1464 -0.2159 -0.5749
 3391TIP3   OH231663   0.354   1.827  12.537  0.1850  0.1333  0.7377
 3391TIP3    H131664   0.267   1.866  12.533 -0.1264 -0.5483  0.7272
 3391TIP3    H231665   0.405   1.875  12.472 -0.3764  0.0762  0.2446
 3392TIP3   OH231666   2.019   1.062   0.084  0.1129  0.2642 -0.3961
 3392TIP3    H131667   2.103   1.047   0.126  0.8454  1.7626 -1.3003
 3392TIP3    H231668   2.026   1.017  -0.001 -1.1366 -2.2221  0.7484
 3393TIP3   OH231669   6.552   5.832   3.040  0.3869  0.2099 -0.2598
 3393TIP3    H131670   6.577   5.815   3.131  1.2178 -2.2860 -0.9272
 3393TIP3    H231671   6.506   5.916   3.043 -0.7356 -0.4585  2.6561
 3394TIP3   OH231672   3.338   0.058  13.027 -0.2658  0.2401  0.1105
 3394TIP3    H131673   3.322   0.080  12.935  0.0123 -1.8182 -0.4738
 3394TIP3    H231674   3.397  -0.018  13.023  0.3468  0.5830  2.0108
 3395TIP3   OH231675   6.658   0.340   2.252  0.3028 -0.2998 -0.0892
 3395TIP3    H131676   6.696   0.424   2.278 -1.1922  0.5602 -0.5561
 3395TIP3    H231677   6.707   0.315   2.173  0.1238  0.6345 -0.5110
 3396TIP3   OH231678   2.826   4.504  16.444  0.3275  0.1810 -0.2130
 3396TIP3    H131679   2.792   4.584  16.402 -0.1635 -0.3008 -0.7472
 3396TIP3    H231680   2.879   4.536  16.516 -0.8712  0.9809  0.3448
 3397TIP3   OH231681   5.090   1.539   1.810 -0.3647  0.0821 -0.0631
 3397TIP3    H131682   5.104   1.593   1.888 -1.1626 -0.3583  0.3962
 3397TIP3    H231683   5.013   1.487   1.831 -0.5289 -0.1078 -1.1209
 3398TIP3   OH231684   5.499   2.588   3.662 -0.5605  0.4078  0.1024
 3398TIP3    H131685   5.454   2.526   3.603 -1.4253  2.3201 -1.2930
 3398TIP3    H231686   5.429   2.625   3.715 -0.3380  1.6853 -0.4805
 3399TIP3   OH231687   1.512   3.923   5.550  0.1580  0.6894  0.2611
 3399TIP3    H131688   1.504   3.829   5.569 -1.4678  0.9768  1.1593
 3399TIP3    H231689   1.566   3.958   5.622 -1.7576  0.9179  1.6458
 3400TIP3   OH231690   1.982   3.661   1.647 -0.3493 -0.5510  0.4204
 3400TIP3    H131691   2.004   3.660   1.740  2.4842  0.2116 -0.1946
 3400TIP3    H231692   1.913   3.595   1.638 -0.3977 -0.9070  2.9837
 3401TIP3   OH231693   0.694   4.424   1.031  0.4262 -0.1330 -0.1502
 3401TIP3    H131694   0.755   4.350   1.034  0.3471 -0.3086 -2.2954
 3401TIP3    H231695   0.744   4.496   0.993  0.3490  0.7946  1.4528
 3402TIP3   OH231696   6.294   3.478  12.680  0.4369 -0.0421  0.0478
 3402TIP3    H131697   6.306   3.502  12.772  1.6574 -1.0331  0.1583
 3402TIP3    H231698   6.253   3.555  12.640  1.4257  1.0170  1.0599
 3403TIP3   OH231699   5.781   4.744  15.409 -0.1219 -0.0180 -0.2280
 3403TIP3    H131700   5.868   4.738  15.448 -0.4138  0.5590  0.5362
 3403TIP3    H231701   5.795   4.730  15.316  0.4305 -2.6605  0.2187
 3404TIP3   OH231702   5.258   4.538  17.037 -0.1276  0.0179 -0.2162
 3404TIP3    H131703   5.227   4.627  17.055 -0.4042  0.1176 -1.1777
 3404TIP3    H231704   5.256   4.495  17.122 -4.2367 -0.3897 -0.4193
 3405TIP3   OH231705   2.601   1.177   3.636 -0.1389 -0.1383  0.2732
 3405TIP3    H131706   2.671   1.179   3.571 -0.7878 -0.6193 -0.4514
 3405TIP3    H231707   2.525   1.215   3.591  0.1200  2.0370  1.6264
 3406TIP3   OH231708   5.031   2.243   5.245  0.0830  0.1195 -0.6292
 3406TIP3    H131709   4.980   2.317   5.278  1.3416  0.4527  0.6416
 3406TIP3    H231710   4.985   2.215   5.166 -1.4344  1.0889 -0.1059
 3407TIP3   OH231711   2.151   2.583  13.018 -0.1194  0.0052  0.1315
 3407TIP3    H131712   2.064   2.586  13.059  0.4849  0.1093  1.4130
 3407TIP3    H231713   2.138   2.623  12.932 -1.2200  0.5236  0.5313
 3408TIP3   OH231714   5.671   2.869  11.414 -0.1142  0.0889 -0.4228
 3408TIP3    H131715   5.760   2.839  11.433  0.0168  0.8797  0.2797
 3408TIP3    H231716   5.683   2.949  11.363 -0.4066  0.4832  0.1160
 3409TIP3   OH231717   2.702   3.550  15.338 -0.0522 -0.1725 -0.6338
 3409TIP3    H131718   2.717   3.462  15.303  1.3628  0.7343 -2.3316
 3409TIP3    H231719   2.673   3.601  15.262  1.6831  1.4710 -0.2016
 3410TIP3   OH231720   0.553   5.519   0.930  0.3754 -0.1179  0.0053
 3410TIP3    H131721   0.602   5.565   0.997  0.2558 -0.4361  0.3109
 3410TIP3    H231722   0.537   5.432   0.967 -0.2429 -0.0811 -0.1719
 3411TIP3   OH231723   4.205   1.739   6.594 -0.2691 -0.1529  0.1543
 3411TIP3    H131724   4.202   1.768   6.503  0.1872 -1.8547 -0.4188
 3411TIP3    H231725   4.284   1.778   6.630 -1.3271  1.9042  0.3232
 3412TIP3   OH231726   3.801   2.307   3.264 -0.2146  0.2703 -0.8241
 3412TIP3    H131727   3.758   2.353   3.192  0.9891  1.0089 -1.0918
 3412TIP3    H231728   3.785   2.215   3.246 -2.1853  0.5532 -0.5859
 3413TIP3   OH231729   4.515   4.089   1.884 -0.4173  0.0787  0.5196
 3413TIP3    H131730   4.530   4.117   1.974 -0.6110 -0.2928  0.6629
 3413TIP3    H231731   4.434   4.039   1.886 -1.5989  1.8936 -0.2330
 3414TIP3   OH231732   4.353   3.117  15.202  0.1251  0.6129  0.4362
 3414TIP3    H131733   4.299   3.123  15.123  0.3337 -0.4221  0.2105
 3414TIP3    H231734   4.439   3.148  15.174  0.6684 -1.4515 -0.2068
 3415TIP3   OH231735   4.110   2.017   3.105 -0.1147 -0.6596 -0.5874
 3415TIP3    H131736   4.086   2.020   3.198 -0.4408  0.2396 -0.6877
 3415TIP3    H231737   4.193   2.065   3.100 -0.7981  0.5342 -0.9466
 3416TIP3   OH231738   0.330   5.846   1.053  0.1713 -0.3187  0.1752
 3416TIP3    H131739   0.417   5.815   1.082  1.3766  2.6136 -0.1363
 3416TIP3    H231740   0.321   5.810   0.965  1.2983 -0.2202  0.0052
 3417TIP3   OH231741   0.223   5.398   2.669  0.5579  0.2015 -0.4822
 3417TIP3    H131742   0.150   5.430   2.616 -1.4515  0.1450  2.1495
 3417TIP3    H231743   0.237   5.467   2.735  1.6047 -0.6807  0.2361
 3418TIP3   OH231744   2.233   3.379   5.587 -0.6205 -0.5499  0.0171
 3418TIP3    H131745   2.291   3.349   5.656 -0.2952 -3.8646 -1.6084
 3418TIP3    H231746   2.145   3.370   5.624 -0.3079  0.8796  1.1401
 3419TIP3   OH231747   4.953   0.642  11.120 -0.0315 -0.0564  0.3994
 3419TIP3    H131748   4.968   0.586  11.196 -0.9514 -3.1440 -1.5866
 3419TIP3    H231749   5.038   0.646  11.076  0.2075  0.7374  0.9210
 3420TIP3   OH231750   3.119   2.342   1.618  0.4417  0.3300  0.1103
 3420TIP3    H131751   3.096   2.286   1.692  0.6039  1.2414  0.8648
 3420TIP3    H231752   3.055   2.413   1.620  0.6162  0.5112 -0.4615
 3421TIP3   OH231753   4.578   5.087   6.293 -0.1030 -0.1952  0.1300
 3421TIP3    H131754   4.506   5.136   6.333  0.2979  0.7837 -0.3277
 3421TIP3    H231755   4.651   5.098   6.353 -0.3233 -1.1761  0.5866
 3422TIP3   OH231756   4.379   3.716   4.294 -0.1009 -0.0209  0.5346
 3422TIP3    H131757   4.351   3.770   4.368 -0.1069  0.3762  0.2498
 3422TIP3    H231758   4.443   3.655   4.331  1.1478  1.2632  0.5779
 3423TIP3   OH231759   1.167   2.860   5.852  0.1964  0.3464 -0.2773
 3423TIP3    H131760   1.117   2.867   5.934 -0.3744  0.0062 -0.5967
 3423TIP3    H231761   1.259   2.856   5.881 -0.0342 -0.3490  0.3877
 3424TIP3   OH231762   0.941   0.302   4.066 -0.7520  0.3113 -0.8081
 3424TIP3    H131763   1.008   0.321   4.000  0.8371 -2.6506 -0.1192
 3424TIP3    H231764   0.873   0.254   4.018  0.4015 -1.8386 -0.3286
 3425TIP3   OH231765   0.016   2.487  14.600 -0.0649 -0.2690 -0.3582
 3425TIP3    H131766   0.073   2.521  14.531  0.2135 -0.0205 -0.0008
 3425TIP3    H231767   0.070   2.486  14.678 -0.5706  0.0283 -0.0055
 3426TIP3   OH231768   5.960   2.814  13.997 -0.4306  0.5458 -0.0284
 3426TIP3    H131769   5.936   2.903  13.972 -0.8621  0.4916  0.1915
 3426TIP3    H231770   6.021   2.825  14.069  0.3358  0.6880 -0.6953
 3427TIP3   OH231771   4.842   4.736   3.244 -0.4903  0.5535  0.2347
 3427TIP3    H131772   4.809   4.712   3.157 -0.2039  0.5471  0.1291
 3427TIP3    H231773   4.871   4.826   3.235 -0.0348  0.4032  0.2049
 3428TIP3   OH231774   2.076   3.713   5.604  0.1583 -0.1002 -0.0236
 3428TIP3    H131775   2.041   3.636   5.650 -1.1081  0.8192  0.5811
 3428TIP3    H231776   2.022   3.722   5.526 -2.9975  3.0675  2.3957
 3429TIP3   OH231777   6.146   3.742   5.476 -0.7722  0.0961 -0.5222
 3429TIP3    H131778   6.131   3.655   5.438 -1.0241  0.1480 -0.5401
 3429TIP3    H231779   6.157   3.799   5.400  1.7468 -0.3228 -0.5281
 3430TIP3   OH231780   3.213   3.729  11.539  0.0798 -0.5638  0.2843
 3430TIP3    H131781   3.124   3.730  11.504 -0.8051 -1.4061  2.4083
 3430TIP3    H231782   3.253   3.649  11.504 -0.7089 -1.2663  0.9671
 3431TIP3   OH231783   2.176   4.786   2.587 -0.0889  0.0810  0.1764
 3431TIP3    H131784   2.222   4.860   2.547 -0.0194  0.9366  1.7988
 3431TIP3    H231785   2.231   4.710   2.566  2.1290  1.0926  2.0740
 3432TIP3   OH231786   0.570   6.196   3.661 -0.1976 -0.6432  0.3058
 3432TIP3    H131787   0.542   6.108   3.637  0.0606 -1.1613  1.8896
 3432TIP3    H231788   0.664   6.197   3.648 -0.3124 -0.3341 -0.5273
 3433TIP3   OH231789   2.583   0.406   6.454  0.3280  0.2167 -0.0703
 3433TIP3    H131790   2.598   0.485   6.403 -0.0917 -0.7235 -1.6917
 3433TIP3    H231791   2.666   0.389   6.498  1.2750  0.0568 -1.8774
 3434TIP3   OH231792   5.296   4.840  16.379  0.2293  0.2631 -0.0606
 3434TIP3    H131793   5.212   4.802  16.404 -0.0848  0.1564 -1.2634
 3434TIP3    H231794   5.290   4.932  16.405  0.0680  0.0557  0.6346
 3435TIP3   OH231795   2.980   4.240   5.942  0.0877 -0.4297  0.6076
 3435TIP3    H131796   3.014   4.150   5.939  1.5358  0.1338 -1.1038
 3435TIP3    H231797   3.057   4.293   5.961 -0.7339  0.4666  1.4140
 3436TIP3   OH231798   3.505   3.560  15.885 -0.1687  0.3520  0.0818
 3436TIP3    H131799   3.509   3.549  15.980 -2.5566  1.3756  0.3290
 3436TIP3    H231800   3.437   3.499  15.857  0.6461 -0.0737 -1.0223
 3437TIP3   OH231801   4.277   2.322  13.451  0.3349 -0.4608  0.2633
 3437TIP3    H131802   4.215   2.389  13.421 -0.4973 -1.0207  0.6961
 3437TIP3    H231803   4.342   2.317  13.382 -0.1848  0.0392 -0.2702
 3438TIP3   OH231804   6.232   3.276   4.434 -0.0813  0.5780  0.3872
 3438TIP3    H131805   6.210   3.323   4.514  2.2668  1.4924  0.5292
 3438TIP3    H231806   6.254   3.188   4.463 -0.4404  0.5592  0.6009
 3439TIP3   OH231807   6.404   5.221   2.097 -0.4527  0.2976  0.3501
 3439TIP3    H131808   6.367   5.134   2.088 -0.1425  0.0430  1.4302
 3439TIP3    H231809   6.333   5.275   2.132 -0.4090  0.2870  0.4563
 3440TIP3   OH231810   0.088   5.265  13.236 -0.2746  0.4533  0.0018
 3440TIP3    H131811   0.141   5.189  13.264 -3.1304 -1.2586  0.9342
 3440TIP3    H231812   0.123   5.288  13.150 -0.6441 -3.2247 -1.2072
 3441TIP3   OH231813   2.383   6.053   3.697  0.1703 -0.5690 -0.3670
 3441TIP3    H131814   2.430   6.135   3.717  0.5292 -0.7430 -0.4946
 3441TIP3    H231815   2.354   6.064   3.607  1.2107 -1.0472 -0.7788
 3442TIP3   OH231816   6.373   0.474   1.721  0.1091  0.4144 -0.1767
 3442TIP3    H131817   6.333   0.482   1.635 -1.7446  1.1614  0.7314
 3442TIP3    H231818   6.329   0.540   1.774  0.8953 -0.3550  1.4582
 3443TIP3   OH231819   6.119   6.454  16.476  0.1684  0.0556 -0.0784
 3443TIP3    H131820   6.153   6.372  16.512  0.8822  0.2399 -0.3198
 3443TIP3    H231821   6.146   6.521  16.539 -2.1023 -0.1232  1.1238
 3444TIP3   OH231822   5.584   2.200  14.175 -0.2213  0.7805  0.1565
 3444TIP3    H131823   5.668   2.218  14.132 -0.1349 -0.9870 -0.4498
 3444TIP3    H231824   5.519   2.216  14.107 -0.3456  1.5174  0.4391
 3445TIP3   OH231825   5.667   1.871  17.169 -0.0257  0.1681  0.7840
 3445TIP3    H131826   5.704   1.900  17.085 -1.4384  0.5190  0.2608
 3445TIP3    H231827   5.726   1.908  17.234 -0.2451  1.9655  0.0163
 3446TIP3   OH231828   1.168   2.892  15.299 -0.3616  0.3230  0.4038
 3446TIP3    H131829   1.235   2.884  15.231  0.1187 -1.9875  1.1070
 3446TIP3    H231830   1.202   2.960  15.358  1.4197 -0.8506  0.7760
 3447TIP3   OH231831   0.285   6.516  15.977  0.2671  0.1261  0.5912
 3447TIP3    H131832   0.291   6.575  15.902 -0.9915 -1.0919 -0.4897
 3447TIP3    H231833   0.195   6.523  16.007 -0.0416 -1.6570  0.1042
 3448TIP3   OH231834   3.778   6.566  13.527 -0.4127 -0.2026 -0.0431
 3448TIP3    H131835   3.740   6.627  13.463  1.9950  0.1509 -1.2010
 3448TIP3    H231836   3.726   6.487  13.518 -1.9346  0.8056 -0.3924
 3449TIP3   OH231837   3.789   4.887   4.582 -0.1326  0.3385  0.0960
 3449TIP3    H131838   3.818   4.978   4.582 -0.5954  0.4911 -0.4166
 3449TIP3    H231839   3.843   4.844   4.648  0.1461  0.9660  0.2787
 3450TIP3   OH231840   0.930   5.493   4.048 -0.5912 -0.2602 -1.0602
 3450TIP3    H131841   0.912   5.428   4.116 -0.6417 -1.3064 -2.0560
 3450TIP3    H231842   1.024   5.488   4.034 -0.2945  1.2875  0.2382
 3451TIP3   OH231843   1.327   4.962  12.792 -0.3798  0.1504  0.5958
 3451TIP3    H131844   1.374   4.984  12.712 -0.4983 -0.7950  0.2630
 3451TIP3    H231845   1.351   4.871  12.810 -0.5892  0.2627  1.4709
 3452TIP3   OH231846   0.168   0.003   2.036  0.1231 -0.2994 -0.0305
 3452TIP3    H131847   0.200  -0.065   2.094 -0.3922  1.2623  2.1648
 3452TIP3    H231848   0.089  -0.034   1.996 -0.0222 -1.0643  0.9669
 3453TIP3   OH231849   4.705   4.072   5.637  0.4953  0.2339  0.5857
 3453TIP3    H131850   4.721   4.138   5.705 -1.6990  0.9294  0.4868
 3453TIP3    H231851   4.790   4.030   5.623  1.1406  0.5507  3.2548
 3454TIP3   OH231852   6.655   4.666  16.966  0.9184 -0.4485 -0.2096
 3454TIP3    H131853   6.630   4.661  16.874 -2.3756  0.2342  0.5846
 3454TIP3    H231854   6.681   4.757  16.979 -2.3364  0.4766  0.3472
 3455TIP3   OH231855   0.754   4.977  12.163 -0.8550  0.5853  0.2250
 3455TIP3    H131856   0.798   5.049  12.209 -1.7258  1.5818 -0.4816
 3455TIP3    H231857   0.664   5.007  12.152 -1.5192 -1.1039  0.9471
 3456TIP3   OH231858   6.700   5.736  13.148  0.3563 -0.1719  0.2306
 3456TIP3    H131859   6.656   5.746  13.232 -1.7887  0.7185 -0.9554
 3456TIP3    H231860   6.765   5.806  13.146 -2.2185  2.2496 -0.4404
 3457TIP3   OH231861   1.439   2.524  16.342 -0.3049 -0.0581 -0.1743
 3457TIP3    H131862   1.448   2.613  16.378 -0.4079 -0.1469  0.0746
 3457TIP3    H231863   1.347   2.503  16.354 -0.0093 -0.7338  1.0365
 3458TIP3   OH231864   6.362   4.938   2.625  0.4006 -0.0880 -0.2413
 3458TIP3    H131865   6.350   5.018   2.676  0.6153 -1.0088  1.2727
 3458TIP3    H231866   6.454   4.915   2.637 -0.3112 -2.1326  1.7370
 3459TIP3   OH231867   6.412   3.754  13.464  0.1683  0.1584 -0.8548
 3459TIP3    H131868   6.466   3.781  13.539  0.3572  0.5619 -1.1361
 3459TIP3    H231869   6.330   3.725  13.504  1.5737 -3.1152 -0.1972
 3460TIP3   OH231870   3.681   1.681  17.176  0.3515 -0.3184 -0.1034
 3460TIP3    H131871   3.723   1.751  17.226 -2.3906  0.9670  0.4948
 3460TIP3    H231872   3.719   1.688  17.088  0.5214  1.5598  0.0950
 3461TIP3   OH231873   1.761   2.665   0.383  0.5572  0.0894  0.6936
 3461TIP3    H131874   1.806   2.632   0.306 -0.3069  1.3297 -0.3540
 3461TIP3    H231875   1.831   2.693   0.442  1.2927 -2.9197  1.3274
 3462TIP3   OH231876   5.389   2.112   6.875  0.7665  0.4580 -0.5363
 3462TIP3    H131877   5.306   2.068   6.894  1.2666 -0.7937 -1.1718
 3462TIP3    H231878   5.372   2.205   6.892 -0.3632  0.0453  0.6544
 3463TIP3   OH231879   1.115   0.331   1.052 -0.0508  0.2205 -0.6218
 3463TIP3    H131880   1.134   0.382   0.973  2.5311 -1.0913 -0.9002
 3463TIP3    H231881   1.039   0.277   1.029 -0.0063  0.6664 -1.8254
 3464TIP3   OH231882   3.060   5.797   1.705  0.1092 -0.2548 -0.0290
 3464TIP3    H131883   2.977   5.845   1.705  0.0322 -0.3901  0.5540
 3464TIP3    H231884   3.122   5.858   1.666 -0.2881 -0.1948 -0.5817
 3465TIP3   OH231885   5.426   5.383  13.597  0.0742  0.2751 -0.2078
 3465TIP3    H131886   5.510   5.396  13.552  0.7746  1.9699  1.4809
 3465TIP3    H231887   5.450   5.380  13.690 -1.5455 -1.0545  0.1755
 3466TIP3   OH231888   1.128   3.769  12.936  0.5097 -0.4705  0.3000
 3466TIP3    H131889   1.193   3.712  12.977 -0.6733 -0.1265  2.6971
 3466TIP3    H231890   1.175   3.851  12.919  0.7442 -0.2695  1.8992
 3467TIP3   OH231891   6.443   3.891  11.788 -0.5075 -0.5449  0.1006
 3467TIP3    H131892   6.406   3.930  11.867 -1.6607 -0.3757 -0.5140
 3467TIP3    H231893   6.529   3.860  11.815 -0.4763  0.4239  1.1654
 3468TIP3   OH231894   4.634   5.430   2.718 -0.4839  0.0957 -0.0211
 3468TIP3    H131895   4.634   5.351   2.773  0.7889  0.5049  0.5744
 3468TIP3    H231896   4.701   5.413   2.652 -1.4416 -0.0491 -0.9826
 3469TIP3   OH231897   1.081   3.421   1.949 -0.5581 -0.3746 -0.2945
 3469TIP3    H131898   1.089   3.464   2.034  0.6096 -1.9840  0.4317
 3469TIP3    H231899   1.016   3.473   1.901  1.1690  2.4544  0.3805
 3470TIP3   OH231900   1.398   6.652  15.777 -0.7892  0.0350 -0.1660
 3470TIP3    H131901   1.341   6.713  15.824 -1.4699 -0.9376  0.2668
 3470TIP3    H231902   1.485   6.694  15.779 -1.0300  0.4759  1.0408
 3471TIP3   OH231903   3.992   2.373   2.922 -0.1798 -0.3075 -0.5643
 3471TIP3    H131904   4.051   2.437   2.882  1.5453 -1.9720 -0.7681
 3471TIP3    H231905   4.036   2.346   3.002 -0.9715 -1.1133 -0.3884
 3472TIP3   OH231906   5.575   0.282  12.357 -0.0124 -0.1659 -0.3655
 3472TIP3    H131907   5.529   0.197  12.361 -1.3630  0.4639 -2.0963
 3472TIP3    H231908   5.668   0.259  12.358 -0.3624 -1.6894 -1.0291
 3473TIP3   OH231909   2.755   0.410  16.672  0.5412 -0.3428  0.1240
 3473TIP3    H131910   2.833   0.462  16.688  0.3696  0.4734 -1.5410
 3473TIP3    H231911   2.769   0.372  16.585 -1.1796  0.3467 -0.4757
 3474TIP3   OH231912   4.843   5.269   4.116  0.5164 -0.2249  0.2619
 3474TIP3    H131913   4.750   5.274   4.094  1.0582 -1.6505 -2.4768
 3474TIP3    H231914   4.874   5.359   4.112 -0.2593 -0.0167 -1.0186
 3475TIP3   OH231915   5.793   2.926  13.101 -0.3576  0.4668 -0.1344
 3475TIP3    H131916   5.742   2.996  13.142  1.6028  1.8552 -0.0241
 3475TIP3    H231917   5.840   2.969  13.030  0.4702 -0.8451 -0.3936
 3476TIP3   OH231918   1.830   3.203  10.155 -0.0585  0.1962 -0.0284
 3476TIP3    H131919   1.922   3.174  10.161  1.1658  3.9318  0.1253
 3476TIP3    H231920   1.812   3.206  10.062 -0.0614 -0.6019 -0.0595
 3477TIP3   OH231921   1.134   1.430  17.240 -0.3520  0.3276 -0.5758
 3477TIP3    H131922   1.102   1.341  17.228  1.6105 -0.4862  0.1027
 3477TIP3    H231923   1.144   1.439  17.335 -0.7176  1.3357 -0.6303
 3478TIP3   OH231924   0.594   5.982   3.170  0.4653  0.3393  0.5172
 3478TIP3    H131925   0.539   5.913   3.132  1.9769 -0.3454 -0.4697
 3478TIP3    H231926   0.533   6.036   3.221 -0.8203 -1.4661  0.9526
 3479TIP3   OH231927   6.044   1.019  13.104  0.0499  0.0622  0.2759
 3479TIP3    H131928   5.996   0.972  13.037  1.8856 -0.9875 -0.3458
 3479TIP3    H231929   6.019   0.977  13.186  2.1453 -2.4551 -0.3344
 3480TIP3   OH231930   0.860   5.878   3.028  0.0558 -0.5601  0.7828
 3480TIP3    H131931   0.847   5.940   3.100  0.9803  0.9957 -0.3643
 3480TIP3    H231932   0.952   5.850   3.037 -0.1261 -1.1487  0.8155
 3481TIP3   OH231933   6.410   6.217  13.163 -0.2551  0.1032 -0.3517
 3481TIP3    H131934   6.452   6.270  13.230  0.6267  0.7584 -1.4034
 3481TIP3    H231935   6.317   6.220  13.184 -0.1652  1.7007 -0.1489
 3482TIP3   OH231936   5.034   1.950   1.103  0.1030 -0.2694 -0.8127
 3482TIP3    H131937   4.947   1.950   1.063 -0.0391  0.9879 -0.5250
 3482TIP3    H231938   5.081   1.879   1.059 -0.7612 -0.3430 -1.6247
 3483TIP3   OH231939   0.901   6.770  13.009 -0.1466  0.0390 -0.8367
 3483TIP3    H131940   0.842   6.696  13.027 -0.6105  0.2731 -1.3683
 3483TIP3    H231941   0.938   6.750  12.923 -0.6463  0.6594 -1.2049
 3484TIP3   OH231942   1.820   1.451   6.215 -0.1145 -0.1766  0.3872
 3484TIP3    H131943   1.882   1.418   6.281  0.0420  2.0738  1.4350
 3484TIP3    H231944   1.875   1.479   6.142 -0.1875 -1.4540 -0.1682
 3485TIP3   OH231945   3.292   0.129  15.313 -0.5206  0.0954  0.0627
 3485TIP3    H131946   3.347   0.206  15.297 -1.9040  0.9062 -0.8323
 3485TIP3    H231947   3.258   0.142  15.401  0.3114 -0.1618  0.4285
 3486TIP3   OH231948   2.419   4.532   1.874 -0.1882 -0.0642 -0.0206
 3486TIP3    H131949   2.371   4.614   1.875  0.9593  0.6070  0.5709
 3486TIP3    H231950   2.496   4.548   1.929 -0.4491 -1.8246  0.9116
 3487TIP3   OH231951   5.943   1.613   2.804 -0.1253  1.2964  0.2968
 3487TIP3    H131952   5.932   1.620   2.899 -1.5416 -1.5629  0.4083
 3487TIP3    H231953   6.005   1.541   2.792 -0.7107  0.9784 -0.9624
 3488TIP3   OH231954   6.556   5.494   3.192 -0.0710  0.2198 -0.1051
 3488TIP3    H131955   6.574   5.461   3.280 -1.2561  1.0844  0.4875
 3488TIP3    H231956   6.564   5.589   3.200 -1.0725  0.3650 -0.7023
 3489TIP3   OH231957   1.926   0.517   3.629 -0.2714 -1.1035  0.2461
 3489TIP3    H131958   1.919   0.548   3.719 -0.0787  0.8764 -0.3996
 3489TIP3    H231959   2.009   0.553   3.597 -1.5227  0.3238 -1.5120
 3490TIP3   OH231960   1.074   5.460   4.694 -0.2631 -0.0812  0.3276
 3490TIP3    H131961   1.103   5.408   4.770 -0.2865  0.4782  0.7216
 3490TIP3    H231962   1.155   5.496   4.657 -0.4093  1.2932  1.2927
 3491TIP3   OH231963   3.486   1.071   0.490  0.3158  0.1353  0.0172
 3491TIP3    H131964   3.461   1.014   0.418  0.3368  0.1353  0.0100
 3491TIP3    H231965   3.578   1.092   0.473  0.5914 -0.6238  0.5571
 3492TIP3   OH231966   4.590   4.731   4.031 -0.6220  0.0476 -0.0510
 3492TIP3    H131967   4.553   4.695   3.951  0.1556 -0.2481 -0.2755
 3492TIP3    H231968   4.577   4.663   4.097 -0.7107  0.0504 -0.0653
 3493TIP3   OH231969   5.273   0.834   4.899 -0.7089 -0.3351  0.0858
 3493TIP3    H131970   5.341   0.859   4.838 -0.7798 -0.7922 -0.1830
 3493TIP3    H231971   5.277   0.739   4.902 -1.6103 -0.3936 -0.2567
 3494TIP3   OH231972   6.683   1.266   0.985  0.2207 -0.0132 -0.2125
 3494TIP3    H131973   6.593   1.257   1.016  0.2533 -1.9462 -0.5762
 3494TIP3    H231974   6.719   1.338   1.035 -1.4361  0.5779  0.1680
 3495TIP3   OH231975   5.666   0.938   3.099 -0.1183  0.3153  0.5223
 3495TIP3    H131976   5.711   1.017   3.128 -0.4972  0.5077  0.5848
 3495TIP3    H231977   5.687   0.873   3.166 -0.1200  0.4648  0.6688
 3496TIP3   OH231978   1.741   4.169  16.438  0.4299  0.0130  0.0406
 3496TIP3    H131979   1.679   4.240  16.453  1.1553  0.0246  3.4056
 3496TIP3    H231980   1.687   4.093  16.420 -0.6545  0.0624  2.7602
 3497TIP3   OH231981   6.402   2.990   1.741  0.5591 -0.0492  0.0102
 3497TIP3    H131982   6.389   2.900   1.769  1.5117  0.2685  1.5214
 3497TIP3    H231983   6.317   3.018   1.707 -0.1391 -1.0185  0.9605
 3498TIP3   OH231984   0.829   6.247  16.562  0.2073  0.0882 -0.5367
 3498TIP3    H131985   0.763   6.239  16.493  0.9672 -0.1529 -1.2432
 3498TIP3    H231986   0.851   6.157  16.586  0.7448  0.1637 -0.7465
 3499TIP3   OH231987   2.270   0.739   2.354 -0.1911  0.2101  0.4984
 3499TIP3    H131988   2.321   0.668   2.394 -1.5188 -0.1300  1.6391
 3499TIP3    H231989   2.294   0.737   2.261  1.9695  0.1561  1.0193
 3500TIP3   OH231990   3.805   2.614  11.832 -0.0903 -0.3706  0.4426
 3500TIP3    H131991   3.772   2.632  11.920  1.2784  0.0275  0.8918
 3500TIP3    H231992   3.900   2.609  11.843  0.0120 -1.4112 -0.8256
 3501TIP3   OH231993   3.540   4.024  13.251 -0.1232  0.3183 -0.3397
 3501TIP3    H131994   3.476   4.039  13.182  0.4870  1.9594 -0.5861
 3501TIP3    H231995   3.509   4.079  13.324  1.5311  1.9506 -0.8263
 3502TIP3   OH231996   4.859   0.502  13.351 -0.4482  0.3098  0.0506
 3502TIP3    H131997   4.882   0.449  13.274  1.1863  1.5000 -0.3225
 3502TIP3    H231998   4.885   0.591  13.326  1.9114  0.4154  2.6683
 3503TIP3   OH231999   5.282   1.298   1.889 -0.2606 -0.3715 -0.3995
 3503TIP3    H132000   5.365   1.344   1.896 -0.6768  0.3363 -0.0688
 3503TIP3    H232001   5.225   1.358   1.842 -1.2121  0.0253  1.2091
 3504TIP3   OH232002   0.227   2.866   2.299 -0.3599 -0.0542 -0.1274
 3504TIP3    H132003   0.181   2.786   2.325  0.7849 -0.4191  0.7779
 3504TIP3    H232004   0.309   2.864   2.348 -0.9031  2.3577  0.9094
 3505TIP3   OH232005   6.457   5.791  12.654 -0.0084 -0.2241 -0.6772
 3505TIP3    H132006   6.547   5.772  12.682  0.3061 -1.1135 -2.2216
 3505TIP3    H232007   6.457   5.770  12.561 -1.9196 -0.5321 -0.6103
 3506TIP3   OH232008   1.057   1.063  13.285 -0.4808  0.0079  0.4548
 3506TIP3    H132009   1.064   0.979  13.331  3.4658 -0.2347 -0.3827
 3506TIP3    H232010   1.019   1.040  13.201  0.5875 -1.0034  0.2211
 3507TIP3   OH232011   5.372   0.074   0.479 -0.2371  0.5276  0.1273
 3507TIP3    H132012   5.362   0.115   0.393  2.3268  0.1006 -0.4459
 3507TIP3    H232013   5.361   0.145   0.542 -1.2088  1.0284 -0.6001
 3508TIP3   OH232014   2.543   3.372   4.739  0.1462 -0.1039 -0.3957
 3508TIP3    H132015   2.637   3.356   4.725 -0.1176 -1.2421 -0.8703
 3508TIP3    H232016   2.532   3.361   4.834  0.3882 -0.5238 -0.4133
 3509TIP3   OH232017   5.320   0.126   0.175  0.3421  0.0006 -0.6757
 3509TIP3    H132018   5.374   0.049   0.163  1.1542  0.9242 -3.3933
 3509TIP3    H232019   5.247   0.115   0.113 -1.1495  0.0159  1.0409
 3510TIP3   OH232020   3.116   3.571  17.196 -0.0691 -0.3785  0.0307
 3510TIP3    H132021   3.047   3.529  17.145 -1.0176  0.7282  0.4137
 3510TIP3    H232022   3.074   3.645  17.238  1.5517  0.8014 -0.4005
 3511TIP3   OH232023   2.932   4.018  13.116  0.0330 -0.2999 -0.0309
 3511TIP3    H132024   2.878   4.014  13.195  0.1313 -0.7908  0.0104
 3511TIP3    H232025   2.883   4.076  13.057  0.4044  0.7816  0.7175
 3512TIP3   OH232026   3.676   3.278  14.175  0.2289  0.3893  0.2528
 3512TIP3    H132027   3.616   3.283  14.100 -0.0370  0.5442  0.4773
 3512TIP3    H232028   3.630   3.323  14.246  1.1121  1.5649  0.0959
 3513TIP3   OH232029   5.868   5.133  15.153 -0.5552  0.2433 -0.4602
 3513TIP3    H132030   5.813   5.054  15.158 -0.0197 -0.0861  0.3991
 3513TIP3    H232031   5.852   5.179  15.235  1.3114 -0.4470  0.3266
 3514TIP3   OH232032   4.192   3.662   1.842  0.1220 -0.0837 -0.9208
 3514TIP3    H132033   4.277   3.674   1.799  0.8974 -0.9126  0.3637
 3514TIP3    H232034   4.181   3.568   1.848  0.5208  0.0032  1.6324
 3515TIP3   OH232035   3.837   0.947   3.303  0.6193 -0.4554  0.1685
 3515TIP3    H132036   3.831   1.040   3.322  1.7493 -0.9809  3.4669
 3515TIP3    H232037   3.917   0.938   3.251 -0.0856  0.5024 -1.1195
 3516TIP3   OH232038   0.106   2.564  13.532 -0.4502  0.5124 -0.0611
 3516TIP3    H132039   0.181   2.529  13.483  0.1325  1.2888  0.2561
 3516TIP3    H232040   0.127   2.545  13.624 -1.2622 -0.4168 -0.0586
 3517TIP3   OH232041   0.365   2.874  12.502 -0.7508 -0.3679  0.0997
 3517TIP3    H132042   0.282   2.914  12.474 -1.0893 -0.1244  1.4218
 3517TIP3    H232043   0.351   2.780  12.489 -0.6476 -0.2175 -1.1958
 3518TIP3   OH232044   1.941   6.733  12.984 -0.4855  0.6744 -0.5231
 3518TIP3    H132045   1.849   6.759  12.986 -0.6336  0.0746  0.9578
 3518TIP3    H232046   1.957   6.708  12.893 -1.3909  2.1462 -1.1157
 3519TIP3   OH232047   1.948   6.776   4.329  0.3626 -0.2843  0.1798
 3519TIP3    H132048   1.981   6.835   4.261 -4.7206  2.4841 -0.0931
 3519TIP3    H232049   1.933   6.833   4.405 -1.4283 -1.8453  1.0374
 3520TIP3   OH232050   1.616   6.737  14.408 -0.2727 -0.7498 -0.0464
 3520TIP3    H132051   1.526   6.712  14.430 -0.6397  0.7614  0.2132
 3520TIP3    H232052   1.622   6.829  14.433  1.2408 -0.7367 -0.4159
 3521TIP3   OH232053   6.183   0.383  12.728 -0.0043  0.0133  0.4833
 3521TIP3    H132054   6.123   0.351  12.796 -0.3306  0.2788  0.3213
 3521TIP3    H232055   6.270   0.365  12.763 -0.1374 -3.5193 -0.7386
 3522TIP3   OH232056   2.497   2.123  13.350 -0.0258  0.2710 -0.3635
 3522TIP3    H132057   2.439   2.050  13.374 -0.6253  0.8736  0.0446
 3522TIP3    H232058   2.469   2.148  13.262  0.5580 -0.3606 -0.7295
 3523TIP3   OH232059   2.624   5.891  11.785  0.6971 -0.2153 -0.2493
 3523TIP3    H132060   2.580   5.908  11.702  0.3473 -1.6351 -0.3621
 3523TIP3    H232061   2.655   5.977  11.814 -2.7967  0.9515  0.2231
 3524TIP3   OH232062   5.167   3.395  10.655  0.2124 -0.2030 -0.1027
 3524TIP3    H132063   5.190   3.365  10.567 -1.7581 -0.4586 -0.5571
 3524TIP3    H232064   5.073   3.412  10.651 -0.2150 -1.6739  2.3856
 3525TIP3   OH232065   3.801   3.538  13.505  0.3457 -0.2040 -0.1436
 3525TIP3    H132066   3.765   3.452  13.528 -0.7058  0.3591  0.3013
 3525TIP3    H232067   3.826   3.577  13.588  0.5738  0.0475 -0.3281
 3526TIP3   OH232068   3.367   4.556   4.748  1.1918 -1.4009  0.0010
 3526TIP3    H132069   3.306   4.547   4.821 -0.6929 -1.0184 -1.4904
 3526TIP3    H232070   3.420   4.633   4.771 -1.4046  0.5808 -0.4248
 3527TIP3   OH232071   2.519   4.405  11.425 -0.6615 -0.0656 -0.3432
 3527TIP3    H132072   2.566   4.334  11.470 -0.1038 -0.5112 -1.6193
 3527TIP3    H232073   2.587   4.468  11.401 -1.2196  1.1939  1.2620
 3528TIP3   OH232074   1.076   5.416  13.866  0.3318  0.2392  0.6444
 3528TIP3    H132075   0.999   5.360  13.877  1.0268 -0.7231  0.6675
 3528TIP3    H232076   1.143   5.378  13.922  1.1362  0.4872 -0.1222
 3529TIP3   OH232077   6.249   5.833   6.230 -0.2516 -0.0722 -0.0788
 3529TIP3    H132078   6.162   5.864   6.204  0.2673  1.8117  0.3762
 3529TIP3    H232079   6.232   5.770   6.300 -1.2168  0.6451  0.3393
 3530TIP3   OH232080   6.634   0.432   1.867 -0.0682  0.2030 -0.1840
 3530TIP3    H132081   6.647   0.521   1.835  0.7621 -0.0110 -0.4567
 3530TIP3    H232082   6.551   0.404   1.829 -0.6542  1.1033  0.4452
 3531TIP3   OH232083   5.012   3.118  16.961 -0.1644  0.0451  0.2682
 3531TIP3    H132084   4.999   3.038  16.911 -0.8694 -0.5891  1.4385
 3531TIP3    H232085   4.947   3.179  16.926 -0.3450 -0.2450  0.0966
 3532TIP3   OH232086   4.510   6.467  12.008  0.4738  0.5244 -0.3736
 3532TIP3    H132087   4.521   6.473  12.103 -0.2753  0.1808 -0.2609
 3532TIP3    H232088   4.527   6.555  11.977  1.0221  0.5725  0.0496
 3533TIP3   OH232089   4.844   0.598   0.405  0.0123 -0.2208 -0.2374
 3533TIP3    H132090   4.877   0.563   0.322 -2.2748 -1.5302 -0.6231
 3533TIP3    H232091   4.796   0.526   0.445 -2.1719  1.5214  0.4112
 3534TIP3   OH232092   3.381   5.455   4.244 -0.1443 -0.6143 -0.7384
 3534TIP3    H132093   3.310   5.433   4.183 -0.0818 -0.1239 -0.9832
 3534TIP3    H232094   3.440   5.511   4.194 -0.9280  1.1489  0.2666
 3535TIP3   OH232095   6.474   2.440  13.551  0.4569 -0.4139  0.4124
 3535TIP3    H132096   6.476   2.533  13.574 -1.5376 -0.0240 -0.8470
 3535TIP3    H232097   6.563   2.420  13.524  0.5728  1.5648 -0.7933
 3536TIP3   OH232098   4.080   6.394   2.831 -0.0385 -0.5673 -0.1191
 3536TIP3    H132099   4.046   6.458   2.769  0.7374  0.4185  0.4594
 3536TIP3    H232100   4.010   6.330   2.841 -1.4610  1.0841  0.5681
 3537TIP3   OH232101   2.753   5.843   5.133 -0.6129  0.4880  0.2112
 3537TIP3    H132102   2.779   5.923   5.086 -2.0803  0.2916 -0.9950
 3537TIP3    H232103   2.672   5.868   5.177 -1.4282 -0.5114 -0.7018
 3538TIP3   OH232104   2.975   3.615  10.972  0.0283  0.2442  0.0562
 3538TIP3    H132105   2.916   3.680  10.933 -0.1498 -0.6816 -1.2336
 3538TIP3    H232106   3.063   3.648  10.954 -0.0691  1.6688  2.0463
 3539TIP3   OH232107   0.022   3.032   0.041  0.1235  0.1377  0.3680
 3539TIP3    H132108   0.018   2.942   0.009  1.5047  0.8769 -1.9574
 3539TIP3    H232109   0.096   3.033   0.102  0.3858 -0.1901  0.0549
 3540TIP3   OH232110   5.945   0.926  11.180  0.2584 -0.2205  0.6129
 3540TIP3    H132111   5.875   0.900  11.120  1.6228 -1.3889 -0.4928
 3540TIP3    H232112   5.946   0.856  11.246  1.5336 -1.1402 -0.3561
 3541TIP3   OH232113   2.581   0.932  16.280 -0.0375 -0.2505  0.0391
 3541TIP3    H132114   2.492   0.967  16.272  0.0018 -0.7809 -3.5066
 3541TIP3    H232115   2.575   0.866  16.349 -2.1521  0.4201  0.5395
 3542TIP3   OH232116   3.332   1.285   6.237 -0.3210  0.4620  0.6804
 3542TIP3    H132117   3.377   1.201   6.242 -0.4565  0.3473 -0.0483
 3542TIP3    H232118   3.246   1.268   6.276 -0.0539  0.4727  1.2888
 3543TIP3   OH232119   3.030   6.640   6.184  0.4058  0.0564  1.0971
 3543TIP3    H132120   3.072   6.682   6.259 -0.9091  1.4623  1.0603
 3543TIP3    H232121   2.940   6.672   6.185  0.7797  1.3711 -2.0072
 3544TIP3   OH232122   2.940   2.193  13.811 -0.4439  0.1790  0.7733
 3544TIP3    H132123   2.936   2.287  13.794 -0.0836  0.1638  0.5956
 3544TIP3    H232124   3.031   2.178  13.840 -0.4356 -0.1525  0.5788
 3545TIP3   OH232125   4.116   6.512   6.530  0.3658 -0.2461  0.5999
 3545TIP3    H132126   4.159   6.598   6.522 -0.6781  0.2969  0.7638
 3545TIP3    H232127   4.074   6.498   6.446  0.2939 -0.4621  0.6722
 3546TIP3   OH232128   6.298   3.765  15.477 -0.1933 -0.3865 -0.4203
 3546TIP3    H132129   6.303   3.675  15.445  0.3517 -0.5000 -0.0240
 3546TIP3    H232130   6.233   3.762  15.548 -1.7561 -0.0430 -1.7855
 3547TIP3   OH232131   0.780   3.636  12.856  0.4132 -0.0069 -0.2177
 3547TIP3    H132132   0.794   3.580  12.933 -1.1100 -2.9299 -1.9590
 3547TIP3    H232133   0.700   3.684  12.875 -0.4124 -1.3321 -0.2954
 3548TIP3   OH232134   1.404   2.782  14.844  0.0216 -0.8078 -0.4866
 3548TIP3    H132135   1.500   2.777  14.840  0.0306  0.3996 -2.2427
 3548TIP3    H232136   1.374   2.709  14.790 -0.0213  0.0145 -1.5915
 3549TIP3   OH232137   2.227   3.714   2.869 -0.3205  0.0932  0.2890
 3549TIP3    H132138   2.209   3.798   2.826 -0.6315  0.4515  1.1021
 3549TIP3    H232139   2.214   3.732   2.962 -0.7205 -0.9490  0.4365
 3550TIP3   OH232140   4.939   1.244   0.610 -0.1029 -0.0745 -0.7766
 3550TIP3    H132141   4.874   1.174   0.600 -0.7117  0.0874  1.8341
 3550TIP3    H232142   4.990   1.219   0.687 -0.5023  2.5096  0.3625
 3551TIP3   OH232143   4.363   3.687  10.994  0.3970  0.2623  0.2197
 3551TIP3    H132144   4.371   3.694  10.899  0.0101  0.0061  0.1641
 3551TIP3    H232145   4.384   3.595  11.013  0.7077  0.3739  0.4047
 3552TIP3   OH232146   1.431   4.174  12.624  0.0002  0.3283  0.7135
 3552TIP3    H132147   1.493   4.103  12.643  0.0748 -0.1161 -1.0748
 3552TIP3    H232148   1.481   4.236  12.571 -1.0613 -0.0295 -0.7332
 3553TIP3   OH232149   2.081   2.614  16.854 -0.2998 -0.6750  0.2635
 3553TIP3    H132150   2.072   2.701  16.893 -1.6821  0.0656 -1.6650
 3553TIP3    H232151   1.999   2.600  16.806  1.6970 -1.1462 -3.1802
 3554TIP3   OH232152   6.420   0.428   5.538 -0.0815 -0.5205  0.1456
 3554TIP3    H132153   6.500   0.375   5.535 -0.4571 -1.2740  2.4686
 3554TIP3    H232154   6.349   0.367   5.518 -0.2256 -0.1659 -0.4574
 3555TIP3   OH232155   0.334   0.138  15.161 -0.4312 -0.0681  0.1533
 3555TIP3    H132156   0.256   0.131  15.105 -0.2187 -0.3207 -0.1113
 3555TIP3    H232157   0.386   0.061  15.139  0.3692  0.6283 -0.3921
 3556TIP3   OH232158   6.597   5.796   0.878  0.3998 -0.0763  0.2873
 3556TIP3    H132159   6.513   5.774   0.836  0.1744 -1.2515  1.3211
 3556TIP3    H232160   6.578   5.793   0.971  1.3419  0.7476  0.5066
 3557TIP3   OH232161   3.426   1.996   5.110  0.5072  0.6181 -0.1153
 3557TIP3    H132162   3.420   1.902   5.095  0.0769  0.5648  0.3886
 3557TIP3    H232163   3.489   2.004   5.182 -1.6057  0.5380  1.7762
 3558TIP3   OH232164   5.059   0.720  11.764  0.2353 -0.1345 -0.4611
 3558TIP3    H132165   5.060   0.652  11.832 -1.8394 -0.2239 -0.4867
 3558TIP3    H232166   5.120   0.787  11.796 -1.3293  0.2170  1.9252
 3559TIP3   OH232167   0.293   5.584  15.754  0.2572  0.1682 -0.0561
 3559TIP3    H132168   0.386   5.583  15.778  0.6644 -0.6352 -1.5963
 3559TIP3    H232169   0.269   5.491  15.749 -0.1122  0.3307 -1.5651
 3560TIP3   OH232170   1.940   4.443  14.398 -0.0298 -0.1262 -0.0512
 3560TIP3    H132171   1.901   4.452  14.312 -1.0531  1.6082  0.5744
 3560TIP3    H232172   2.012   4.381  14.385 -1.0385 -0.9575 -1.8409
 3561TIP3   OH232173   2.635   1.119  14.151  0.0234 -0.4948 -0.0702
 3561TIP3    H132174   2.687   1.081  14.222 -1.4512  2.4054  2.6618
 3561TIP3    H232175   2.551   1.073  14.156  0.1200 -0.7039 -0.3463
 3562TIP3   OH232176   3.023   4.865   1.763  0.5498 -0.8245 -0.5141
 3562TIP3    H132177   3.031   4.881   1.857 -0.0001 -0.6226 -0.4991
 3562TIP3    H232178   3.087   4.796   1.745  1.4304 -0.0984 -0.1912
 3563TIP3   OH232179   3.920   2.632   4.296 -0.2613 -0.5749 -0.2761
 3563TIP3    H132180   3.847   2.648   4.237 -0.3666 -2.5567 -0.7053
 3563TIP3    H232181   3.993   2.611   4.238 -0.1995 -1.8746  0.2588
 3564TIP3   OH232182   0.562   3.492  12.673 -0.1823 -0.3339 -0.0943
 3564TIP3    H132183   0.574   3.520  12.582 -1.9587  0.2451 -0.1927
 3564TIP3    H232184   0.608   3.409  12.680 -1.2438 -1.1050 -1.9457
 3565TIP3   OH232185   6.376   0.414   4.862 -0.4971 -0.0601 -0.1107
 3565TIP3    H132186   6.401   0.364   4.784  0.4688  0.1863  0.0341
 3565TIP3    H232187   6.298   0.463   4.835 -0.9717 -1.0119 -0.5057
 3566TIP3   OH232188   4.336   5.811  12.223 -0.1938  0.8707 -0.3028
 3566TIP3    H132189   4.272   5.851  12.282 -0.5473  2.3475 -1.6543
 3566TIP3    H232190   4.286   5.747  12.172 -0.3433  1.1243 -0.4787
 3567TIP3   OH232191   2.967   3.333  16.074 -0.0130 -0.3159  0.2661
 3567TIP3    H132192   3.013   3.387  16.138  0.8633 -1.0758  0.2928
 3567TIP3    H232193   2.919   3.395  16.020 -0.2743  0.3780  1.2757
 3568TIP3   OH232194   2.735   2.527   5.552 -0.0642 -0.1897  0.2063
 3568TIP3    H132195   2.753   2.510   5.645  0.8575  0.2287  0.1137
 3568TIP3    H232196   2.790   2.464   5.505 -0.1488 -0.0654 -0.0617
 3569TIP3   OH232197   6.734   1.282  12.395 -0.1821 -0.1195 -0.1790
 3569TIP3    H132198   6.786   1.277  12.314  0.9097  3.8233  0.1799
 3569TIP3    H232199   6.646   1.304  12.365 -0.8911 -3.2424 -0.5414
 3570TIP3   OH232200   4.081   3.946   4.225 -0.3178  0.0076  0.6276
 3570TIP3    H132201   4.176   3.949   4.239 -0.2621  1.3806  0.0841
 3570TIP3    H232202   4.044   3.937   4.312  0.2098  2.7221  1.1762
 3571TIP3   OH232203   3.958   0.416   5.048  0.2361  0.7245 -0.3485
 3571TIP3    H132204   4.034   0.369   5.013  0.3362  1.0322 -0.5526
 3571TIP3    H232205   3.990   0.505   5.063 -0.4265  1.2165 -1.6977
 3572TIP3   OH232206   5.695   2.766   5.750  0.1004 -0.0853 -0.0456
 3572TIP3    H132207   5.776   2.715   5.750 -0.1341 -0.5023  1.4609
 3572TIP3    H232208   5.628   2.704   5.721  0.1862  0.0131 -0.4499
 3573TIP3   OH232209   1.386   4.818   3.502 -0.5473  0.0670  0.4476
 3573TIP3    H132210   1.423   4.731   3.489  2.1612  1.3336 -0.9564
 3573TIP3    H232211   1.362   4.847   3.413 -0.3678  1.1749  0.7477
 3574TIP3   OH232212   4.967   2.655   2.378  0.1431  0.3327  0.6487
 3574TIP3    H132213   4.928   2.575   2.411  0.3393 -0.2351 -0.4860
 3574TIP3    H232214   4.893   2.713   2.360 -0.0468  0.0897  0.6609
 3575TIP3   OH232215   0.239   2.081  13.419 -0.4720  0.2027  0.5808
 3575TIP3    H132216   0.289   2.026  13.359 -0.7354  0.8547 -0.2493
 3575TIP3    H232217   0.161   2.105  13.370 -0.7945  0.5750  1.2655
 3576TIP3   OH232218   5.806   3.928  17.262 -0.3257  0.2217 -0.0467
 3576TIP3    H132219   5.773   3.838  17.264 -1.8336  0.7969  1.6717
 3576TIP3    H232220   5.745   3.977  17.315  3.0366  1.4507  2.8655
 3577TIP3   OH232221   1.699   4.190   5.320 -0.2833  0.6695  0.5927
 3577TIP3    H132222   1.603   4.182   5.320 -0.1670 -0.7602  0.3904
 3577TIP3    H232223   1.715   4.270   5.269 -1.2758 -0.4472 -1.5504
 3578TIP3   OH232224   5.599   4.658  16.343  0.1238  0.1645 -0.8102
 3578TIP3    H132225   5.686   4.625  16.365  0.2809 -0.0706 -1.7624
 3578TIP3    H232226   5.614   4.747  16.311 -0.0691  0.3969 -0.2596
 3579TIP3   OH232227   3.384   5.086  10.585 -0.4421  0.5852 -0.0116
 3579TIP3    H132228   3.318   5.102  10.652 -0.5845 -0.6310  0.1499
 3579TIP3    H232229   3.335   5.049  10.512 -0.1133  0.8350 -0.3644
 3580TIP3   OH232230   4.830   5.250  15.240  0.2077  1.2924  0.7238
 3580TIP3    H132231   4.744   5.282  15.213 -0.3375 -1.4580 -0.9961
 3580TIP3    H232232   4.827   5.252  15.336 -2.6334 -0.7914  0.7532
 3581TIP3   OH232233   3.354   2.851   1.796 -0.1768  0.1654  0.0918
 3581TIP3    H132234   3.301   2.924   1.829 -0.9308 -0.3858  0.1073
 3581TIP3    H232235   3.437   2.858   1.843  0.4209  2.0675 -1.1868
 3582TIP3   OH232236   4.270   3.292   3.258  0.4250 -0.0231 -0.3292
 3582TIP3    H132237   4.283   3.209   3.303 -1.7822  1.0436  2.4330
 3582TIP3    H232238   4.328   3.353   3.303 -1.2711  0.8930  0.6906
 3583TIP3   OH232239   3.520   3.839   6.202 -0.0362  0.1246 -0.1203
 3583TIP3    H132240   3.432   3.875   6.205  0.3262  1.0748 -0.8383
 3583TIP3    H232241   3.545   3.831   6.294 -1.2752 -1.2032  0.1318
 3584TIP3   OH232242   2.224   4.694  16.895 -0.0335 -0.0254  0.3302
 3584TIP3    H132243   2.309   4.698  16.939 -0.3458 -0.5576  1.0119
 3584TIP3    H232244   2.198   4.785  16.886  0.5303  0.1353  0.2840
 3585TIP3   OH232245   5.348   6.044  13.379 -0.7407 -0.1513 -0.0325
 3585TIP3    H132246   5.352   5.949  13.376  0.8478 -0.1045 -0.3103
 3585TIP3    H232247   5.299   6.069  13.300  0.2259 -0.7019 -0.8324
 3586TIP3   OH232248   4.640   5.415  12.907 -0.6396  0.2360 -0.0678
 3586TIP3    H132249   4.583   5.383  12.977 -1.8459 -1.0444 -1.6294
 3586TIP3    H232250   4.682   5.337  12.871 -1.6374  0.6471 -2.1823
 3587TIP3   OH232251   5.768   5.940  15.693  0.1363  0.7675  0.2658
 3587TIP3    H132252   5.693   5.993  15.720  1.2193  2.5426 -0.1247
 3587TIP3    H232253   5.812   5.994  15.627  1.6385 -0.3413  0.3520
 3588TIP3   OH232254   0.529   3.087  12.671  0.1121  0.0602 -0.0957
 3588TIP3    H132255   0.456   3.142  12.701  1.2501  1.3792  0.2858
 3588TIP3    H232256   0.486   3.010  12.634 -1.5149  1.0694 -0.3966
 3589TIP3   OH232257   3.815   4.890  15.755 -0.0633 -0.2324  0.4648
 3589TIP3    H132258   3.827   4.901  15.849  1.0959 -2.7223  0.6305
 3589TIP3    H232259   3.755   4.816  15.747  0.9718 -0.9586 -0.7573
 3590TIP3   OH232260   2.397   3.767   4.096  0.0708  0.0569 -0.0478
 3590TIP3    H132261   2.480   3.744   4.055  0.3557  1.1530 -0.1190
 3590TIP3    H232262   2.333   3.708   4.056  0.8852 -1.1201  0.3641
 3591TIP3   OH232263   4.800   3.799  16.672 -0.2041 -0.2674  0.4729
 3591TIP3    H132264   4.727   3.739  16.685 -0.9812  0.0696 -2.0500
 3591TIP3    H232265   4.868   3.766  16.730 -2.7607  0.2069  3.9035
 3592TIP3   OH232266   4.152   4.759  12.651  0.3346 -0.8681 -0.0984
 3592TIP3    H132267   4.230   4.739  12.704  0.6331 -0.4730 -0.3908
 3592TIP3    H232268   4.136   4.852  12.665  2.2974 -0.0021 -3.1706
 3593TIP3   OH232269   3.773   2.995  15.532  0.0235 -0.2240  0.4016
 3593TIP3    H132270   3.769   3.042  15.615 -2.3258 -0.0818  0.2350
 3593TIP3    H232271   3.766   3.063  15.465  0.4045 -0.4665  0.1158
 3594TIP3   OH232272   3.480   0.404   1.833  0.5009  0.1612  0.0054
 3594TIP3    H132273   3.538   0.398   1.909  0.0402  2.5974  0.5812
 3594TIP3    H232274   3.529   0.455   1.769  0.4762 -1.0261 -0.9926
 3595TIP3   OH232275   0.223   3.742  14.481  0.2489  0.0939 -0.5595
 3595TIP3    H132276   0.141   3.766  14.523  0.3348 -0.6205  0.0387
 3595TIP3    H232277   0.247   3.818  14.428 -0.3663  0.6212 -0.0835
 3596TIP3   OH232278   3.878   6.431  12.227  0.4414 -0.0293 -0.2649
 3596TIP3    H132279   3.867   6.477  12.310 -0.2194 -1.6668  0.5813
 3596TIP3    H232280   3.791   6.435  12.186  0.8425  1.0452 -1.0414
 3597TIP3   OH232281   3.399   1.538  12.562  0.2503  0.8255 -0.2862
 3597TIP3    H132282   3.320   1.588  12.582 -0.5486 -0.2821 -0.6462
 3597TIP3    H232283   3.413   1.552  12.468  0.4196  0.9105 -0.2493
 3598TIP3   OH232284   6.581   1.255   3.094 -0.2354 -0.2054  0.3498
 3598TIP3    H132285   6.591   1.292   3.006 -0.2097 -1.9626 -0.4112
 3598TIP3    H232286   6.540   1.325   3.145  0.2233  1.0178 -0.9227
 3599TIP3   OH232287   5.181   2.747  11.124 -0.1004  0.1104  0.3836
 3599TIP3    H132288   5.106   2.721  11.177 -0.5638  2.0140  0.6926
 3599TIP3    H232289   5.251   2.763  11.187 -0.1908  0.8284  0.3093
 3600TIP3   OH232290   1.768   2.491  11.512 -0.5180 -0.4965  0.3196
 3600TIP3    H132291   1.718   2.522  11.587 -1.8227 -0.2649 -0.6348
 3600TIP3    H232292   1.852   2.536  11.519 -0.9207  0.1299  1.1992
 3601TIP3   OH232293   4.575   5.749  16.400 -0.0706 -0.6830  0.9413
 3601TIP3    H132294   4.639   5.817  16.377  0.7644 -1.5273  0.7294
 3601TIP3    H232295   4.490   5.792  16.390  0.4614  0.4895  1.3409
 3602TIP3   OH232296   6.239   4.686   1.688  0.6867  0.9537 -0.0112
 3602TIP3    H132297   6.315   4.647   1.644 -0.1169 -0.1566 -0.4130
 3602TIP3    H232298   6.220   4.765   1.636 -0.4328 -0.4942 -1.8636
 3603TIP3   OH232299   6.328   4.354  13.715 -0.0644 -0.2080 -0.0207
 3603TIP3    H132300   6.357   4.442  13.736  3.4873 -0.7803 -2.2672
 3603TIP3    H232301   6.264   4.365  13.645  0.5293  0.5469 -0.4438
 3604TIP3   OH232302   0.889   0.620   0.351  0.3618 -0.5747  0.0397
 3604TIP3    H132303   0.949   0.690   0.378  1.4997 -2.2296  2.0128
 3604TIP3    H232304   0.931   0.581   0.275 -1.4291  2.2935 -2.5362
 3605TIP3   OH232305   3.390   1.991   3.853 -0.0826  0.3829 -0.2287
 3605TIP3    H132306   3.453   1.924   3.880 -0.3362  0.1143 -0.2970
 3605TIP3    H232307   3.357   2.027   3.936 -0.1385  0.2412 -0.1892
 3606TIP3   OH232308   6.762   6.363   2.761  1.0734  0.1705 -0.1547
 3606TIP3    H132309   6.815   6.396   2.833 -2.1380  1.1493  1.8721
 3606TIP3    H232310   6.731   6.277   2.791 -1.9701  1.4741  0.5886
 3607TIP3   OH232311   6.249   3.746  12.066  0.8726 -0.6550 -0.1079
 3607TIP3    H132312   6.229   3.659  12.102  0.7143 -0.1875  0.9559
 3607TIP3    H232313   6.286   3.794  12.140 -0.2001  0.5759 -0.3585
 3608TIP3   OH232314   2.958   0.049  11.743 -0.1546 -0.0031 -0.4925
 3608TIP3    H132315   2.994  -0.032  11.709 -0.7519  0.4706 -2.2946
 3608TIP3    H232316   2.968   0.112  11.672 -0.6754  1.2250  0.4978
 3609TIP3   OH232317   0.673   5.877  15.318  0.1994 -0.4323 -0.1832
 3609TIP3    H132318   0.759   5.835  15.323  0.3998 -0.0697 -0.5919
 3609TIP3    H232319   0.654   5.881  15.225 -1.1795 -2.3512 -0.0175
 3610TIP3   OH232320   3.469   5.134   3.843  0.1576  0.4502 -0.8726
 3610TIP3    H132321   3.460   5.229   3.832 -2.6058  0.1367 -1.6033
 3610TIP3    H232322   3.453   5.098   3.756 -1.1180 -0.8159 -0.1374
 3611TIP3   OH232323   5.789   0.271   4.156 -1.0744  0.2783 -0.8954
 3611TIP3    H132324   5.840   0.325   4.095  0.2224 -1.0276 -0.9938
 3611TIP3    H232325   5.780   0.187   4.111 -0.9938 -0.3675  0.2848
 3612TIP3   OH232326   3.161   3.330   3.061 -0.3200 -0.0756 -0.3274
 3612TIP3    H132327   3.066   3.334   3.047 -0.5295 -1.4421  0.6355
 3612TIP3    H232328   3.176   3.382   3.140 -0.4936 -1.2108  0.4722
 3613TIP3   OH232329   5.078   0.325  15.611 -0.1743 -0.0755  0.0581
 3613TIP3    H132330   5.057   0.296  15.522 -0.0789  2.6298 -0.8947
 3613TIP3    H232331   5.174   0.324  15.614 -0.2079 -1.8202  0.7141
 3614TIP3   OH232332   4.006   1.761   1.351  0.0521 -0.2260  0.2061
 3614TIP3    H132333   4.027   1.738   1.442  1.1712 -0.4070 -0.0885
 3614TIP3    H232334   4.078   1.724   1.300  0.3193  1.3353 -0.5754
 3615TIP3   OH232335   6.452   5.424   2.380 -0.6011 -0.0263 -0.3013
 3615TIP3    H132336   6.416   5.335   2.372  0.8979 -0.5089 -1.9825
 3615TIP3    H232337   6.393   5.479   2.329 -0.4896 -0.3686 -0.8034
 3616TIP3   OH232338   5.610   4.672   2.070 -0.2376 -0.1487  0.3764
 3616TIP3    H132339   5.702   4.660   2.046 -0.2365 -0.3647  0.4874
 3616TIP3    H232340   5.593   4.764   2.053  0.2769  0.1300  1.3297
 3617TIP3   OH232341   5.182   0.736  16.561 -0.1226 -0.3568  0.0018
 3617TIP3    H132342   5.129   0.815  16.546 -1.7194 -1.1876  1.0726
 3617TIP3    H232343   5.254   0.765  16.617  1.6627  1.1862 -2.9533
 3618TIP3   OH232344   1.210   6.274   3.399 -0.0650 -0.2423  0.5930
 3618TIP3    H132345   1.118   6.267   3.374  0.2655 -0.0417 -0.6795
 3618TIP3    H232346   1.215   6.357   3.447 -0.2459  0.5101 -0.6815
 3619TIP3   OH232347   5.301   4.637   0.798 -0.5170 -0.2100  0.7401
 3619TIP3    H132348   5.381   4.585   0.790 -1.4959 -1.5662 -0.5740
 3619TIP3    H232349   5.233   4.573   0.816 -1.5112  0.7815  0.5648
 3620TIP3   OH232350   3.876   3.138   1.880 -0.1626 -0.0875  0.0291
 3620TIP3    H132351   3.848   3.202   1.945  0.8895  1.4528 -1.0134
 3620TIP3    H232352   3.846   3.172   1.797  1.1801 -0.4838 -0.6386
 3621TIP3   OH232353   4.162   0.809  13.414  0.2288  0.4033 -0.1017
 3621TIP3    H132354   4.108   0.774  13.486  0.3637  1.6615  0.6414
 3621TIP3    H232355   4.247   0.827  13.455  0.3542  0.9760 -0.6140
 3622TIP3   OH232356   5.877   5.878   3.367  0.1179  0.5103  0.0759
 3622TIP3    H132357   5.839   5.964   3.381  0.7658  0.5702  1.4980
 3622TIP3    H232358   5.853   5.827   3.444 -1.2462 -0.9579 -1.2829
 3623TIP3   OH232359   3.195   4.980  11.883  0.5971 -0.4511 -0.1919
 3623TIP3    H132360   3.169   4.986  11.975 -0.0476  0.9582 -0.4440
 3623TIP3    H232361   3.240   4.896  11.876  0.2602 -0.7761  1.3117
 3624TIP3   OH232362   1.098   4.000   5.014  0.5400 -0.0182  0.2894
 3624TIP3    H132363   1.047   3.978   5.092  1.1878  1.7752  1.2437
 3624TIP3    H232364   1.182   4.031   5.048  1.7026 -1.4387 -1.2159
 3625TIP3   OH232365   6.773   2.299  16.053  0.7039  0.7628  0.2276
 3625TIP3    H132366   6.853   2.270  16.098  0.8590 -1.9200 -1.7039
 3625TIP3    H232367   6.721   2.220  16.042 -0.2226  1.7115 -2.5723
 3626TIP3   OH232368   1.246   4.228   0.592  0.5979  0.5142  0.7577
 3626TIP3    H132369   1.210   4.252   0.678  1.3141  0.0971  1.1775
 3626TIP3    H232370   1.197   4.150   0.567 -0.6602  1.5077  0.0961
 3627TIP3   OH232371   3.235   3.674   1.705  0.0754  0.7468 -0.4964
 3627TIP3    H132372   3.268   3.605   1.762 -1.4305  0.2816 -0.1802
 3627TIP3    H232373   3.269   3.652   1.619  1.2026  0.6842 -0.0461
 3628TIP3   OH232374   2.178   1.379  15.389 -0.5946 -0.2499  0.2263
 3628TIP3    H132375   2.103   1.437  15.378  0.7188  1.2261 -1.0389
 3628TIP3    H232376   2.190   1.338  15.303  0.7714  0.4176  0.0862
 3629TIP3   OH232377   6.476   6.716  15.544 -0.0927  0.3658  0.0890
 3629TIP3    H132378   6.388   6.738  15.513 -0.8369 -1.2588  0.9618
 3629TIP3    H232379   6.488   6.625  15.517  1.6386  0.8069 -0.6875
 3630TIP3   OH232380   6.417   2.004   4.624 -0.8712 -0.2330 -0.3278
 3630TIP3    H132381   6.432   1.916   4.589 -1.3058  0.2033 -1.6362
 3630TIP3    H232382   6.329   2.001   4.659 -0.2841 -0.7942  1.1355
 3631TIP3   OH232383   5.360   5.095  11.493  0.7049  0.2722 -0.3645
 3631TIP3    H132384   5.268   5.068  11.494  0.4923  1.0122  1.7397
 3631TIP3    H232385   5.363   5.168  11.430 -0.3101  0.7848  0.1748
 3632TIP3   OH232386   5.605   0.057   2.708 -0.0654 -0.3928 -0.8311
 3632TIP3    H132387   5.588   0.150   2.726 -0.3609 -0.8724  1.5419
 3632TIP3    H232388   5.613   0.017   2.794 -1.3300 -2.8523 -1.8052
 3633TIP3   OH232389   1.148   4.295   1.115  0.6281 -0.2730  0.4780
 3633TIP3    H132390   1.159   4.293   1.210  1.9320  3.1105  0.4629
 3633TIP3    H232391   1.233   4.269   1.080  0.9247  0.8762  0.2956
 3634TIP3   OH232392   3.695   4.624   4.768  0.2050 -0.1008 -0.2912
 3634TIP3    H132393   3.645   4.702   4.745  0.1641 -0.0611 -0.0695
 3634TIP3    H232394   3.697   4.572   4.688  2.5357  1.3587 -1.2334
 3635TIP3   OH232395   1.743   4.869  14.505 -0.3011  0.3099  0.4869
 3635TIP3    H132396   1.689   4.904  14.434  1.7603  0.9747 -0.8016
 3635TIP3    H232397   1.770   4.782  14.475  0.9883  0.7935  0.2030
 3636TIP3   OH232398   2.792   4.977  15.045 -0.0984  0.0100  0.0860
 3636TIP3    H132399   2.831   5.050  15.094  0.3683 -1.1045  1.3935
 3636TIP3    H232400   2.729   4.938  15.105 -0.0892 -0.8921 -0.4851
 3637TIP3   OH232401   4.096   4.898  10.946 -0.0524  0.1250 -0.3901
 3637TIP3    H132402   4.141   4.972  10.988 -0.1012 -1.0750  1.8173
 3637TIP3    H232403   4.165   4.855  10.895  0.5512  0.2518  0.3006
 3638TIP3   OH232404   4.752   4.255   2.846  0.2569  0.3940  0.5383
 3638TIP3    H132405   4.827   4.292   2.801  0.1756  0.7442  0.6900
 3638TIP3    H232406   4.676   4.293   2.802  0.1395 -1.1419 -0.6248
 3639TIP3   OH232407   5.284   5.287  14.781  0.3772  0.3957 -1.0442
 3639TIP3    H132408   5.317   5.377  14.776  0.5269  0.2663 -2.5087
 3639TIP3    H232409   5.363   5.233  14.783  0.3044  0.3360  1.0016
 3640TIP3   OH232410   1.855   6.529  14.910 -0.4749  0.2256 -0.1492
 3640TIP3    H132411   1.809   6.577  14.841 -0.2391  1.1837  0.3552
 3640TIP3    H232412   1.917   6.592  14.946  0.5965 -0.7764 -0.1891
 3641TIP3   OH232413   0.471   0.985   6.118  0.4710 -0.0890 -0.1585
 3641TIP3    H132414   0.536   1.002   6.185  0.2520  0.5378 -0.1075
 3641TIP3    H232415   0.389   1.019   6.154 -0.1459 -1.9909  0.3129
 3642TIP3   OH232416   5.894   1.854   1.924  0.7649  0.1660 -0.2579
 3642TIP3    H132417   5.987   1.879   1.926  0.9181 -0.0496 -2.8949
 3642TIP3    H232418   5.893   1.767   1.884 -0.5624  0.2056 -0.3309
 3643TIP3   OH232419   4.997   1.859   4.849  0.4523  0.0158  0.6730
 3643TIP3    H132420   4.914   1.904   4.863  1.4195  1.6665  1.2752
 3643TIP3    H232421   4.985   1.773   4.890 -1.5749 -0.4606 -0.8898
 3644TIP3   OH232422   3.739   4.160  11.973 -0.1177 -0.0744  0.4135
 3644TIP3    H132423   3.810   4.171  11.911  0.2021  0.4859  0.8737
 3644TIP3    H232424   3.691   4.243  11.971 -0.3562 -0.2047  0.6033
 3645TIP3   OH232425   3.728   6.508  15.036  0.4351  0.0753 -0.1445
 3645TIP3    H132426   3.803   6.565  15.054 -0.1437  1.2096 -1.2363
 3645TIP3    H232427   3.728   6.498  14.941  0.8827 -2.2665  0.0792
 3646TIP3   OH232428   3.173   4.464   0.883  0.0918 -0.2216  0.2868
 3646TIP3    H132429   3.262   4.466   0.847  0.6214  1.5833  1.6684
 3646TIP3    H232430   3.178   4.401   0.955  0.9096  1.7209  1.9783
 3647TIP3   OH232431   6.143   0.458  12.454 -0.5845 -0.3199  0.9788
 3647TIP3    H132432   6.052   0.434  12.439 -0.4044 -1.2560  1.3483
 3647TIP3    H232433   6.158   0.437  12.546 -0.3970  1.1551  1.2981
 3648TIP3   OH232434   3.898   3.520  13.767 -0.4190  0.2250  0.2125
 3648TIP3    H132435   3.941   3.594  13.810  1.0398 -1.2344  1.3113
 3648TIP3    H232436   3.827   3.495  13.826 -2.4798  2.2583 -1.3198
 3649TIP3   OH232437   5.327   4.920   0.626  0.6487  0.0007 -0.2806
 3649TIP3    H132438   5.301   4.843   0.677  1.0749 -0.3599 -0.5969
 3649TIP3    H232439   5.349   4.986   0.692 -1.3354  0.4097 -0.0134
 3650TIP3   OH232440   0.190   5.997   4.425  0.9328 -0.3829 -0.2244
 3650TIP3    H132441   0.231   5.926   4.475  0.9125  0.4364  0.9616
 3650TIP3    H232442   0.133   6.041   4.487 -0.6617 -0.6083 -1.5017
 3651TIP3   OH232443   2.062   2.691   3.373  0.1440 -0.4663 -0.1598
 3651TIP3    H132444   2.000   2.651   3.312 -0.1345 -2.1952  1.2143
 3651TIP3    H232445   2.148   2.663   3.343  0.1055 -0.1375 -0.5821
 3652TIP3   OH232446   1.767   0.240   4.359  0.1298  0.1041 -0.0112
 3652TIP3    H132447   1.848   0.275   4.322  0.7434 -0.7141  0.5439
 3652TIP3    H232448   1.715   0.214   4.283 -0.7631  3.0742 -0.5029
 3653TIP3   OH232449   6.089   6.708  11.931  0.0654 -0.1068  0.0456
 3653TIP3    H132450   6.125   6.794  11.952  1.2341  0.3654 -3.5229
 3653TIP3    H232451   6.159   6.646  11.955 -0.0459  0.1043  0.9006
 3654TIP3   OH232452   6.434   6.244   0.131  0.0305  0.4937 -0.2492
 3654TIP3    H132453   6.457   6.317   0.189  1.5060 -0.9311  0.9929
 3654TIP3    H232454   6.344   6.222   0.155 -0.2913  1.6509 -0.3667
 3655TIP3   OH232455   3.978   6.599   5.988  0.0758  0.5077 -0.7251
 3655TIP3    H132456   4.051   6.618   5.929 -0.1483  0.3725 -1.0427
 3655TIP3    H232457   3.937   6.684   6.004  1.9062  1.0154  1.5646
 3656TIP3   OH232458   5.470   0.973   4.776 -0.2096  0.1693 -0.1060
 3656TIP3    H132459   5.537   0.991   4.842 -0.0675 -2.0384  0.3959
 3656TIP3    H232460   5.395   1.026   4.803  0.2986  0.2935  1.0874
 3657TIP3   OH232461   5.039   3.912  11.904  0.3432  0.2828 -0.1770
 3657TIP3    H132462   5.034   3.972  11.830 -1.4666 -0.8125 -0.9788
 3657TIP3    H232463   5.030   3.969  11.981 -1.7481  1.0607 -0.9393
 3658TIP3   OH232464   1.222   4.485   3.087  0.3458  0.0739 -0.1339
 3658TIP3    H132465   1.257   4.420   3.025  1.1427  0.1376  0.2434
 3658TIP3    H232466   1.174   4.546   3.031  0.5818 -0.1824 -0.6316
 3659TIP3   OH232467   3.357   6.298   5.689  0.2523 -0.1236 -0.0076
 3659TIP3    H132468   3.357   6.363   5.619 -0.4281 -1.7650 -1.5777
 3659TIP3    H232469   3.283   6.241   5.668 -0.3225 -0.2928  2.3982
 3660TIP3   OH232470   5.726   3.066  16.382  0.1923  0.1918 -0.5512
 3660TIP3    H132471   5.663   3.138  16.385  0.1153  0.1103 -0.2644
 3660TIP3    H232472   5.792   3.088  16.448 -1.5791 -1.6267  1.9066
 3661TIP3   OH232473   2.356   6.270  17.057  0.3533  0.0271  0.2173
 3661TIP3    H132474   2.336   6.264  17.150 -0.3075 -2.0087 -0.0381
 3661TIP3    H232475   2.271   6.279  17.015  0.4927 -1.0655 -0.3214
 3662TIP3   OH232476   3.936   4.725   2.710 -0.4278 -0.3295  0.0724
 3662TIP3    H132477   3.854   4.676   2.710  0.0649 -1.1518  1.6684
 3662TIP3    H232478   3.971   4.712   2.622 -0.6550 -2.2665  0.2393
 3663TIP3   OH232479   2.794   1.404  12.162  0.2592 -0.7097  0.0987
 3663TIP3    H132480   2.888   1.408  12.140  0.7484 -2.2255  1.8088
 3663TIP3    H232481   2.750   1.401  12.077  1.7817 -0.4647 -0.7241
 3664TIP3   OH232482   2.744   3.172  11.231 -0.4047  0.0002  0.0365
 3664TIP3    H132483   2.818   3.120  11.199 -0.7974 -0.3381 -0.3334
 3664TIP3    H232484   2.759   3.260  11.195 -0.2496 -0.1007 -0.1470
 3665TIP3   OH232485   0.841   1.687  16.231 -0.3121 -0.0559 -0.4289
 3665TIP3    H132486   0.813   1.641  16.310  2.5037  1.0451  1.2959
 3665TIP3    H232487   0.857   1.617  16.167  0.5567 -1.2394  1.0413
 3666TIP3   OH232488   2.699   2.460   1.837  0.5212 -0.1038  0.5798
 3666TIP3    H132489   2.709   2.546   1.796 -0.1711  0.5010  1.6411
 3666TIP3    H232490   2.718   2.397   1.767 -2.2082  0.8654 -1.1162
 3667TIP3   OH232491   4.421   5.014   4.438  0.4332  0.3516 -0.0369
 3667TIP3    H132492   4.492   4.986   4.496  0.0632 -1.8580 -0.5915
 3667TIP3    H232493   4.342   5.005   4.491  0.3137  0.4299 -0.2020
 3668TIP3   OH232494   5.026   0.156   0.641  0.1051 -0.0636  0.0804
 3668TIP3    H132495   5.009   0.246   0.669  2.7980  0.3467  0.5068
 3668TIP3    H232496   5.043   0.163   0.547 -1.7631 -0.4444 -0.3050
 3669TIP3   OH232497   5.589   3.060  11.677 -0.1884  0.1294 -0.0388
 3669TIP3    H132498   5.597   2.967  11.658 -2.8399  0.0004 -0.5954
 3669TIP3    H232499   5.504   3.070  11.719  0.7449  2.0935  1.5087
 3670TIP3   OH232500   4.468   0.927  13.406 -0.1190 -0.5254 -0.4268
 3670TIP3    H132501   4.407   0.991  13.442 -0.5815 -0.6981 -0.9052
 3670TIP3    H232502   4.548   0.937  13.459  0.1851  1.1773 -1.1854
 3671TIP3   OH232503   6.290   1.173  11.865 -0.2866 -0.1804 -0.1740
 3671TIP3    H132504   6.264   1.084  11.888 -0.6882 -0.7481 -2.6299
 3671TIP3    H232505   6.384   1.175  11.882  0.3171 -2.0642 -2.8686
 3672TIP3   OH232506   5.850   6.795  12.108  0.3543  0.4236 -0.2095
 3672TIP3    H132507   5.851   6.770  12.200 -0.3644  1.1826  0.0033
 3672TIP3    H232508   5.940   6.779  12.079  0.1429 -1.6036  0.1199
 3673TIP3   OH232509   5.023   5.231  14.746  0.0082 -0.2874  0.1924
 3673TIP3    H132510   4.976   5.177  14.810 -1.8249  3.3175  2.0264
 3673TIP3    H232511   5.096   5.268  14.796 -0.7181  1.5669 -0.0729
 3674TIP3   OH232512   2.623   3.173  14.617  0.9358 -0.6669  0.2372
 3674TIP3    H132513   2.603   3.266  14.617 -0.0328 -0.8637 -0.6697
 3674TIP3    H232514   2.670   3.159  14.699 -0.5856  0.2864  1.3143
 3675TIP3   OH232515   1.580   5.565  12.372  0.8280  1.0100  1.0422
 3675TIP3    H132516   1.544   5.486  12.412 -1.1621 -0.0888 -2.6760
 3675TIP3    H232517   1.672   5.545  12.358 -0.0379 -1.4814 -1.5682
 3676TIP3   OH232518   2.695   1.913  14.489 -0.1258  0.1200 -0.3984
 3676TIP3    H132519   2.706   1.873  14.403  0.6050 -0.7845  0.1088
 3676TIP3    H232520   2.601   1.927  14.497 -0.1462  0.8588 -1.6252
 3677TIP3   OH232521   3.108   3.744   6.197  0.5517 -0.4107  0.0658
 3677TIP3    H132522   3.050   3.693   6.140 -1.7621 -0.0655  2.0242
 3677TIP3    H232523   3.067   3.831   6.201  1.0708 -0.2152  1.6376
 3678TIP3   OH232524   2.691   4.334  12.390  0.1142  1.1244  0.1663
 3678TIP3    H132525   2.743   4.407  12.425  0.2597  1.0395  0.1313
 3678TIP3    H232526   2.681   4.274  12.463 -1.8728  2.1921  0.8063
 3679TIP3   OH232527   2.001   0.361  11.181  0.0031  0.0106 -0.0055
 3679TIP3    H132528   2.043   0.445  11.194  0.7976 -0.4252  0.2476
 3679TIP3    H232529   1.980   0.359  11.088 -2.4714  1.6208  0.4655
 3680TIP3   OH232530   5.826   0.705   0.247 -0.1423 -0.2939 -0.1128
 3680TIP3    H132531   5.744   0.712   0.296 -0.5916  3.6476 -1.2585
 3680TIP3    H232532   5.889   0.756   0.298  0.5021  0.1943 -1.3847
 3681TIP3   OH232533   4.067   3.604   0.492 -0.3204  0.9926 -0.1712
 3681TIP3    H132534   4.138   3.667   0.505 -0.4439  1.3084 -1.0447
 3681TIP3    H232535   4.048   3.607   0.398  0.4839 -1.2125 -0.4320
 3682TIP3   OH232536   2.621   4.120  17.097  0.0290  0.2171  0.5563
 3682TIP3    H132537   2.642   4.212  17.113  2.4190 -0.1075 -0.5383
 3682TIP3    H232538   2.597   4.086  17.183 -0.0057  1.6422  1.1243
 3683TIP3   OH232539   2.744   0.476  15.803 -0.5869  0.1743  0.5428
 3683TIP3    H132540   2.768   0.454  15.713 -1.2654  0.5635  0.2612
 3683TIP3    H232541   2.725   0.391  15.845 -0.2694 -0.0052  0.3222
 3684TIP3   OH232542   2.082   4.250   4.277 -0.0169  0.4043 -0.1302
 3684TIP3    H132543   2.154   4.223   4.334 -1.0844  0.9729  1.5480
 3684TIP3    H232544   2.083   4.187   4.205  0.6473 -1.0750  1.1351
 3685TIP3   OH232545   6.530   5.642   2.101  0.5054  0.0858 -0.5549
 3685TIP3    H132546   6.543   5.571   2.038  1.0739 -0.2892 -0.0207
 3685TIP3    H232547   6.447   5.621   2.144  1.1710 -0.8094  0.3138
 3686TIP3   OH232548   0.784   3.554   4.196 -0.0576  0.2051 -0.0988
 3686TIP3    H132549   0.777   3.648   4.177  0.0047  0.5008  1.3305
 3686TIP3    H232550   0.834   3.549   4.277 -0.0281 -1.0791 -0.1822
 3687TIP3   OH232551   4.354   6.812  15.946 -0.0579  0.6349 -0.0078
 3687TIP3    H132552   4.411   6.813  15.870 -0.2676  0.4437 -0.1669
 3687TIP3    H232553   4.288   6.879  15.928 -1.0620 -0.5271 -0.7299
 3688TIP3   OH232554   3.008   1.965  10.242 -0.6260  0.1836  0.6898
 3688TIP3    H132555   3.071   2.014  10.294  1.1965  0.1841 -1.4531
 3688TIP3    H232556   2.957   2.031  10.196 -0.0760  0.1312 -0.0008
 3689TIP3   OH232557   6.648   6.628  13.599 -0.1231 -0.0920 -0.1483
 3689TIP3    H132558   6.639   6.666  13.512 -1.0270  2.4083  0.9738
 3689TIP3    H232559   6.739   6.598  13.603 -0.1049 -0.3134 -1.9713
 3690TIP3   OH232560   0.956   5.513   3.291  0.1863 -0.3868  0.0378
 3690TIP3    H132561   1.039   5.531   3.335  0.1379  0.0643 -0.0560
 3690TIP3    H232562   0.948   5.581   3.225 -0.7448  0.1985  0.7275
 3691TIP3   OH232563   6.168   0.461  14.596 -0.4646  0.5489 -0.9349
 3691TIP3    H132564   6.092   0.483  14.650  1.7016  0.1412  2.3951
 3691TIP3    H232565   6.172   0.532  14.531 -2.4079  1.7455  0.2026
 3692TIP3   OH232566   3.627   1.495  15.545  0.2991 -0.2882 -0.5119
 3692TIP3    H132567   3.635   1.474  15.452 -2.6888 -1.6013 -0.5212
 3692TIP3    H232568   3.546   1.545  15.552  1.7449  1.9704  1.0964
 3693TIP3   OH232569   3.637   3.092  10.315 -0.0437  0.3002 -0.3501
 3693TIP3    H132570   3.560   3.080  10.370  1.2489  1.3252  1.7465
 3693TIP3    H232571   3.603   3.097  10.226 -2.2434 -0.6582  0.4185
 3694TIP3   OH232572   2.941   5.940   2.284  0.4665  0.0088 -0.8859
 3694TIP3    H132573   3.014   5.877   2.275  0.5091 -0.3316  1.5281
 3694TIP3    H232574   2.982   6.019   2.319 -0.2962 -0.1755  0.4586
 3695TIP3   OH232575   6.662   3.569  13.626 -0.4147  0.5004  0.0191
 3695TIP3    H132576   6.636   3.615  13.546  0.6995 -0.5941 -0.9981
 3695TIP3    H232577   6.741   3.521  13.600  0.1073  0.3572  1.8573
 3696TIP3   OH232578   3.854   3.863  11.692 -0.0410  0.0194 -0.2075
 3696TIP3    H132579   3.888   3.927  11.630  2.2308 -0.3117  0.6473
 3696TIP3    H232580   3.845   3.782  11.641  1.6193 -0.1959 -0.1831
 3697TIP3   OH232581   1.449   3.790  12.744 -0.0506  0.1582  0.0421
 3697TIP3    H132582   1.407   3.718  12.697  0.0096  0.2711 -0.1837
 3697TIP3    H232583   1.542   3.775  12.732 -0.0548  1.6496 -2.0980
 3698TIP3   OH232584   5.172   1.582  15.435 -0.4608  0.0900  0.9841
 3698TIP3    H132585   5.188   1.507  15.493 -0.4430 -1.7941 -1.3985
 3698TIP3    H232586   5.082   1.609  15.455 -0.7629 -1.1164  1.2634
 3699TIP3   OH232587   4.226   6.816  11.887  0.3588  0.6759 -0.1074
 3699TIP3    H132588   4.138   6.790  11.863  1.0485 -0.6458 -1.3066
 3699TIP3    H232589   4.268   6.840  11.804  1.5684 -0.1481  0.2404
 3700TIP3   OH232590   2.770   1.079  12.975  0.2301  0.4118  0.3914
 3700TIP3    H132591   2.689   1.084  13.026  0.1585 -1.3261  0.4852
 3700TIP3    H232592   2.799   1.169  12.967 -0.6922  0.8675  2.0241
 3701TIP3   OH232593   6.152   6.131   3.326 -0.1712 -0.3754  0.8134
 3701TIP3    H132594   6.214   6.191   3.368  0.4233 -1.6234  1.7546
 3701TIP3    H232595   6.079   6.187   3.299  0.1876  0.6993  2.0367
 3702TIP3   OH232596   3.851   0.216   6.306  0.0728  0.1123  0.0153
 3702TIP3    H132597   3.759   0.192   6.312  0.2955 -0.6814  0.4729
 3702TIP3    H232598   3.855   0.306   6.339 -0.5579  0.2088 -0.1653
 3703TIP3   OH232599   4.335   6.302  12.388  0.4261 -0.3165  0.9098
 3703TIP3    H132600   4.404   6.361  12.358  0.1910 -0.8768 -0.8235
 3703TIP3    H232601   4.381   6.231  12.431  0.8376  0.1053  1.1656
 3704TIP3   OH232602   4.074   4.736  15.645 -0.7053  0.1595 -0.4086
 3704TIP3    H132603   4.075   4.831  15.658 -0.5516  0.0690  0.2654
 3704TIP3    H232604   4.009   4.704  15.707 -1.5073 -0.0820 -1.3578
 3705TIP3   OH232605   6.671   1.981  14.208 -0.0619 -0.0807  0.1323
 3705TIP3    H132606   6.734   1.940  14.149  0.3688  1.1102 -0.2617
 3705TIP3    H232607   6.724   2.037  14.265 -0.5015 -0.9622  1.4535
 3706TIP3   OH232608   5.923   6.724  13.859  0.2182 -0.5145 -0.1785
 3706TIP3    H132609   6.002   6.732  13.805 -1.3108 -2.2259 -2.7888
 3706TIP3    H232610   5.932   6.639  13.903 -0.2272 -0.7998 -0.6271
 3707TIP3   OH232611   0.472   1.446  11.617  0.9380  0.4256 -0.4365
 3707TIP3    H132612   0.445   1.355  11.629  1.2326  0.4593  0.5439
 3707TIP3    H232613   0.561   1.440  11.582  0.6069  0.3273 -1.2478
 3708TIP3   OH232614   5.926   1.689  15.207  0.5026  0.2419  0.1672
 3708TIP3    H132615   5.962   1.656  15.125  1.1626  0.0835  0.5164
 3708TIP3    H232616   5.854   1.629  15.228  1.0326 -0.3678  0.2601
 3709TIP3   OH232617   3.128   2.132  11.194 -0.4073 -0.1532  0.4858
 3709TIP3    H132618   3.143   2.205  11.254 -0.3826  0.1580  0.0998
 3709TIP3    H232619   3.163   2.162  11.110 -0.8703 -0.4077  0.1989
 3710TIP3   OH232620   6.734   1.297  14.449  0.0689 -0.2725  0.4223
 3710TIP3    H132621   6.798   1.313  14.380  2.1873 -0.0338  2.3777
 3710TIP3    H232622   6.759   1.213  14.486 -2.1143 -1.2277 -0.2101
 3711TIP3   OH232623   0.192   5.243   4.700 -0.2785 -0.7199  0.8016
 3711TIP3    H132624   0.209   5.161   4.746  1.4781 -1.2425 -0.7408
 3711TIP3    H232625   0.238   5.235   4.617 -0.8935  1.4375  0.2050
 3712TIP3   OH232626   3.801   4.065  12.819 -0.6146  0.0985 -0.1186
 3712TIP3    H132627   3.794   4.139  12.879 -2.0671 -1.2815  1.4679
 3712TIP3    H232628   3.761   4.097  12.737  0.4115  1.6391 -0.0274
 3713TIP3   OH232629   6.362   5.112  13.675  0.3275  0.5401  0.6549
 3713TIP3    H132630   6.338   5.150  13.760 -0.2459  2.1868 -0.2281
 3713TIP3    H232631   6.450   5.077  13.689  0.6254  1.6654  1.6715
 3714TIP3   OH232632   1.186   0.924   1.802  0.1283 -0.0454  0.4287
 3714TIP3    H132633   1.107   0.870   1.803  0.1557 -0.1517 -2.0530
 3714TIP3    H232634   1.152   1.014   1.806 -0.1795 -0.0612 -1.4244
 3715TIP3   OH232635   0.403   5.643  15.115 -0.0160 -0.0142  0.6836
 3715TIP3    H132636   0.414   5.688  15.198 -3.7159  0.3706  1.0548
 3715TIP3    H232637   0.330   5.688  15.073  1.2042 -0.7709 -2.4097
 3716TIP3   OH232638   5.011   2.410   5.728  0.2749  0.1929 -0.0619
 3716TIP3    H132639   4.931   2.436   5.774 -0.6190 -1.2586 -0.7774
 3716TIP3    H232640   4.992   2.424   5.636 -0.2985 -3.1139 -0.4891
 3717TIP3   OH232641   6.713   2.862  12.534  0.3474  0.1700 -0.0807
 3717TIP3    H132642   6.618   2.867  12.521  0.2962 -0.9460 -0.1711
 3717TIP3    H232643   6.741   2.791  12.477  1.4013  1.2184 -0.8756
 3718TIP3   OH232644   5.322   6.812  12.662 -0.4944 -0.1581  0.5052
 3718TIP3    H132645   5.236   6.843  12.633  0.4925  1.5142 -0.7822
 3718TIP3    H232646   5.309   6.786  12.753 -2.4241 -0.2045  0.2389
 3719TIP3   OH232647   5.293   5.268  13.829 -0.4062 -0.4527 -0.2360
 3719TIP3    H132648   5.333   5.320  13.899 -1.9518  0.3409  0.0745
 3719TIP3    H232649   5.335   5.182  13.835  2.0701  0.6853 -0.6509
 3720TIP3   OH232650   1.635   6.577  15.114 -0.2049 -0.7199  0.6863
 3720TIP3    H132651   1.639   6.508  15.180 -1.9089  0.3134  1.9140
 3720TIP3    H232652   1.687   6.543  15.041 -1.5098 -3.5816  1.0093
 3721TIP3   OH232653   5.666   6.567  12.054  0.3928  0.0976  0.2808
 3721TIP3    H132654   5.718   6.647  12.060 -2.4130  2.1777 -1.7323
 3721TIP3    H232655   5.701   6.522  11.977  0.0941  0.8533 -0.3030
 3722TIP3   OH232656   1.092   0.311  15.471  0.3242 -0.0826 -0.2324
 3722TIP3    H132657   1.083   0.284  15.379  0.3724  0.4780 -0.4057
 3722TIP3    H232658   1.150   0.246  15.509  0.2722 -0.3437 -0.5940
 3723TIP3   OH232659   2.967   4.734   1.497  0.3114  0.5686 -0.1190
 3723TIP3    H132660   2.892   4.674   1.497  0.8268 -0.0917 -1.0063
 3723TIP3    H232661   3.035   4.687   1.546 -0.3765  1.8461  2.0828
 3724TIP3   OH232662   1.004   6.595   2.600  0.0768 -0.5499  0.0019
 3724TIP3    H132663   1.088   6.597   2.555 -0.2063 -2.0094 -0.6222
 3724TIP3    H232664   1.025   6.570   2.690  0.4364  0.3240  0.1609
 3725TIP3   OH232665   2.383   0.712  12.498  0.4447 -0.0666  0.1391
 3725TIP3    H132666   2.316   0.777  12.474  0.5430 -0.8392 -2.3496
 3725TIP3    H232667   2.460   0.765  12.519 -0.3450  0.7408  1.1206
 3726TIP3   OH232668   1.558   4.140   6.442  0.1728  0.2137 -0.0122
 3726TIP3    H132669   1.467   4.121   6.417 -0.1217  1.4667  0.0658
 3726TIP3    H232670   1.606   4.061   6.418 -1.3331 -1.3963  2.1275
 3727TIP3   OH232671   6.198   2.559  17.153  0.0940 -0.2908  0.6808
 3727TIP3    H132672   6.275   2.610  17.179  1.6491 -2.8122  1.1759
 3727TIP3    H232673   6.168   2.517  17.233 -0.7516 -0.6874  0.1637
 3728TIP3   OH232674   1.840   1.195   0.477 -0.4375 -0.2373 -0.3633
 3728TIP3    H132675   1.753   1.207   0.437 -0.1499 -1.7151 -1.4725
 3728TIP3    H232676   1.892   1.154   0.409  1.6862  2.2581 -0.3035
 3729TIP3   OH232677   5.152   5.123  14.541  0.4257 -0.5820  0.0562
 3729TIP3    H132678   5.125   5.158  14.627 -3.3299 -1.8525 -0.5356
 3729TIP3    H232679   5.135   5.194  14.480  1.2952 -0.3569  0.0608
 3730TIP3   OH232680   5.502   2.394  10.765 -0.4565  0.2958  0.5353
 3730TIP3    H132681   5.489   2.368  10.856  0.0895 -1.5740  0.0991
 3730TIP3    H232682   5.516   2.312  10.718 -0.6578  1.2416 -1.2304
 3731TIP3   OH232683   1.837   0.802   0.703  0.1341 -0.0583  0.0545
 3731TIP3    H132684   1.784   0.761   0.771  2.8957 -1.5927  1.3737
 3731TIP3    H232685   1.924   0.809   0.741  0.4697  4.2854 -1.2953
 3732TIP3   OH232686   5.035   5.467  13.514 -0.0273 -0.0892  0.0093
 3732TIP3    H132687   5.075   5.404  13.453  0.8601  0.2861  0.1870
 3732TIP3    H232688   5.047   5.552  13.471 -0.4169  0.0521  0.1852
 3733TIP3   OH232689   0.543   2.364  11.789  0.2287  0.0164 -0.4358
 3733TIP3    H132690   0.637   2.379  11.795  0.3879 -0.0374 -2.5074
 3733TIP3    H232691   0.525   2.299  11.857  2.2113 -2.2291 -1.9411
 3734TIP3   OH232692   3.067   4.336   1.404  0.0738  0.5295  0.2701
 3734TIP3    H132693   3.093   4.248   1.430  0.0004 -0.1983 -1.9888
 3734TIP3    H232694   3.125   4.358   1.331 -1.7803  1.1732 -1.0609
 3735TIP3   OH232695   5.216   5.454  16.822  0.5078  0.4725  0.4218
 3735TIP3    H132696   5.124   5.437  16.844  0.4287  0.8831  0.4165
 3735TIP3    H232697   5.222   5.434  16.729 -0.0710  2.4266 -0.0612
 3736TIP3   OH232698   3.895   1.848  15.716 -0.1295  0.4233  0.6332
 3736TIP3    H132699   3.828   1.812  15.774 -0.8811 -0.1503 -0.5559
 3736TIP3    H232700   3.872   1.940  15.706  0.1898  0.6009  1.4827
 3737TIP3   OH232701   6.772   1.540   5.298 -0.0213 -0.4332 -0.2296
 3737TIP3    H132702   6.685   1.507   5.275  0.8906 -1.5958 -2.1914
 3737TIP3    H232703   6.755   1.617   5.351 -2.2654 -0.3050 -1.0657
 3738TIP3   OH232704   1.840   2.147   1.989  0.0658  0.1498 -0.5351
 3738TIP3    H132705   1.902   2.220   1.993  1.7393 -1.0785 -2.8579
 3738TIP3    H232706   1.772   2.178   1.929 -1.2085  1.1879  1.3883
 3739TIP3   OH232707   1.887   3.348  15.974 -0.7998  0.4924 -0.2607
 3739TIP3    H132708   1.852   3.436  15.962 -0.7235  0.3764 -1.3516
 3739TIP3    H232709   1.850   3.296  15.903  0.4896  0.0478 -0.6399
 3740TIP3   OH232710   1.788   1.265  13.602  0.0415 -0.4370  0.2769
 3740TIP3    H132711   1.826   1.178  13.612 -0.7990 -0.7427  0.9009
 3740TIP3    H232712   1.694   1.249  13.593 -0.0161  0.3438 -0.5861
 3741TIP3   OH232713   2.059   3.492  16.448  1.0584 -0.7021 -0.5930
 3741TIP3    H132714   2.088   3.408  16.484  0.9153  0.9481  3.7860
 3741TIP3    H232715   1.965   3.496  16.469  0.6079 -0.2628 -2.5705
 3742TIP3   OH232716   0.869   3.169  15.516 -0.6264 -0.0797 -0.1538
 3742TIP3    H132717   0.799   3.183  15.452 -0.1009 -1.3891 -1.0584
 3742TIP3    H232718   0.928   3.243  15.504 -1.4990  0.6505  0.1055
 3743TIP3   OH232719   1.925   4.407  12.094 -0.1053  0.2134  0.4703
 3743TIP3    H132720   2.001   4.372  12.047 -1.5308 -0.5821 -1.2925
 3743TIP3    H232721   1.904   4.340  12.159  0.7147  0.4480  0.9782
 3744TIP3   OH232722   1.828   0.448  14.291 -0.7931 -0.2562  0.6497
 3744TIP3    H132723   1.811   0.543  14.290 -2.0145 -0.4665  0.6177
 3744TIP3    H232724   1.821   0.424  14.384 -0.7629 -0.3651  0.6230
 3745TIP3   OH232725   5.647   3.263  15.742 -0.1365 -0.1067  0.1765
 3745TIP3    H132726   5.554   3.265  15.719 -0.4222 -0.4157  1.2696
 3745TIP3    H232727   5.648   3.268  15.838  0.9241 -1.3603  0.2448
 3746TIP3   OH232728   4.756   4.533  11.363  0.5666  0.0437  0.1075
 3746TIP3    H132729   4.814   4.584  11.420  1.5561 -0.5994 -0.3279
 3746TIP3    H232730   4.738   4.453  11.412 -1.2875  0.9311  0.9522
 3747TIP3   OH232731   6.092   0.767   5.723 -0.4538 -0.8309 -0.0695
 3747TIP3    H132732   6.181   0.735   5.707 -1.0429 -2.8504  0.5566
 3747TIP3    H232733   6.087   0.849   5.675  1.6318 -0.8855 -0.4311
 3748TIP3   OH232734   0.464   2.785   5.682 -0.2125 -1.1201  0.3703
 3748TIP3    H132735   0.550   2.745   5.668 -0.1241 -1.0817  0.7798
 3748TIP3    H232736   0.472   2.874   5.648 -0.3637 -1.4076 -0.4112
 3749TIP3   OH232737   1.665   2.829  15.552  0.3895 -0.0090 -0.3353
 3749TIP3    H132738   1.694   2.909  15.508  0.5788  0.0719 -0.0623
 3749TIP3    H232739   1.659   2.764  15.481 -2.1369  0.8640 -0.9743
 3750TIP3   OH232740   1.214   0.404   4.251  0.0091 -0.9020 -0.0982
 3750TIP3    H132741   1.159   0.432   4.324 -0.3759 -0.6711 -0.4745
 3750TIP3    H232742   1.191   0.464   4.180 -0.0365 -1.4887 -0.5823
 3751TIP3   OH232743   0.251   2.263   1.378  0.0850 -0.4916  0.7514
 3751TIP3    H132744   0.276   2.171   1.372 -1.4098 -0.8827  0.2035
 3751TIP3    H232745   0.161   2.266   1.345  0.1200  1.1719  0.7320
 3752TIP3   OH232746   6.453   6.247   0.691  0.1619 -0.2113  0.2393
 3752TIP3    H132747   6.533   6.298   0.675 -0.9894  1.2168 -1.1105
 3752TIP3    H232748   6.473   6.160   0.659  1.3904 -0.0089  0.4419
 3753TIP3   OH232749   1.879   5.491   0.790 -0.3003  0.2035 -0.0820
 3753TIP3    H132750   1.932   5.563   0.756 -2.5848  1.4594 -1.1139
 3753TIP3    H232751   1.843   5.449   0.712 -2.4755  0.6748  0.6419
 3754TIP3   OH232752   1.981   5.924  15.154  0.0186 -0.1680 -0.4698
 3754TIP3    H132753   1.987   5.971  15.071 -0.6905 -0.5247 -0.7223
 3754TIP3    H232754   1.936   5.985  15.213  1.6771  0.6010  0.0389
 3755TIP3   OH232755   0.735   6.479  16.714  0.1331  0.0881  0.0381
 3755TIP3    H132756   0.769   6.390  16.719 -1.0493 -0.2992  1.9685
 3755TIP3    H232757   0.786   6.521  16.645  2.7023 -1.2095  1.0792
 3756TIP3   OH232758   1.527   5.727  15.858 -0.1919 -0.1183  0.0973
 3756TIP3    H132759   1.546   5.715  15.951  1.3748  1.1278 -0.0372
 3756TIP3    H232760   1.517   5.638  15.823  1.4964 -0.6859  1.0103
 3757TIP3   OH232761   3.323   3.402   2.850  0.3634 -0.0228 -0.5641
 3757TIP3    H132762   3.265   3.416   2.776  0.6985 -3.2709 -1.5089
 3757TIP3    H232763   3.265   3.377   2.922  0.3684 -0.4451 -0.7108
 3758TIP3   OH232764   5.234   4.583   3.464 -0.3933  0.2839  0.4934
 3758TIP3    H132765   5.142   4.564   3.477 -0.5525  0.8450  0.1933
 3758TIP3    H232766   5.280   4.523   3.523 -0.9376 -0.1424  0.4809
 3759TIP3   OH232767   2.591   1.510  10.903 -0.1069  0.0069 -0.5842
 3759TIP3    H132768   2.528   1.563  10.854 -1.5284 -0.3143  0.8416
 3759TIP3    H232769   2.628   1.451  10.838 -1.3115  0.1815 -1.4589
 3760TIP3   OH232770   0.644   2.966   1.738 -0.0866  0.0936 -0.2926
 3760TIP3    H132771   0.558   2.953   1.779 -0.2536  2.3858  0.1816
 3760TIP3    H232772   0.651   2.895   1.674 -2.0142 -0.5739  0.1847
 3761TIP3   OH232773   4.731   2.434  15.118 -0.1234 -0.0985  0.2066
 3761TIP3    H132774   4.766   2.380  15.047 -1.0968 -0.6188  0.1116
 3761TIP3    H232775   4.681   2.373  15.172  1.1629  0.1683  1.7173
 3762TIP3   OH232776   0.042   4.292  11.436 -0.3380  0.2750  0.3632
 3762TIP3    H132777   0.075   4.212  11.478  0.6473 -0.1164 -1.1114
 3762TIP3    H232778  -0.036   4.315  11.487  1.3054  0.3400  2.9664
 3763TIP3   OH232779   3.963   2.602  14.213 -0.8703  0.0824  0.3949
 3763TIP3    H132780   4.026   2.582  14.282  0.7444  0.3699 -0.9621
 3763TIP3    H232781   3.891   2.540  14.226 -0.5607  0.1087  2.2835
 3764TIP3   OH232782   0.159   4.309  14.960  0.5200 -0.0139  0.0067
 3764TIP3    H132783   0.114   4.240  14.911  0.6281  0.5431 -0.8951
 3764TIP3    H232784   0.243   4.319  14.915  1.1985 -0.4315  1.1356
 3765TIP3   OH232785   6.507   6.572  11.006  0.6047  0.1554  0.0741
 3765TIP3    H132786   6.548   6.561  10.920 -0.1268 -0.0725 -0.2452
 3765TIP3    H232787   6.422   6.528  10.998 -0.2885  1.8265  0.3116
 3766TIP3   OH232788   0.774   5.583  11.410 -0.6581 -0.1786 -0.2070
 3766TIP3    H132789   0.811   5.508  11.459 -0.6675  0.0442  0.1443
 3766TIP3    H232790   0.832   5.656  11.431 -0.1408 -0.2797 -1.2416
 3767TIP3   OH232791   3.838   1.181  12.774 -0.6191 -0.3420  0.0917
 3767TIP3    H132792   3.768   1.168  12.838 -0.2700  1.1725  0.8143
 3767TIP3    H232793   3.801   1.154  12.691 -1.3150 -1.6759  0.8231
 3768TIP3   OH232794   1.041   4.103   3.134 -0.5512  0.2973  0.9899
 3768TIP3    H132795   1.115   4.148   3.095 -2.8227  2.1010 -1.4388
 3768TIP3    H232796   1.022   4.031   3.074 -1.4461  0.5262  0.9813
 3769TIP3   OH232797   5.204   0.077   0.854 -0.3349 -0.0244  0.2859
 3769TIP3    H132798   5.188   0.171   0.861 -0.1227  0.0167  0.2301
 3769TIP3    H232799   5.186   0.057   0.762  0.8712  0.2044 -0.0106
 3770TIP3   OH232800   3.063   3.265  14.389 -0.3388 -0.1070 -0.8102
 3770TIP3    H132801   2.998   3.201  14.418  1.5795 -1.1745  1.2222
 3770TIP3    H232802   3.148   3.222  14.403  0.8545  1.2873 -3.3339
 3771TIP3   OH232803   5.332   5.591  14.738  0.2806  0.2095  0.4694
 3771TIP3    H132804   5.400   5.630  14.792  0.3223  1.6152 -0.5793
 3771TIP3    H232805   5.254   5.645  14.755  0.1999  0.4293 -0.5753
 3772TIP3   OH232806   3.951   2.282  16.016  0.2485  0.2781 -0.2514
 3772TIP3    H132807   3.868   2.246  15.985 -0.2378  0.6826  0.5802
 3772TIP3    H232808   3.934   2.376  16.025  0.6075  0.2663  0.5388
 3773TIP3   OH232809   0.868   5.745   1.272  0.2334 -0.0995  0.4519
 3773TIP3    H132810   0.958   5.715   1.259  0.7942  1.0854  1.4612
 3773TIP3    H232811   0.874   5.805   1.347 -1.1139  1.2710 -0.5159
 3774TIP3   OH232812   6.007   2.009   6.088 -0.0149 -0.4280  0.5343
 3774TIP3    H132813   5.950   1.932   6.099  0.6356 -0.8859  0.7851
 3774TIP3    H232814   6.010   2.049   6.175 -0.3534 -0.1191  0.4030
 3775TIP3   OH232815   1.980   1.248   5.930  0.0009 -0.0690  0.0646
 3775TIP3    H132816   1.996   1.227   6.022 -2.7174 -0.8620  0.4078
 3775TIP3    H232817   1.935   1.170   5.896 -1.4827  1.3185 -1.1915
 3776TIP3   OH232818   3.961   3.059   3.227 -0.5923 -0.0618 -0.5581
 3776TIP3    H132819   3.948   3.014   3.310 -0.5878  0.1973 -0.4158
 3776TIP3    H232820   3.927   3.147   3.242 -0.5817 -0.0111 -0.8267
 3777TIP3   OH232821   1.870   3.524  14.449  0.4531 -0.3971 -0.3899
 3777TIP3    H132822   1.821   3.446  14.476 -1.5193  0.3102 -1.8008
 3777TIP3    H232823   1.958   3.492  14.430 -0.1106 -2.1435 -0.1280
 3778TIP3   OH232824   1.125   1.094   6.790  0.3499  0.0979 -0.1567
 3778TIP3    H132825   1.093   1.181   6.814  0.7268  0.1409  0.1989
 3778TIP3    H232826   1.191   1.111   6.722  1.3277  0.1885  0.7992
 3779TIP3   OH232827   1.368   5.568  11.619  0.6391 -0.1192 -0.4488
 3779TIP3    H132828   1.275   5.588  11.618  0.5510 -0.5209 -0.4124
 3779TIP3    H232829   1.380   5.512  11.696  0.9072 -0.0831 -0.4630
 3780TIP3   OH232830   1.203   6.341   1.210  0.0665 -0.0489 -0.0436
 3780TIP3    H132831   1.140   6.278   1.174 -0.4328  1.3992 -1.7892
 3780TIP3    H232832   1.159   6.425   1.204  1.1973  0.6397  1.1429
 3781TIP3   OH232833   0.332   3.581   3.265 -0.5064 -0.2454  0.2292
 3781TIP3    H132834   0.280   3.512   3.223  1.4806 -1.7496  0.1446
 3781TIP3    H232835   0.381   3.620   3.193  1.1850 -1.2897  0.7889
 3782TIP3   OH232836   2.811   0.043  11.140 -0.0359  0.5632 -0.0954
 3782TIP3    H132837   2.826   0.123  11.090  1.2834  0.4258  0.0473
 3782TIP3    H232838   2.808   0.071  11.231  3.0885  0.1743  0.1931
 3783TIP3   OH232839   6.553   3.935   0.819  0.0531  0.1567 -0.0789
 3783TIP3    H132840   6.619   3.998   0.849 -1.1346  1.0718  0.6590
 3783TIP3    H232841   6.559   3.938   0.723  0.5237  0.8275 -0.0355
 3784TIP3   OH232842   4.673   6.777   4.774  0.3908 -0.0506  0.9695
 3784TIP3    H132843   4.762   6.747   4.795  1.3481  1.4911 -0.7268
 3784TIP3    H232844   4.624   6.766   4.855  2.3233 -0.2477  2.1420
 3785TIP3   OH232845   2.867   3.272  11.787  0.0917  0.1592  0.6237
 3785TIP3    H132846   2.905   3.251  11.872  1.0960 -2.4348 -0.4441
 3785TIP3    H232847   2.934   3.325  11.743  1.2516 -1.8754 -0.0887
 3786TIP3   OH232848   4.430   1.794  16.601  0.2409  0.0866 -0.5082
 3786TIP3    H132849   4.419   1.834  16.515 -0.7889 -0.5264 -0.6555
 3786TIP3    H232850   4.456   1.704  16.583  0.1403 -0.0095 -0.1795
 3787TIP3   OH232851   3.936   1.595   4.361  0.0558  0.1949  0.2482
 3787TIP3    H132852   4.011   1.638   4.318  0.9290  0.0985  1.6324
 3787TIP3    H232853   3.899   1.539   4.293  2.4034 -1.2029  0.0677
 3788TIP3   OH232854   3.868   1.597   3.276  0.1910  0.4013 -0.2311
 3788TIP3    H132855   3.809   1.618   3.204  1.7348 -1.5564 -2.1459
 3788TIP3    H232856   3.850   1.506   3.297 -0.1206  0.9016  1.7747
 3789TIP3   OH232857   6.293   6.408   4.538  0.4181 -0.0658  0.5101
 3789TIP3    H132858   6.308   6.336   4.477  1.4331 -0.5343  1.3042
 3789TIP3    H232859   6.206   6.391   4.575 -0.0587  0.0396 -0.5482
 3790TIP3   OH232860   6.725   5.307  14.062 -0.7539  0.6236  0.1927
 3790TIP3    H132861   6.817   5.279  14.057 -0.9204 -0.1616  1.3346
 3790TIP3    H232862   6.729   5.401  14.077 -0.1034  0.2978  2.1814
 3791TIP3   OH232863   3.330   5.761  13.816  0.2177  0.2062 -0.4986
 3791TIP3    H132864   3.288   5.677  13.831  0.8503  0.4268  2.7942
 3791TIP3    H232865   3.410   5.758  13.868  0.9703  2.2978 -1.4764
 3792TIP3   OH232866   2.914   0.013  13.258  0.2672  0.9180  0.0764
 3792TIP3    H132867   2.859  -0.048  13.307 -0.5571 -0.0449 -1.9623
 3792TIP3    H232868   3.000  -0.029  13.256  0.0567  0.4863 -0.1075
 3793TIP3   OH232869   6.435   4.388  14.054  0.0408 -0.3646 -0.3946
 3793TIP3    H132870   6.492   4.443  14.108  1.7497 -2.5602  0.0648
 3793TIP3    H232871   6.350   4.434  14.055  0.7035  0.8768  2.1227
 3794TIP3   OH232872   4.183   2.793   3.285 -0.5257 -0.5683  0.0953
 3794TIP3    H132873   4.231   2.869   3.318 -0.5190 -1.1475  1.4642
 3794TIP3    H232874   4.096   2.801   3.324 -0.8164 -0.7565 -0.5147
 3795TIP3   OH232875   2.076   4.850   4.558  0.2481 -0.3370 -0.2187
 3795TIP3    H132876   2.053   4.937   4.527 -0.0160 -0.1707  0.4387
 3795TIP3    H232877   2.168   4.857   4.583  0.1372 -0.1622  0.1384
 3796TIP3   OH232878   1.891   2.912   5.263 -0.1893 -0.5081 -0.6540
 3796TIP3    H132879   1.983   2.926   5.241 -0.0729  0.3566  0.3026
 3796TIP3    H232880   1.848   2.994   5.239 -0.6836 -0.8644 -0.9848
 3797TIP3   OH232881   6.583   2.734  13.737  0.6346 -0.3174  0.5088
 3797TIP3    H132882   6.556   2.818  13.773  1.3556 -0.6599  1.8710
 3797TIP3    H232883   6.635   2.756  13.660 -2.1374  0.3828 -1.2200
 3798TIP3   OH232884   4.481   5.183   1.580 -0.5395 -0.2013  0.0734
 3798TIP3    H132885   4.474   5.245   1.507 -1.6748 -1.2164 -0.7013
 3798TIP3    H232886   4.414   5.212   1.642 -1.9242 -1.3500 -0.8438
 3799TIP3   OH232887   4.336   6.561  14.238 -0.4493 -0.6602  0.2383
 3799TIP3    H132888   4.333   6.583  14.331 -0.7672  0.3175 -0.0018
 3799TIP3    H232889   4.253   6.514  14.222 -1.5297  1.3195 -0.0853
 3800TIP3   OH232890   1.560   6.220  12.261 -0.3809  0.7934 -0.6753
 3800TIP3    H132891   1.586   6.302  12.303 -0.9093  0.4505  0.3633
 3800TIP3    H232892   1.475   6.239  12.222 -1.2620  0.3354  0.9334
 3801TIP3   OH232893   6.259   0.915   3.143  0.0573  0.4799  0.6118
 3801TIP3    H132894   6.218   0.907   3.229  1.7455  0.5553  1.4454
 3801TIP3    H232895   6.241   0.831   3.100  0.5554 -0.1583  1.6408
 3802TIP3   OH232896   5.260   4.800   0.068 -0.6455  0.3367  0.0716
 3802TIP3    H132897   5.250   4.869   0.002 -0.1120  1.6854  1.3717
 3802TIP3    H232898   5.186   4.813   0.127 -0.0488  0.3227  0.8126
 3803TIP3   OH232899   1.470   5.285   2.872 -0.7678  0.6260  0.0649
 3803TIP3    H132900   1.450   5.305   2.781  1.0368  0.4438 -0.3948
 3803TIP3    H232901   1.503   5.368   2.908 -2.5075  0.9940  0.8781
 3804TIP3   OH232902   2.649   4.113   0.557  0.3730 -0.1946 -0.3353
 3804TIP3    H132903   2.725   4.133   0.504  0.7537  1.2641  0.7326
 3804TIP3    H232904   2.685   4.085   0.642 -0.2614 -0.6860 -0.2170
 3805TIP3   OH232905   5.869   0.437   2.900 -0.0618  0.6757 -0.6165
 3805TIP3    H132906   5.824   0.358   2.931 -0.1936  0.9974  0.0138
 3805TIP3    H232907   5.920   0.466   2.975 -0.1958  1.3288 -0.7789
 3806TIP3   OH232908   1.508   0.869  13.769 -0.0007 -0.2076 -0.2311
 3806TIP3    H132909   1.595   0.900  13.744  0.0891  0.2441  0.6142
 3806TIP3    H232910   1.508   0.776  13.750  0.9176 -0.3476  0.4448
 3807TIP3   OH232911   0.629   2.705  15.931 -0.1839 -0.3431  0.2260
 3807TIP3    H132912   0.696   2.691  15.864 -0.1112  3.2159 -0.5410
 3807TIP3    H232913   0.546   2.697  15.884 -0.1965 -0.3165  0.2444
 3808TIP3   OH232914   0.099   6.806  13.906 -0.4237 -0.4304  0.1221
 3808TIP3    H132915   0.183   6.765  13.928 -0.7355 -0.7312  0.7650
 3808TIP3    H232916   0.116   6.851  13.823  1.4991  2.8683  2.2076
 3809TIP3   OH232917   5.302   1.843  15.027 -0.4531  0.5386 -0.6094
 3809TIP3    H132918   5.322   1.929  14.989  0.4239  0.7152  0.2273
 3809TIP3    H232919   5.285   1.787  14.952  2.9910  0.4254 -1.3871
 3810TIP3   OH232920   1.827   0.623  12.085  0.0633  0.0039 -0.0660
 3810TIP3    H132921   1.859   0.680  12.016  1.3897 -1.2523 -0.5215
 3810TIP3    H232922   1.802   0.542  12.041  0.9243 -0.8144  0.8862
 3811TIP3   OH232923   0.157   5.565  12.465  0.4627 -0.1146  0.0083
 3811TIP3    H132924   0.171   5.623  12.390  0.6504  1.3413  1.1299
 3811TIP3    H232925   0.190   5.615  12.540 -0.4649 -1.2107  1.1704
 3812TIP3   OH232926   4.974   2.853  15.631 -0.2833 -0.6203 -0.3011
 3812TIP3    H132927   4.923   2.894  15.561 -0.3916  0.8587  0.6228
 3812TIP3    H232928   4.914   2.792  15.672 -1.4739  1.4408  1.0701
 3813TIP3   OH232929   4.393   3.344  11.034 -0.0615 -0.1050 -0.3912
 3813TIP3    H132930   4.426   3.291  10.962  0.6342  0.0558 -0.1920
 3813TIP3    H232931   4.436   3.308  11.112  0.8513  1.1195 -0.3277
 3814TIP3   OH232932   3.026   5.031  13.321  0.1459 -0.2062 -0.2255
 3814TIP3    H132933   3.042   4.937  13.327 -1.5151 -0.5591 -0.9920
 3814TIP3    H232934   2.959   5.048  13.387  1.1601  0.6324  0.6037
 3815TIP3   OH232935   5.809   3.853  12.486 -0.5389 -0.0658 -0.1004
 3815TIP3    H132936   5.846   3.861  12.398 -1.8780  1.2294 -0.5535
 3815TIP3    H232937   5.886   3.852  12.544  0.3000  0.2399 -1.1907
 3816TIP3   OH232938   6.592   6.354   4.905  0.4660  0.6294 -0.1804
 3816TIP3    H132939   6.533   6.325   4.836 -0.0888 -1.7895  1.2684
 3816TIP3    H232940   6.556   6.437   4.935 -1.5884 -0.2790 -0.0805
 3817TIP3   OH232941   3.482   5.393   3.828  0.4163  0.1708 -0.1176
 3817TIP3    H132942   3.567   5.413   3.789  1.7301 -0.9015  2.1284
 3817TIP3    H232943   3.446   5.478   3.852  1.9174  0.4708  1.0876
 3818TIP3   OH232944   1.918   4.420   0.616  0.5472 -0.1218  0.5973
 3818TIP3    H132945   1.996   4.370   0.638  0.4785  0.0323  1.2056
 3818TIP3    H232946   1.931   4.505   0.659  0.3737  0.1515  0.1087
 3819TIP3   OH232947   6.623   6.191   4.299  0.1434  0.2564  0.3221
 3819TIP3    H132948   6.579   6.108   4.280  0.8869 -0.0033 -0.2593
 3819TIP3    H232949   6.586   6.218   4.383  0.3586 -0.9745  0.8262
 3820TIP3   OH232950   2.859   1.330  12.979 -0.2117 -0.2723  0.1678
 3820TIP3    H132951   2.922   1.365  13.043 -0.2766  2.4321 -1.1421
 3820TIP3    H232952   2.782   1.386  12.988 -0.3266 -0.0058 -2.0242
 3821TIP3   OH232953   1.488   4.763  12.986  0.3069 -0.1422  0.1439
 3821TIP3    H132954   1.582   4.781  12.980 -0.2880  3.3958  0.0614
 3821TIP3    H232955   1.466   4.782  13.077 -0.3830 -0.6487  0.0836
 3822TIP3   OH232956   2.486   0.377  12.792  0.1699  0.1000 -0.4882
 3822TIP3    H132957   2.559   0.333  12.835 -0.3932 -0.8472 -0.4815
 3822TIP3    H232958   2.424   0.396  12.863  0.2212  0.5056 -0.5559
 3823TIP3   OH232959   1.241   0.045  15.942  0.3982  0.0229  0.2421
 3823TIP3    H132960   1.269   0.134  15.921 -0.8607  0.5398  0.7278
 3823TIP3    H232961   1.273   0.031  16.031  5.2377 -1.9646 -1.5998
 3824TIP3   OH232962   6.525   0.539  16.588  0.4401 -0.1735  0.1365
 3824TIP3    H132963   6.566   0.599  16.650 -0.7899  0.6160  0.1906
 3824TIP3    H232964   6.528   0.585  16.504  2.1519 -1.2619 -0.4240
 3825TIP3   OH232965   6.582   0.983   4.236 -0.1483 -0.2643 -0.2701
 3825TIP3    H132966   6.614   0.980   4.326  1.4257  1.0508 -0.7670
 3825TIP3    H232967   6.652   1.026   4.187 -1.1300 -0.6745 -2.0623
 3826TIP3   OH232968   6.045   6.393  13.868 -0.1772 -0.3745 -0.2355
 3826TIP3    H132969   6.014   6.303  13.855 -1.2622 -0.1358  0.6054
 3826TIP3    H232970   6.100   6.411  13.792  1.2235 -2.2546  0.3113
 3827TIP3   OH232971   6.370   0.004   3.284  0.2997 -0.7875  0.1991
 3827TIP3    H132972   6.440  -0.056   3.307  0.7200 -0.6949 -0.8251
 3827TIP3    H232973   6.412   0.090   3.278  0.0478 -0.6867 -0.1522
 3828TIP3   OH232974   5.295   3.458   5.703  0.5665  0.1531  0.0254
 3828TIP3    H132975   5.290   3.541   5.751 -0.5256 -0.6432  1.3375
 3828TIP3    H232976   5.388   3.435   5.703  0.7586  0.9134  0.4639
 3829TIP3   OH232977   6.521   4.590  16.142 -0.6348 -0.7668  0.2219
 3829TIP3    H132978   6.445   4.554  16.096 -0.8996  1.2095 -0.9515
 3829TIP3    H232979   6.546   4.521  16.204 -2.0606 -2.3082 -0.8557
 3830TIP3   OH232980   0.450   6.676   0.707 -0.3130 -0.0649  0.2753
 3830TIP3    H132981   0.375   6.618   0.698 -0.6318 -0.0255  2.3694
 3830TIP3    H232982   0.412   6.760   0.733  0.4549 -0.1557  1.7563
 3831TIP3   OH232983   6.662   5.899  13.788  0.1707 -0.8520 -0.2145
 3831TIP3    H132984   6.590   5.939  13.836 -0.3111  0.7745 -2.1988
 3831TIP3    H232985   6.741   5.940  13.823 -0.0371 -1.0166  0.4377
 3832TIP3   OH232986   3.984   2.937   5.979  0.3628 -0.0802 -0.8135
 3832TIP3    H132987   3.974   3.020   5.932 -0.2535  0.4164  0.1889
 3832TIP3    H232988   4.024   2.961   6.063 -0.9575 -0.6281 -0.0033
 3833TIP3   OH232989   1.278   6.812   3.780  0.0021  0.5379  0.1788
 3833TIP3    H132990   1.337   6.816   3.856 -1.3817 -0.5473  1.3348
 3833TIP3    H232991   1.334   6.779   3.709  0.5575 -1.6102  1.5451
 3834TIP3   OH232992   5.065   5.259   3.398  0.5423 -0.3294 -0.5513
 3834TIP3    H132993   5.123   5.184   3.408 -0.1021 -0.5358  1.9431
 3834TIP3    H232994   5.020   5.266   3.482 -2.5926  0.2026 -2.2085
 3835TIP3   OH232995   1.452   0.103  17.032  0.0898  0.0760 -0.2601
 3835TIP3    H132996   1.498   0.053  16.964 -0.4479 -0.9480  0.1128
 3835TIP3    H232997   1.522   0.130  17.092  0.2096 -1.7176  0.4608
 3836TIP3   OH232998   4.795   3.878  13.286 -0.1241 -0.2483 -0.2021
 3836TIP3    H132999   4.753   3.961  13.309  2.5192  0.8631  0.8850
 3836TIP3    H233000   4.834   3.848  13.367  0.7377 -1.4869 -1.0568
 3837TIP3   OH233001   5.945   1.367  13.942 -0.1817  0.1904 -0.2434
 3837TIP3    H133002   5.852   1.343  13.949 -0.1102 -0.0199 -0.0159
 3837TIP3    H233003   5.961   1.369  13.848 -0.0170 -1.3357 -0.2568
 3838TIP3   OH233004   6.176   0.069   1.250  0.1627  0.3620  0.1378
 3838TIP3    H133005   6.115   0.137   1.224  0.5421  1.2806  1.6054
 3838TIP3    H233006   6.136   0.029   1.327  0.2944 -0.5949 -0.2847
 3839TIP3   OH233007   5.057   5.853  13.945 -0.9278 -0.5656  0.1175
 3839TIP3    H133008   4.991   5.922  13.944 -0.7830 -0.4364 -0.3629
 3839TIP3    H233009   5.058   5.823  14.036 -0.7691  0.2808  0.4049
 3840TIP3   OH233010   3.293   2.006   1.410  0.0758  0.1434  0.1875
 3840TIP3    H133011   3.262   1.923   1.374 -0.7854  0.0611  1.1003
 3840TIP3    H233012   3.236   2.072   1.372  0.5037  0.2784 -0.2240
 3841TIP3   OH233013   0.470   4.060  15.960  0.1088  0.1709  0.2154
 3841TIP3    H133014   0.380   4.076  15.988  0.2225  1.3225 -0.0679
 3841TIP3    H233015   0.523   4.083  16.037  0.1075 -1.4154  0.7059
 3842TIP3   OH233016   1.250   1.848   0.051  0.0212  0.5430  0.2279
 3842TIP3    H133017   1.205   1.839  -0.033  0.0728 -0.9761  0.3460
 3842TIP3    H233018   1.343   1.843   0.030  0.1127  2.4123  0.1317
 3843TIP3   OH233019   0.309   6.474   2.650 -0.2144  0.3645 -0.0376
 3843TIP3    H133020   0.315   6.549   2.709 -1.2490  0.4525 -0.0314
 3843TIP3    H233021   0.326   6.510   2.563  0.1693  0.4467  0.0728
 3844TIP3   OH233022   5.971   0.980   1.360 -0.3071 -0.9040 -0.0134
 3844TIP3    H133023   6.004   1.061   1.398 -2.9326  0.3417 -0.2514
 3844TIP3    H233024   5.927   1.007   1.279 -0.5556 -2.6675 -0.5012
 3845TIP3   OH233025   2.378   0.757  15.328  0.4418 -1.1766 -0.6204
 3845TIP3    H133026   2.296   0.752  15.377  0.1147  0.3583 -0.9783
 3845TIP3    H233027   2.439   0.800  15.388  0.3564 -0.3219 -1.1372
 3846TIP3   OH233028   3.396   5.050  12.971  0.4193  0.2712  0.1493
 3846TIP3    H133029   3.404   5.129  13.025 -1.0880 -0.1743  1.0416
 3846TIP3    H233030   3.348   4.988  13.025 -0.3105 -0.5143 -1.3467
 3847TIP3   OH233031   5.948   1.946   3.513  0.3982  0.3259  0.6792
 3847TIP3    H133032   5.987   1.876   3.461  0.0347  1.4004 -1.0955
 3847TIP3    H233033   5.994   1.942   3.597  1.5748 -0.9393 -0.0022
 3848TIP3   OH233034   3.573   5.420  15.472 -0.6265  0.2599 -0.0944
 3848TIP3    H133035   3.600   5.503  15.511  0.4863  0.6606 -1.6753
 3848TIP3    H233036   3.588   5.431  15.378 -2.3913 -1.0068 -0.5618
 3849TIP3   OH233037   6.455   1.051  13.870 -0.0448 -0.4827 -0.2579
 3849TIP3    H133038   6.418   1.080  13.954  0.9123  0.1944 -0.0608
 3849TIP3    H233039   6.379   1.032  13.815 -0.7151  2.6979 -0.4845
 3850TIP3   OH233040   0.903   0.144  14.897  0.2965 -0.1658  0.2740
 3850TIP3    H133041   0.995   0.119  14.889 -0.5347 -3.2555 -0.1670
 3850TIP3    H233042   0.874   0.106  14.979 -0.9445 -0.3982 -0.2586
 3851TIP3   OH233043   6.282   5.568  11.768 -0.0025  0.6399 -0.3700
 3851TIP3    H133044   6.360   5.516  11.748 -1.2015 -0.7359 -1.6172
 3851TIP3    H233045   6.231   5.567  11.687 -3.1703 -1.7934  1.5019
 3852TIP3   OH233046   5.097   3.252   2.015  0.2874 -0.1618 -0.1745
 3852TIP3    H133047   5.008   3.271   1.985 -0.1225 -0.9312  0.5311
 3852TIP3    H233048   5.086   3.181   2.078  1.7420 -2.7642 -2.6873
 3853TIP3   OH233049   0.293   1.559  12.474 -0.8861 -0.0755 -0.3221
 3853TIP3    H133050   0.227   1.588  12.410 -1.6823 -2.7085 -0.7640
 3853TIP3    H233051   0.306   1.635  12.530 -3.6525  0.8198 -0.7723
 3854TIP3   OH233052   3.371   2.723   0.375 -0.2455 -0.0607  0.0326
 3854TIP3    H133053   3.361   2.742   0.468 -0.0472  1.1623 -0.1800
 3854TIP3    H233054   3.461   2.690   0.367 -0.1010  0.2909  0.2056
 3855TIP3   OH233055   1.596   5.693   3.825  0.0278  0.0582 -0.5461
 3855TIP3    H133056   1.688   5.673   3.805  0.3259  0.9643 -0.1158
 3855TIP3    H233057   1.555   5.607   3.839  1.1885 -0.2762  0.8956
 3856TIP3   OH233058   1.738   0.040   4.548 -0.0053 -0.2014 -0.1183
 3856TIP3    H133059   1.672  -0.019   4.514 -0.6588 -0.0779  0.9212
 3856TIP3    H233060   1.728   0.120   4.496  1.5858 -1.3209 -2.2556
 3857TIP3   OH233061   3.237   6.016  16.274  0.1522 -0.0939  0.2373
 3857TIP3    H133062   3.166   5.959  16.244  0.7522 -0.8642  0.2679
 3857TIP3    H233063   3.226   6.020  16.369 -1.8119  2.4309 -0.0600
 3858TIP3   OH233064   0.145   6.618  13.283  0.5807 -0.2514 -0.7465
 3858TIP3    H133065   0.052   6.597  13.285  0.9247 -1.7284  0.6305
 3858TIP3    H233066   0.179   6.569  13.208  0.6369 -1.5382  0.0911
 3859TIP3   OH233067   6.509   0.601  14.784  0.4056  0.7849  0.6467
 3859TIP3    H133068   6.500   0.573  14.875  0.0857  0.7203  0.5959
 3859TIP3    H233069   6.557   0.684  14.789  1.3704  0.2253  0.7930
 3860TIP3   OH233070   2.293   3.334  16.202 -0.4207  0.0656  0.0486
 3860TIP3    H133071   2.278   3.331  16.297  0.8457  2.6810  0.3826
 3860TIP3    H233072   2.388   3.334  16.193 -0.5347  0.1460 -1.2186
 3861TIP3   OH233073   0.814   3.559   3.191  0.4857 -0.2705 -0.2719
 3861TIP3    H133074   0.791   3.588   3.280  1.3007  0.0870 -0.1785
 3861TIP3    H233075   0.849   3.471   3.203 -0.9232 -0.8610 -0.4272
 3862TIP3   OH233076   1.400   0.841   3.613  0.6633 -0.4705  0.3725
 3862TIP3    H133077   1.324   0.819   3.559  0.8379  1.4183 -0.6820
 3862TIP3    H233078   1.365   0.857   3.700  0.1570 -1.7898  0.4305
 3863TIP3   OH233079   1.064   1.998   3.397  0.2414 -0.6420  0.5405
 3863TIP3    H133080   1.103   2.049   3.468 -0.0149 -0.6652  0.6964
 3863TIP3    H233081   0.997   1.944   3.439  0.0580 -0.6234  0.2761
 3864TIP3   OH233082   2.727   6.516  10.486 -0.2736 -0.4890 -0.2458
 3864TIP3    H133083   2.659   6.480  10.543 -1.8607  4.5296  1.3203
 3864TIP3    H233084   2.679   6.545  10.408  0.3837  1.0675 -0.0888
 3865TIP3   OH233085   4.998   0.682  16.345 -0.5166  0.0350  0.0676
 3865TIP3    H133086   4.926   0.744  16.336 -0.0073  0.6614  0.2510
 3865TIP3    H233087   5.033   0.697  16.433  0.4173  0.3702 -0.3518
 3866TIP3   OH233088   5.507   0.262  16.633  0.6228  0.2805  0.5099
 3866TIP3    H133089   5.521   0.357  16.639 -0.4489  0.5001 -0.2702
 3866TIP3    H233090   5.501   0.232  16.723 -1.5945  1.3747  0.7712
 3867TIP3   OH233091   3.205   1.859  12.242 -0.5581  0.1624  0.0788
 3867TIP3    H133092   3.167   1.838  12.328 -0.9443 -1.0673 -0.3732
 3867TIP3    H233093   3.286   1.807  12.239 -0.3965  0.4303 -0.1780
 3868TIP3   OH233094   0.648   5.001  13.041  0.4122 -0.3018  0.3227
 3868TIP3    H133095   0.710   5.039  12.978  0.4023  0.5593  0.8362
 3868TIP3    H233096   0.628   5.072  13.101  0.9828 -1.3087  1.7407
 3869TIP3   OH233097   1.791   1.631  12.086 -0.3609  0.6521 -0.0583
 3869TIP3    H133098   1.760   1.722  12.086 -2.8625 -0.1620  0.1394
 3869TIP3    H233099   1.722   1.582  12.131  1.1741 -1.2834  0.2495
 3870TIP3   OH233100   1.188   5.589   0.332  0.1641  0.1271 -0.2502
 3870TIP3    H133101   1.131   5.637   0.392  2.0508  1.1803  0.7386
 3870TIP3    H233102   1.151   5.605   0.245 -1.5573  0.0447  0.4589
 3871TIP3   OH233103   4.707   0.186   5.152 -0.1901  0.5735 -0.0928
 3871TIP3    H133104   4.773   0.241   5.196  1.2533 -0.6257 -0.7168
 3871TIP3    H233105   4.754   0.148   5.077 -2.2819  1.6660 -2.0348
 3872TIP3   OH233106   4.374   1.613  10.821  0.1488 -0.3696  0.7322
 3872TIP3    H133107   4.324   1.603  10.740 -0.0139 -1.3936  0.9527
 3872TIP3    H233108   4.465   1.603  10.794  0.1417  0.0527  0.5546
 3873TIP3   OH233109   5.261   1.626   1.097 -0.0235 -0.0351 -0.5145
 3873TIP3    H133110   5.263   1.660   1.186 -0.7070 -0.2935 -0.3978
 3873TIP3    H233111   5.202   1.684   1.049 -0.5606 -0.5717 -0.5124
 3874TIP3   OH233112   0.976   1.034  14.080 -0.1051 -0.2040 -0.3737
 3874TIP3    H133113   1.053   1.084  14.109  1.3711 -1.7777 -1.4849
 3874TIP3    H233114   0.927   1.017  14.161  0.9538  0.4012  0.4085
 3875TIP3   OH233115   6.220   4.907  14.918 -0.2273  0.0434 -0.0225
 3875TIP3    H133116   6.218   4.998  14.889  0.7942 -0.2436 -1.0343
 3875TIP3    H233117   6.218   4.912  15.013  0.0067  1.1386 -0.0674
 3876TIP3   OH233118   3.165   4.116  14.561  0.0742  0.0414  0.0277
 3876TIP3    H133119   3.213   4.192  14.528 -2.1195  1.3595 -0.2266
 3876TIP3    H233120   3.143   4.065  14.484  2.7279 -1.6501  0.3006
 3877TIP3   OH233121   1.279   6.348  14.364 -0.0826  0.3014 -0.4313
 3877TIP3    H133122   1.257   6.256  14.375 -0.5884  0.2687 -1.6027
 3877TIP3    H233123   1.219   6.379  14.296 -0.8511  1.8341  0.8981
 3878TIP3   OH233124   2.765   4.732   2.399 -0.3638 -0.5272  0.1754
 3878TIP3    H133125   2.673   4.744   2.420 -0.9224 -1.8959 -1.3731
 3878TIP3    H233126   2.791   4.814   2.357 -1.5043 -0.9659 -1.4405
 3879TIP3   OH233127   4.684   2.382   1.299 -0.0360 -0.1129 -0.1275
 3879TIP3    H133128   4.654   2.300   1.339  1.3302 -0.0822  0.9792
 3879TIP3    H233129   4.771   2.397   1.335 -0.6981  2.4137  0.5764
 3880TIP3   OH233130   3.545   5.098   5.541 -0.4622 -0.7445 -0.1806
 3880TIP3    H133131   3.635   5.123   5.560 -0.2244 -0.4942 -1.5572
 3880TIP3    H233132   3.532   5.015   5.586  0.0739 -0.1951  1.0021
 3881TIP3   OH233133   0.184   3.158   1.108  0.3108  0.1070  0.1533
 3881TIP3    H133134   0.195   3.129   1.017 -1.7753  1.7238 -0.6553
 3881TIP3    H233135   0.129   3.091   1.148  1.6522 -0.8785  0.4143
 3882TIP3   OH233136   3.895   6.268  12.581 -0.0076 -0.3237  0.1157
 3882TIP3    H133137   3.884   6.217  12.501 -1.2427 -1.1715  0.8062
 3882TIP3    H233138   3.868   6.357  12.557 -0.7569 -0.6611 -0.3061
 3883TIP3   OH233139   1.277   4.634  14.404  0.3111  0.2458  0.1358
 3883TIP3    H133140   1.234   4.677  14.330 -1.5258  0.3290  1.2216
 3883TIP3    H233141   1.297   4.546  14.373 -0.2428  0.3553 -0.5326
 3884TIP3   OH233142   2.278   2.312   0.647 -0.3272  0.0889 -0.0012
 3884TIP3    H133143   2.199   2.363   0.659 -0.1583  0.8363 -1.9057
 3884TIP3    H233144   2.328   2.360   0.581  2.5534  0.6077  2.4307
 3885TIP3   OH233145   6.590   5.219   5.948  0.4226  0.0138  0.3767
 3885TIP3    H133146   6.513   5.174   5.913  1.2463 -0.9427 -0.2463
 3885TIP3    H233147   6.555   5.281   6.012 -0.7278 -1.6430  1.4001
 3886TIP3   OH233148   2.254   4.923  17.064  0.2156  0.3189  0.5249
 3886TIP3    H133149   2.311   4.854  17.097  0.6156  1.6143  2.6465
 3886TIP3    H233150   2.166   4.893  17.082  0.3822  0.2691  1.2670
 3887TIP3   OH233151   2.289   1.638  10.843 -0.1129  0.3694  0.4180
 3887TIP3    H133152   2.245   1.592  10.771 -0.1523  0.8960  0.0998
 3887TIP3    H233153   2.296   1.728  10.812  0.7274  0.3980  0.6819
 3888TIP3   OH233154   6.770   2.121   2.531 -0.1060 -0.2964 -0.1848
 3888TIP3    H133155   6.707   2.168   2.476  0.9224  0.0191 -1.1179
 3888TIP3    H233156   6.844   2.104   2.473  1.1766  0.4064  1.2265
 3889TIP3   OH233157   1.819   6.731   6.556  0.3749  0.1694  0.6112
 3889TIP3    H133158   1.782   6.786   6.487  1.3261 -0.7348 -0.6327
 3889TIP3    H233159   1.744   6.688   6.596 -0.0392 -0.5622 -0.9458
 3890TIP3   OH233160   2.009   1.363   3.890  0.1498  0.2119  0.0023
 3890TIP3    H133161   1.990   1.344   3.982  0.8444 -0.4622  0.0090
 3890TIP3    H233162   2.105   1.368   3.886  0.1378 -0.1226 -0.7549
 3891TIP3   OH233163   3.480   1.095   3.699  0.4294 -0.3805  0.0351
 3891TIP3    H133164   3.414   1.139   3.752 -0.5805 -0.9108 -0.7648
 3891TIP3    H233165   3.560   1.101   3.751 -0.6097 -1.2179  1.8008
 3892TIP3   OH233166   3.521   4.863  13.453  0.1815  0.3037 -0.1286
 3892TIP3    H133167   3.566   4.876  13.537  1.1446  0.0791 -0.6062
 3892TIP3    H233168   3.430   4.886  13.471  0.5927  1.3390  0.7110
 3893TIP3   OH233169   4.195   1.756   0.736 -0.1472 -0.2631 -0.5754
 3893TIP3    H133170   4.242   1.788   0.659  0.1477  0.8213  0.0406
 3893TIP3    H233171   4.256   1.768   0.809 -0.1219 -2.0474 -0.2910
 3894TIP3   OH233172   1.163   5.916  12.121 -0.6405 -0.2306  0.6358
 3894TIP3    H133173   1.119   5.832  12.116  1.5149 -1.3153 -1.0303
 3894TIP3    H233174   1.182   5.929  12.214 -0.9762 -1.5629  0.8916
 3895TIP3   OH233175   5.766   1.962   5.361  0.0347 -0.0318 -0.4058
 3895TIP3    H133176   5.726   1.981   5.277 -2.3417  2.3137  1.1840
 3895TIP3    H233177   5.800   2.046   5.391  1.1052 -0.8882  0.8616
 3896TIP3   OH233178   3.549   2.591  13.079 -0.0261 -0.2354 -0.1578
 3896TIP3    H133179   3.494   2.513  13.076 -0.7288  0.3017 -2.6674
 3896TIP3    H233180   3.488   2.664  13.072  0.7632  0.4796  0.2797
 3897TIP3   OH233181   4.902   6.242   2.422  0.6771  0.1999 -0.0602
 3897TIP3    H133182   4.894   6.338   2.426  0.0232  0.0935  1.4326
 3897TIP3    H233183   4.854   6.211   2.498  1.3791 -1.3016 -0.2156
 3898TIP3   OH233184   3.838   1.884  11.597 -0.3402  0.4121  0.2677
 3898TIP3    H133185   3.816   1.944  11.667 -0.3008 -0.9494  1.4688
 3898TIP3    H233186   3.799   1.801  11.623  0.0109 -0.2057 -1.1268
 3899TIP3   OH233187   1.794   2.800   4.490  0.3783  0.2127 -0.1407
 3899TIP3    H133188   1.790   2.892   4.464 -0.2669  0.1555 -0.2588
 3899TIP3    H233189   1.772   2.752   4.411 -3.1332  0.0825  0.7987
 3900TIP3   OH233190   2.039   3.979  15.388 -1.0115 -0.2012 -0.2460
 3900TIP3    H133191   2.017   4.022  15.470 -3.1330 -0.7155 -0.5102
 3900TIP3    H233192   2.103   3.912  15.412 -1.8476 -0.5572  1.0401
 3901TIP3   OH233193   0.976   6.148   5.063  0.3954  0.0447 -0.4747
 3901TIP3    H133194   0.984   6.152   4.968  1.1124 -0.5539 -0.4378
 3901TIP3    H233195   1.045   6.088   5.091 -3.6604 -4.7999 -0.0933
 3902TIP3   OH233196   0.573   5.900  15.060 -0.2926  0.5803 -0.0382
 3902TIP3    H133197   0.554   5.808  15.042  0.9454  0.5808 -1.4524
 3902TIP3    H233198   0.489   5.944  15.055 -0.7043 -0.2703 -0.7103
 3903TIP3   OH233199   3.751   5.634  14.809 -0.0978 -0.5959 -0.2239
 3903TIP3    H133200   3.820   5.657  14.747 -0.0731  0.6885  0.2704
 3903TIP3    H233201   3.770   5.685  14.887 -0.3405 -1.9323  0.7336
 3904TIP3   OH233202   0.994   6.070  11.824  0.2981 -0.3213  0.8588
 3904TIP3    H133203   1.058   6.115  11.768 -1.1056  0.3056 -0.2549
 3904TIP3    H233204   0.956   6.003  11.768 -0.4596 -0.2909  1.3311
 3905TIP3   OH233205   4.144   0.953  12.581  0.0349  0.3340 -0.4692
 3905TIP3    H133206   4.233   0.986  12.590 -0.0068  0.2282  0.4195
 3905TIP3    H233207   4.088   1.031  12.586  0.0326  0.3124 -0.1375
 3906TIP3   OH233208   2.960   6.213  15.264  0.4181  0.2865 -0.7433
 3906TIP3    H133209   2.953   6.148  15.334 -1.7188  1.6681  0.3904
 3906TIP3    H233210   3.044   6.195  15.222  0.2538 -2.6412  0.0903
 3907TIP3   OH233211   2.992   1.064  14.885 -0.5069  0.1997 -0.2882
 3907TIP3    H133212   2.963   0.974  14.896 -0.9782  0.3686 -0.1671
 3907TIP3    H233213   3.070   1.071  14.941 -2.1697  0.7036  2.0300
 3908TIP3   OH233214   0.061   1.965   3.122 -0.1254  0.1517 -0.1071
 3908TIP3    H133215  -0.028   1.954   3.155  0.6756  2.0233  2.8939
 3908TIP3    H233216   0.067   1.905   3.048 -3.4684 -0.9295  0.4144
 3909TIP3   OH233217   0.732   4.636   0.227 -0.3062  0.0036  0.0393
 3909TIP3    H133218   0.681   4.556   0.225 -0.8594  0.3533  0.0655
 3909TIP3    H233219   0.687   4.696   0.168  0.6391 -0.0224 -0.7177
 3910TIP3   OH233220   3.894   6.644  17.013 -0.7338 -0.1707 -0.2731
 3910TIP3    H133221   3.964   6.653  16.949 -0.1679  2.6777  0.7035
 3910TIP3    H233222   3.818   6.618  16.961  0.7861 -2.3667 -1.4551
 3911TIP3   OH233223   4.177   1.609   1.219  0.1117 -0.2997 -0.1454
 3911TIP3    H133224   4.198   1.590   1.128  1.4123 -2.3333  0.5250
 3911TIP3    H233225   4.218   1.537   1.268  1.3728  1.9690  2.2324
 3912TIP3   OH233226   6.531   4.415   2.852 -0.3133  0.0982 -0.3925
 3912TIP3    H133227   6.470   4.392   2.922 -1.5355 -0.5534 -1.6320
 3912TIP3    H233228   6.617   4.419   2.894 -0.7201 -2.3353  0.7199
 3913TIP3   OH233229   2.015   0.733  11.298 -0.2242 -0.0906  0.0202
 3913TIP3    H133230   2.109   0.718  11.298 -0.1779  0.1560 -1.3997
 3913TIP3    H233231   1.984   0.691  11.218 -1.2375  0.4021  0.1418
 3914TIP3   OH233232   0.208   1.289   1.921 -0.0777  0.3912  0.1072
 3914TIP3    H133233   0.152   1.352   1.965 -0.7260 -0.8538  1.0933
 3914TIP3    H233234   0.205   1.314   1.828  0.6530  2.5322  0.6388
 3915TIP3   OH233235   0.688   6.410   3.877  0.2989 -0.2774 -0.0146
 3915TIP3    H133236   0.738   6.329   3.861  0.1170  0.2319 -3.6348
 3915TIP3    H233237   0.599   6.380   3.895  0.6641 -0.9497  0.7246
 3916TIP3   OH233238   2.712   2.900   3.326  0.4955  0.0107  0.1821
 3916TIP3    H133239   2.789   2.948   3.292 -1.7753  2.9429 -1.0581
 3916TIP3    H233240   2.699   2.936   3.414 -1.0358  1.5460 -0.6387
 3917TIP3   OH233241   4.948   6.388   2.893 -0.5332 -0.1582 -0.1514
 3917TIP3    H133242   4.921   6.438   2.969  1.4658 -0.5920  0.8765
 3917TIP3    H233243   5.022   6.437   2.856 -1.1270 -0.2365 -1.4910
 3918TIP3   OH233244   0.203   1.302  12.445 -0.3129  0.8078 -0.7918
 3918TIP3    H133245   0.117   1.299  12.486  0.9586 -0.7969  1.8923
 3918TIP3    H233246   0.232   1.393  12.455 -1.1131  1.0316 -0.5220
 3919TIP3   OH233247   3.531   6.669  15.275  0.2666  0.1220  0.3386
 3919TIP3    H133248   3.465   6.614  15.233 -0.5945  1.2494  0.2139
 3919TIP3    H233249   3.614   6.624  15.256 -0.4550 -1.3507  0.5879
 3920TIP3   OH233250   0.974   2.711   1.121 -0.2535 -0.2304 -0.6992
 3920TIP3    H133251   1.028   2.635   1.101  0.5557  0.6349 -1.8780
 3920TIP3    H233252   0.884   2.679   1.111  0.0257 -1.6170  1.0721
 3921TIP3   OH233253   6.577   1.671  16.243 -0.0510  0.8112  0.3480
 3921TIP3    H133254   6.668   1.650  16.225  0.3545  2.1781  0.7388
 3921TIP3    H233255   6.538   1.685  16.157 -0.0652 -0.4424  0.1433
 3922TIP3   OH233256   6.267   4.188   2.817 -0.1353  0.2202  0.2689
 3922TIP3    H133257   6.341   4.128   2.818 -0.4712 -0.2093  2.6467
 3922TIP3    H233258   6.297   4.264   2.866 -1.7356 -0.5943  2.6138
 3923TIP3   OH233259   1.708   0.181  16.022 -0.2131  0.2562 -0.8973
 3923TIP3    H133260   1.704   0.089  16.050 -2.1029  0.6744  0.2948
 3923TIP3    H233261   1.681   0.231  16.099  3.7293  2.0461 -0.5793
 3924TIP3   OH233262   1.291   6.480  17.198  0.6814 -0.3590  0.1165
 3924TIP3    H133263   1.219   6.444  17.146 -1.4064 -1.6784  3.6554
 3924TIP3    H233264   1.270   6.573  17.208 -1.3613 -0.9831  2.2058
 3925TIP3   OH233265   2.160   4.131   5.207 -0.2512 -0.0004 -0.2202
 3925TIP3    H133266   2.202   4.164   5.287 -0.2767 -0.0606 -0.1815
 3925TIP3    H233267   2.147   4.037   5.224 -0.0825 -0.0523 -0.3693
 3926TIP3   OH233268   1.739   3.840  15.464 -0.0669 -0.0059  0.1069
 3926TIP3    H133269   1.707   3.871  15.549 -2.2509 -1.0525 -0.3039
 3926TIP3    H233270   1.746   3.919  15.410  0.4998  0.5477  0.9706
 3927TIP3   OH233271   0.728   5.279   1.565 -0.5277  0.3371  0.6705
 3927TIP3    H133272   0.689   5.257   1.650  0.0039 -0.2093  0.7696
 3927TIP3    H233273   0.655   5.316   1.515 -1.0726 -0.2367  1.0277
 3928TIP3   OH233274   1.922   6.251  11.595  0.3583  0.0108  0.3785
 3928TIP3    H133275   1.983   6.195  11.644 -0.1703 -0.5804  0.3641
 3928TIP3    H233276   1.979   6.300  11.535  1.2844  2.4830  3.1833
 3929TIP3   OH233277   3.862   1.436  12.542 -0.2498 -0.1074  0.3938
 3929TIP3    H133278   3.922   1.462  12.612  0.1618  0.5665 -0.1959
 3929TIP3    H233279   3.775   1.454  12.577 -0.0581 -0.0156  0.8306
 3930TIP3   OH233280   3.621   1.424   1.387 -0.1699  0.5941  0.4026
 3930TIP3    H133281   3.715   1.412   1.377 -0.0106  0.2047  2.1769
 3930TIP3    H233282   3.582   1.374   1.315  0.9162 -1.1503  0.9941
 3931TIP3   OH233283   0.082   1.713   1.245 -0.5585 -0.0063  0.4684
 3931TIP3    H133284   0.057   1.746   1.331  2.7919 -0.5363  1.7180
 3931TIP3    H233285   0.064   1.785   1.185 -0.3037  1.3754  2.0346
 3932TIP3   OH233286   1.571   3.126   4.926 -0.5245  0.6094  0.1353
 3932TIP3    H133287   1.489   3.090   4.962  0.0863 -1.2039 -0.2258
 3932TIP3    H233288   1.545   3.210   4.888 -1.5080  1.8225  3.2800
 3933TIP3   OH233289   4.817   5.349  15.885 -0.0461  0.1588  0.5694
 3933TIP3    H133290   4.766   5.430  15.891  1.0559  0.8111  1.2996
 3933TIP3    H233291   4.752   5.282  15.863 -1.2795  0.8948  1.8690
 3934TIP3   OH233292   3.583   3.119   5.384  0.0445 -0.3670  0.3379
 3934TIP3    H133293   3.672   3.084   5.381 -0.3964 -1.5226  0.3207
 3934TIP3    H233294   3.531   3.048   5.423 -0.7796  0.4754  0.7977
 3935TIP3   OH233295   3.189   2.846   4.167 -0.6959 -0.1824 -0.2519
 3935TIP3    H133296   3.232   2.857   4.252 -2.7429 -0.5209  0.8875
 3935TIP3    H233297   3.118   2.910   4.168 -2.4817 -2.0998 -0.5038
 3936TIP3   OH233298   1.980   1.676   0.117 -0.3104  0.0707 -0.6205
 3936TIP3    H133299   1.945   1.645   0.201 -1.1985  0.9365 -0.6634
 3936TIP3    H233300   1.906   1.718   0.075  0.1347 -0.3796 -1.8612
 3937TIP3   OH233301   6.725   2.437  13.423  0.7021  0.1083 -0.2781
 3937TIP3    H133302   6.784   2.487  13.479  0.3197 -0.2418  0.4425
 3937TIP3    H233303   6.717   2.490  13.343  0.4933  1.0740  0.3801
 3938TIP3   OH233304   4.441   1.671   3.488 -0.4371 -0.6384  0.6311
 3938TIP3    H133305   4.493   1.678   3.568 -0.0584  1.0322  0.2496
 3938TIP3    H233306   4.428   1.577   3.476  2.2980 -1.0841  0.8848
 3939TIP3   OH233307   3.699   4.861   5.058 -0.3859  0.1299  0.2451
 3939TIP3    H133308   3.719   4.784   5.005  1.4186 -0.8831  2.3439
 3939TIP3    H233309   3.665   4.826   5.140 -1.3113  1.6290  0.5245
 3940TIP3   OH233310   1.877   0.942   5.108  0.2635 -0.5054  0.4311
 3940TIP3    H133311   1.898   0.890   5.031 -1.4903 -0.4507 -0.1075
 3940TIP3    H233312   1.891   1.033   5.081 -1.4948 -0.4025 -0.2445
 3941TIP3   OH233313   4.743   2.020   1.896 -0.3918 -0.1701  0.1450
 3941TIP3    H133314   4.803   1.974   1.955  0.6038  0.9622  0.0414
 3941TIP3    H233315   4.659   1.977   1.909  0.0602 -0.6530  1.5908
 3942TIP3   OH233316   2.930   4.521   5.055 -0.6303  1.1333  0.7704
 3942TIP3    H133317   2.967   4.460   5.118 -0.2539 -0.8562 -1.3259
 3942TIP3    H233318   2.858   4.562   5.102 -1.3061 -1.3930  2.0434
 3943TIP3   OH233319   0.416   1.764   4.559 -0.2439  0.1756  0.4901
 3943TIP3    H133320   0.475   1.689   4.555 -1.1841 -0.4829 -2.9197
 3943TIP3    H233321   0.466   1.836   4.519 -0.8920  0.1817 -0.3434
 3944TIP3   OH233322   2.545   1.467  15.798  0.2948 -0.3465  0.0227
 3944TIP3    H133323   2.530   1.494  15.888  1.1142  0.6582 -0.1256
 3944TIP3    H233324   2.461   1.480  15.754  0.1391  0.0527  0.4366
 3945TIP3   OH233325   4.255   1.414  11.094 -0.5007  0.5586 -0.2333
 3945TIP3    H133326   4.265   1.403  11.189 -4.0233  0.4940  0.2317
 3945TIP3    H233327   4.275   1.507  11.078  0.7690  0.4084  0.4513
 3946TIP3   OH233328   4.810   0.447  14.338  0.5379  0.6477  1.3376
 3946TIP3    H133329   4.760   0.366  14.346  0.3730  0.6938  0.8310
 3946TIP3    H233330   4.789   0.479  14.250  1.6612  0.5349  1.0262
 3947TIP3   OH233331   1.470   1.998  14.531  0.0667 -0.1840 -0.3530
 3947TIP3    H133332   1.378   2.024  14.527  0.2126  0.2935 -0.7017
 3947TIP3    H233333   1.468   1.909  14.566 -0.5272 -0.1709 -0.3392
 3948TIP3   OH233334   0.071   0.507   1.569 -0.2849  0.0266 -0.4455
 3948TIP3    H133335   0.156   0.466   1.556 -0.7326 -0.5435 -1.7415
 3948TIP3    H233336   0.012   0.433   1.586 -0.5223  0.4208  0.4888
 3949TIP3   OH233337   4.169   1.595   1.788  0.2741  0.1172 -0.1276
 3949TIP3    H133338   4.125   1.641   1.860  1.0078  0.3134  0.2042
 3949TIP3    H233339   4.130   1.632   1.709 -1.1749 -0.7302  0.1668
 3950TIP3   OH233340   5.440   2.021   2.648 -0.1491 -0.3906  0.4065
 3950TIP3    H133341   5.513   1.984   2.599 -1.0713  1.0927 -2.1567
 3950TIP3    H233342   5.368   1.960   2.634  0.2396 -1.2621  2.0171
 3951TIP3   OH233343   6.515   6.046  12.002  0.1579 -0.2240 -0.1469
 3951TIP3    H133344   6.488   6.131  11.967  3.2613 -0.2918 -2.9715
 3951TIP3    H233345   6.453   5.983  11.964  0.2141  0.3434 -1.1888
 3952TIP3   OH233346   2.790   0.843  14.931 -0.2845  0.5898 -0.2961
 3952TIP3    H133347   2.762   0.798  14.851  0.6136  1.1486 -0.9341
 3952TIP3    H233348   2.782   0.777  15.000  3.2850 -1.3470 -1.6029
 3953TIP3   OH233349   0.881   0.907   1.130  0.4546  0.0206  0.2802
 3953TIP3    H133350   0.878   0.813   1.114  2.0189 -0.2431  1.3870
 3953TIP3    H233351   0.918   0.943   1.049 -0.1542 -0.3082 -0.1504
 3954TIP3   OH233352   6.278   3.201  12.624 -0.3651 -0.0072 -0.1365
 3954TIP3    H133353   6.361   3.176  12.664 -0.0919  0.1944 -0.5663
 3954TIP3    H233354   6.276   3.297  12.628 -0.3179  0.0192 -0.6230
 3955TIP3   OH233355   5.349   2.194  10.498 -0.0491 -0.0061  0.4687
 3955TIP3    H133356   5.440   2.190  10.469  0.1522 -0.5421  1.1492
 3955TIP3    H233357   5.353   2.179  10.592 -1.0662 -3.0897  0.0871
 3956TIP3   OH233358   2.360   2.327  17.094 -0.7840  0.1974 -0.5551
 3956TIP3    H133359   2.311   2.253  17.058 -1.0866  0.3616 -0.4752
 3956TIP3    H233360   2.443   2.326  17.045 -1.1638  0.3789 -1.2090
 3957TIP3   OH233361   3.138   6.453  16.028 -0.0324 -0.1749  0.2517
 3957TIP3    H133362   3.177   6.447  16.115  0.2547  1.4084  0.2588
 3957TIP3    H233363   3.069   6.519  16.037 -0.3856 -0.4168 -0.5873
 3958TIP3   OH233364   1.838   0.785   6.307 -0.4158 -0.4811 -0.5237
 3958TIP3    H133365   1.914   0.826   6.349  1.1958 -4.2887  0.4173
 3958TIP3    H233366   1.770   0.787   6.374 -0.3510  0.5863 -0.4760
 3959TIP3   OH233367   6.412   0.655  16.321 -0.0613 -0.1623 -0.0685
 3959TIP3    H133368   6.334   0.710  16.325  1.3458  2.0336 -1.5077
 3959TIP3    H233369   6.484   0.716  16.338  1.3831 -1.9636  0.3078
 3960TIP3   OH233370   3.316   4.743  14.419  0.1457 -0.1291 -0.1867
 3960TIP3    H133371   3.223   4.766  14.420  0.2070  0.1046  0.9723
 3960TIP3    H233372   3.327   4.685  14.494  1.1479  0.7307  0.3585
 3961TIP3   OH233373   2.775   0.978   3.062  0.2272 -0.6264 -0.0895
 3961TIP3    H133374   2.839   0.917   3.097 -1.1719 -2.9113 -1.3604
 3961TIP3    H233375   2.761   0.949   2.972 -1.7222  0.5442 -0.1934
 3962TIP3   OH233376   6.069   2.202  17.264 -0.6097  0.6081 -0.4169
 3962TIP3    H133377   6.149   2.191  17.314  0.1489  0.6760 -1.6040
 3962TIP3    H233378   6.079   2.143  17.189 -2.3204 -0.5193  0.2164
 3963TIP3   OH233379   0.403   3.848   1.630 -0.3168 -0.2460 -0.1822
 3963TIP3    H133380   0.388   3.860   1.724  1.3892  0.3903  0.0185
 3963TIP3    H233381   0.426   3.935   1.598  0.3473 -0.7067 -0.9583
 3964TIP3   OH233382   5.769   4.075   1.927 -0.2781 -0.2218  0.1765
 3964TIP3    H133383   5.715   4.152   1.947 -0.5216  0.2571 -2.1837
 3964TIP3    H233384   5.851   4.111   1.895  0.3736 -0.9646  0.9863
 3965TIP3   OH233385   0.557   0.106  12.355  0.2270  0.0349 -0.5407
 3965TIP3    H133386   0.557   0.048  12.278  0.7507 -0.7353  0.0349
 3965TIP3    H233387   0.487   0.071  12.410  0.1656  0.3003 -0.4532
 3966TIP3   OH233388   4.834   3.878  12.193 -0.0275  0.1590  0.4923
 3966TIP3    H133389   4.911   3.827  12.218 -0.5277 -0.3052  1.0883
 3966TIP3    H233390   4.780   3.881  12.272  0.0756  1.7560  0.5176
 3967TIP3   OH233391   3.718   4.274  14.025 -0.3582  0.6737  0.1872
 3967TIP3    H133392   3.680   4.230  14.102  0.2231  0.0645  0.1326
 3967TIP3    H233393   3.797   4.224  14.005 -0.0926  1.2964 -0.3459
 3968TIP3   OH233394   1.894   3.808   3.608  0.2709  0.0631 -0.1204
 3968TIP3    H133395   1.920   3.898   3.591 -1.6169  0.6560  0.0208
 3968TIP3    H233396   1.882   3.769   3.522  0.1893  0.2173 -0.1785
 3969TIP3   OH233397   1.593   5.773   3.064  0.4277 -0.7641  0.0050
 3969TIP3    H133398   1.558   5.859   3.083 -0.9273 -1.5371  1.1065
 3969TIP3    H233399   1.688   5.785   3.061  0.3667  0.3858  2.0969
 3970TIP3   OH233400   2.389   5.456   2.818  0.3796  0.0896 -0.6114
 3970TIP3    H133401   2.457   5.515   2.849 -0.2867 -1.1211  3.4561
 3970TIP3    H233402   2.435   5.375   2.795  0.5280 -0.2637  0.8468
 3971TIP3   OH233403   4.259   2.265   0.476  0.8221  0.5187  0.0315
 3971TIP3    H133404   4.240   2.251   0.383 -0.1649 -0.0091  0.3100
 3971TIP3    H233405   4.209   2.342   0.500 -1.0217 -0.8747  0.7668
 3972TIP3   OH233406   1.774   0.975  16.037 -0.7504  0.4934 -0.6226
 3972TIP3    H133407   1.721   1.053  16.054  0.5059  0.8216  1.8893
 3972TIP3    H233408   1.819   0.958  16.119 -0.1178 -2.2239 -1.4880
 3973TIP3   OH233409   2.487   0.269  17.128 -0.4378  0.4120  0.4018
 3973TIP3    H133410   2.416   0.310  17.177  0.2557  1.4367  0.5691
 3973TIP3    H233411   2.444   0.225  17.055 -1.2655  0.8065  0.6484
 3974TIP3   OH233412   1.037   4.769  15.891  0.1711 -0.0103 -0.1112
 3974TIP3    H133413   1.028   4.705  15.962 -0.9422 -0.2275 -0.4299
 3974TIP3    H233414   1.091   4.839  15.928 -1.8462  0.7112  1.5567
 3975TIP3   OH233415   1.366   0.858  14.805 -0.1823  0.0306  0.1301
 3975TIP3    H133416   1.358   0.820  14.718 -1.6381  1.1471 -0.2501
 3975TIP3    H233417   1.376   0.783  14.863 -1.3225 -0.8612 -0.7873
 3976TIP3   OH233418   1.778   1.455   0.032  0.0157  0.1915 -0.3187
 3976TIP3    H133419   1.858   1.507   0.028  1.4886 -1.9008  0.8763
 3976TIP3    H233420   1.761   1.443   0.126 -2.5340  1.7906 -0.5107
 3977TIP3   OH233421   2.528   5.165  15.045  0.5284  0.0724 -0.6328
 3977TIP3    H133422   2.437   5.194  15.053  1.1507  2.8485 -2.9422
 3977TIP3    H233423   2.523   5.083  14.996 -0.7114  0.4942 -1.2354
 3978TIP3   OH233424   0.099   2.670   1.398 -0.4098  0.0911 -0.1193
 3978TIP3    H133425   0.155   2.664   1.475 -0.5186 -1.2468 -0.1357
 3978TIP3    H233426   0.150   2.628   1.328 -1.1947 -0.6097 -0.2695
 3979TIP3   OH233427   0.326   1.530  11.382  0.0371 -0.3155 -0.4121
 3979TIP3    H133428   0.398   1.497  11.329  1.6906  0.5810  1.2349
 3979TIP3    H233429   0.358   1.525  11.472 -1.1427  2.1579  0.1793
 3980TIP3   OH233430   3.158   6.135   5.581 -0.2656 -0.7185 -0.2031
 3980TIP3    H133431   3.145   6.051   5.625 -1.2386 -0.7267 -0.4886
 3980TIP3    H233432   3.083   6.143   5.522 -1.2257  1.2359  1.2223
 3981TIP3   OH233433   5.081   5.320  11.737 -0.4156 -0.0839 -0.1933
 3981TIP3    H133434   4.995   5.330  11.695  0.5810  0.7883 -2.0499
 3981TIP3    H233435   5.070   5.364  11.822 -1.0027  2.5261 -1.5633
 3982TIP3   OH233436   1.377   2.310  11.600 -0.3807  0.1778  0.3619
 3982TIP3    H133437   1.460   2.343  11.635  0.4329  0.1389 -1.4747
 3982TIP3    H233438   1.386   2.319  11.505 -2.7847  0.8648  0.1766
 3983TIP3   OH233439   5.890   3.635  15.161 -0.0192  0.2187 -0.1776
 3983TIP3    H133440   5.919   3.720  15.129  1.4897 -0.2599 -0.1059
 3983TIP3    H233441   5.795   3.646  15.174 -0.2473  1.1376 -2.4522
 3984TIP3   OH233442   3.882   2.968   2.344 -0.2095 -0.2997  0.2628
 3984TIP3    H133443   3.967   2.935   2.315  0.8254  2.3392  0.2346
 3984TIP3    H233444   3.822   2.895   2.326  2.0055 -2.2034  0.2693
 3985TIP3   OH233445   3.644   3.202   1.019 -0.1920  0.3133 -0.5687
 3985TIP3    H133446   3.592   3.228   1.095  1.0888 -2.1467  1.1858
 3985TIP3    H233447   3.732   3.187   1.053  0.8532  0.8948 -2.8763
 3986TIP3   OH233448   4.759   5.131   1.038 -0.4206 -0.2201  0.2472
 3986TIP3    H133449   4.722   5.129   1.126 -1.3807  0.3781 -0.1409
 3986TIP3    H233450   4.754   5.041   1.007  2.1259 -0.9050  1.7106
 3987TIP3   OH233451   0.843   5.529  14.723 -0.3551  0.0274 -0.4081
 3987TIP3    H133452   0.878   5.539  14.635  1.2668 -1.6865  0.0035
 3987TIP3    H233453   0.903   5.579  14.779 -3.4321  4.2241 -0.6089
 3988TIP3   OH233454   2.853   6.541   4.021 -0.1350  0.1284 -0.4022
 3988TIP3    H133455   2.881   6.586   3.941 -0.6758 -0.6005 -1.0109
 3988TIP3    H233456   2.767   6.577   4.040 -0.5116 -0.5453 -0.8168
 3989TIP3   OH233457   2.936   1.798   2.358 -0.0088  0.6117 -0.4213
 3989TIP3    H133458   2.989   1.870   2.323  0.9374  0.1593  0.0852
 3989TIP3    H233459   2.930   1.815   2.452 -2.1670  1.5707 -0.6861
 3990TIP3   OH233460   1.682   0.633  16.542 -0.3065  0.1122 -0.5523
 3990TIP3    H133461   1.626   0.638  16.464 -0.6624  0.1240 -0.3012
 3990TIP3    H233462   1.711   0.723  16.556  0.6109 -0.0637 -1.2782
 3991TIP3   OH233463   5.173   6.223   5.273 -0.1057  0.3583  0.3090
 3991TIP3    H133464   5.084   6.192   5.258 -0.4490  1.1322  0.6965
 3991TIP3    H233465   5.162   6.311   5.309  0.8219  0.9960 -0.8822
 3992TIP3   OH233466   4.661   3.695  11.541  0.5018  0.7341 -0.4335
 3992TIP3    H133467   4.575   3.728  11.515  0.4056  1.4284  0.7508
 3992TIP3    H233468   4.710   3.689  11.459 -0.6641  0.3520 -1.1130
 3993TIP3   OH233469   4.055   3.106  12.321  0.1507 -0.3166  0.1484
 3993TIP3    H133470   4.065   3.121  12.414 -1.8292  0.6049  0.2384
 3993TIP3    H233471   3.962   3.121  12.304  0.0650 -2.5245 -1.5984
 3994TIP3   OH233472   1.157   6.425  13.980  0.4922 -0.2106 -0.2969
 3994TIP3    H133473   1.155   6.397  13.888  2.0960 -0.6024 -0.2188
 3994TIP3    H233474   1.182   6.346  14.028  0.6194  0.2416  0.3806
 3995TIP3   OH233475   6.095   6.532   4.728  0.7381  0.0374  0.7017
 3995TIP3    H133476   6.095   6.437   4.732 -1.2556  0.0510  1.8029
 3995TIP3    H233477   6.147   6.559   4.804  2.9159 -0.1441 -0.6634
 3996TIP3   OH233478   6.655   6.369  16.107 -0.1083  0.4831  0.0307
 3996TIP3    H133479   6.658   6.317  16.026 -0.9791 -0.3385  0.5120
 3996TIP3    H233480   6.575   6.421  16.099  0.1034  0.8224  0.1125
 3997TIP3   OH233481   5.087   2.642  14.623 -0.8764 -0.0960 -1.1853
 3997TIP3    H133482   5.002   2.638  14.668 -0.5780 -0.8226 -0.6784
 3997TIP3    H233483   5.094   2.558  14.578  1.0080 -1.4085  1.4238
 3998TIP3   OH233484   5.142   0.658   0.622 -0.2370 -0.0202  0.1841
 3998TIP3    H133485   5.232   0.690   0.611  0.6281 -2.2436  0.5412
 3998TIP3    H233486   5.088   0.737   0.618  1.6895  1.3091 -0.4683
 3999TIP3   OH233487   4.564   0.601   1.907 -0.0818 -0.2583  0.2220
 3999TIP3    H133488   4.493   0.660   1.933  0.3154  0.5152 -0.4244
 3999TIP3    H233489   4.601   0.570   1.990 -1.1485 -0.6290  0.5612
 4000TIP3   OH233490   0.304   2.662  14.111 -0.1828  0.0217 -0.0713
 4000TIP3    H133491   0.298   2.712  14.192 -1.1404 -1.0105  0.5024
 4000TIP3    H233492   0.214   2.634  14.092 -0.2567  1.6685 -2.4048
 4001TIP3   OH233493   5.032   4.118   3.337 -0.0261 -0.3943 -0.3068
 4001TIP3    H133494   5.046   4.213   3.330  1.1088 -0.5485 -0.1627
 4001TIP3    H233495   5.070   4.082   3.257  1.3701 -0.9192  0.5766
 4002TIP3   OH233496   1.197   3.258  13.794  0.4268 -0.0561  0.0698
 4002TIP3    H133497   1.150   3.299  13.867  0.1063  0.4703 -0.4241
 4002TIP3    H233498   1.145   3.280  13.717  1.6867  0.8594 -0.5420
 4003TIP3   OH233499   6.332   3.032  14.164 -0.2280 -0.2972 -0.3290
 4003TIP3    H133500   6.407   3.026  14.105 -0.4941  0.0728 -0.7127
 4003TIP3    H233501   6.366   3.010  14.250  0.1363 -0.9970 -0.6498
 4004TIP3   OH233502   4.571   6.225   5.469  0.1208 -0.2309 -0.1661
 4004TIP3    H133503   4.512   6.190   5.536  0.9616  2.7900  2.2535
 4004TIP3    H233504   4.658   6.215   5.506  0.8489 -0.8388 -1.9647
 4005TIP3   OH233505   2.622   4.004  10.835  0.1963  0.1376  0.2105
 4005TIP3    H133506   2.575   3.922  10.844  0.2659  0.1307  0.5073
 4005TIP3    H233507   2.560   4.063  10.792  0.2220 -0.1347 -0.2067
 4006TIP3   OH233508   5.625   2.987  15.695  0.3962 -0.1185 -0.4192
 4006TIP3    H133509   5.714   2.956  15.684  0.3553 -0.3615 -0.0849
 4006TIP3    H233510   5.634   3.082  15.707  0.5848 -0.1059 -0.6612
 4007TIP3   OH233511   5.700   3.064   4.015  0.0544  0.1496 -0.0653
 4007TIP3    H133512   5.794   3.065   4.002  0.1679  0.5912  0.7391
 4007TIP3    H233513   5.685   2.996   4.080 -0.2686 -0.4830 -0.7924
 4008TIP3   OH233514   3.047   4.862  14.887  0.5813  0.1158 -0.0956
 4008TIP3    H133515   3.060   4.870  14.792 -0.6529 -0.1267 -0.3008
 4008TIP3    H233516   3.058   4.769  14.905 -2.4188 -0.4008 -0.5621
 4009TIP3   OH233517   1.393   1.862  16.865  0.3405 -0.4674 -0.4788
 4009TIP3    H133518   1.379   1.895  16.776 -2.4378 -1.5141 -0.4897
 4009TIP3    H233519   1.311   1.881  16.911  0.8602 -2.0496  1.1610
 4010TIP3   OH233520   2.282   4.952  10.978  0.0749  0.4160 -0.3680
 4010TIP3    H133521   2.242   4.891  11.039 -0.2322  2.1497  1.1985
 4010TIP3    H233522   2.220   4.959  10.906 -2.8500  3.4985  2.2871
 4011TIP3   OH233523   1.347   1.565  13.106  0.1837  0.5475  0.1066
 4011TIP3    H133524   1.343   1.621  13.183  0.7659 -0.6837  1.0529
 4011TIP3    H233525   1.434   1.579  13.070  0.8058 -0.6976  1.0904
 4012TIP3   OH233526   1.080   4.317  11.633  0.1226  0.6301  0.0547
 4012TIP3    H133527   0.987   4.337  11.645  0.0480  0.9674 -1.0258
 4012TIP3    H233528   1.090   4.306  11.538  1.4259  1.7922  0.0491
 4013TIP3   OH233529   3.012   5.252  16.420  0.5357 -0.1368  0.6521
 4013TIP3    H133530   3.101   5.219  16.431  0.7388  0.5049  0.9876
 4013TIP3    H233531   2.959   5.199  16.481  0.9091  0.3655  1.4217
 4014TIP3   OH233532   1.446   4.023   3.369  0.0588  0.1875  0.2172
 4014TIP3    H133533   1.353   4.022   3.346  0.4452  0.1102 -1.4342
 4014TIP3    H233534   1.457   3.951   3.431 -0.8948 -0.0843  0.0706
 4015TIP3   OH233535   4.862   1.964   0.375  0.9798  0.1069  0.2306
 4015TIP3    H133536   4.815   1.973   0.293  2.0912 -0.8234 -0.5277
 4015TIP3    H233537   4.890   2.053   0.397 -0.9234  0.6391  0.5925
 4016TIP3   OH233538   1.927   5.964   1.229 -0.0421 -0.1164  0.6509
 4016TIP3    H133539   1.889   6.041   1.185  1.2296  0.1130 -0.0678
 4016TIP3    H233540   1.873   5.891   1.201  0.1710  0.1798 -0.5436
 4017TIP3   OH233541   5.109   5.459  13.783  0.0021 -0.0673  0.2661
 4017TIP3    H133542   5.077   5.452  13.693  0.3721 -0.5958  0.1748
 4017TIP3    H233543   5.155   5.376  13.799  1.1056  0.5793  0.4874
 4018TIP3   OH233544   2.035   5.202   2.951 -0.1561 -0.0844 -0.1494
 4018TIP3    H133545   1.998   5.291   2.954 -2.3612 -0.9256 -0.7598
 4018TIP3    H233546   2.111   5.205   3.009 -0.9837  1.8516  0.8882
 4019TIP3   OH233547   6.646   1.226   1.682 -0.2889 -0.1265 -0.2055
 4019TIP3    H133548   6.630   1.275   1.601 -1.7405  0.4701  0.4195
 4019TIP3    H233549   6.706   1.156   1.656 -1.1391 -0.2666 -1.9128
 4020TIP3   OH233550   2.973   6.743   3.500  0.1274 -0.2586 -0.2522
 4020TIP3    H133551   2.952   6.821   3.449  1.1790  0.3782  0.2749
 4020TIP3    H233552   3.069   6.739   3.500  0.1730 -0.0323  1.9837
 4021TIP3   OH233553   0.244   0.459  12.123 -0.1306 -0.3121 -0.5298
 4021TIP3    H133554   0.317   0.490  12.069 -1.2817  0.5511 -1.6184
 4021TIP3    H233555   0.184   0.534  12.128 -1.6177 -1.4540 -0.8683
 4022TIP3   OH233556   2.308   6.043  14.822  0.0693  0.3419  0.7128
 4022TIP3    H133557   2.314   6.099  14.744  0.0355  0.8070  1.0466
 4022TIP3    H233558   2.394   6.050  14.863  0.4914 -0.8720  0.0531
 4023TIP3   OH233559   1.459   5.931   0.614 -0.0038  0.2524  0.5377
 4023TIP3    H133560   1.496   6.019   0.622  0.1234  0.2594 -0.0907
 4023TIP3    H233561   1.398   5.937   0.540  1.7781 -0.7688 -1.0488
 4024TIP3   OH233562   5.465   4.837  14.765  0.8793  0.3621  0.1317
 4024TIP3    H133563   5.410   4.832  14.844  0.5444  2.5699  0.0520
 4024TIP3    H233564   5.506   4.750  14.760  2.1504  0.6571  3.6261
 4025TIP3   OH233565   4.761   4.684  14.396 -0.3579  0.7391  0.2679
 4025TIP3    H133566   4.733   4.758  14.343 -1.0482  0.4913  0.2813
 4025TIP3    H233567   4.847   4.709  14.431  0.4483  0.5860 -1.5844
 4026TIP3   OH233568   1.126   4.475  13.998  0.6879  0.5459 -0.1327
 4026TIP3    H133569   1.122   4.381  13.984 -0.3277  0.4971  0.4384
 4026TIP3    H233570   1.061   4.492  14.066 -1.3342  2.0365 -2.3356
 4027TIP3   OH233571   4.631   1.768  12.650  0.2693 -0.1853 -0.5352
 4027TIP3    H133572   4.569   1.771  12.578  0.7471 -0.3390 -0.9530
 4027TIP3    H233573   4.658   1.859  12.662 -1.0808  0.0945  0.5686
 4028TIP3   OH233574   2.305   0.578   3.765  0.2394  0.2945 -0.2867
 4028TIP3    H133575   2.324   0.510   3.831  1.0089  1.1573  0.3889
 4028TIP3    H233576   2.235   0.630   3.805  0.7590  0.8633 -0.1146
 4029TIP3   OH233577   0.839   0.727   4.627 -0.1839  0.8378 -0.4130
 4029TIP3    H133578   0.828   0.732   4.722  0.0029 -2.0445 -0.1768
 4029TIP3    H233579   0.761   0.680   4.596 -0.1016  1.4895 -1.6723
 4030TIP3   OH233580   0.062   6.640  17.009  0.5953 -0.0140 -0.2351
 4030TIP3    H133581   0.008   6.712  16.976  0.0921 -0.4591 -0.3785
 4030TIP3    H233582   0.152   6.674  17.003  0.5048 -0.0330 -1.9510
 4031TIP3   OH233583   6.062   1.660   0.489  0.7847 -0.1474  0.2106
 4031TIP3    H133584   6.106   1.719   0.427 -1.0790  0.4448 -0.5809
 4031TIP3    H233585   5.976   1.700   0.502  0.7357 -0.8990  2.3074
 4032TIP3   OH233586   4.525   4.332   1.745  0.2923 -0.1844 -0.0094
 4032TIP3    H133587   4.434   4.363   1.744  0.1606 -0.5496  0.2948
 4032TIP3    H233588   4.519   4.245   1.784  0.7453 -0.3063 -0.2169
 4033TIP3   OH233589   4.897   2.063   5.449 -0.3182 -0.7876  0.4297
 4033TIP3    H133590   4.825   2.109   5.492 -0.4637 -2.5529  2.1502
 4033TIP3    H233591   4.946   2.131   5.404 -2.9272  0.4784 -0.5751
 4034TIP3   OH233592   5.002   0.452   3.140  0.1362 -0.0846  0.0769
 4034TIP3    H133593   5.093   0.441   3.167  0.1572  0.0269  0.0531
 4034TIP3    H233594   5.004   0.525   3.078  0.2376 -1.0473 -1.0416
 4035TIP3   OH233595   0.833   0.590  15.099  0.1093  0.1992 -0.3357
 4035TIP3    H133596   0.886   0.510  15.099  1.2932  0.9348  1.5134
 4035TIP3    H233597   0.743   0.560  15.111  0.4889 -0.9028 -0.2091
 4036TIP3   OH233598   6.758   0.977   4.493 -0.4535 -0.0443  0.2615
 4036TIP3    H133599   6.811   1.050   4.525 -1.3988  1.6590 -1.9366
 4036TIP3    H233600   6.762   0.912   4.563 -1.2709  2.9310  3.2037
 4037TIP3   OH233601   0.690   2.734  12.852  0.1733 -0.4927 -0.3975
 4037TIP3    H133602   0.732   2.813  12.820 -1.5066  0.4969 -0.1906
 4037TIP3    H233603   0.699   2.671  12.780  0.3298  0.2962 -1.0620
 4038TIP3   OH233604   6.140   0.200   0.536 -0.5955  0.1660  0.8732
 4038TIP3    H133605   6.156   0.105   0.532  0.7042  0.2796  2.7730
 4038TIP3    H233606   6.127   0.217   0.629  2.5541  2.3934  0.9716
 4039TIP3   OH233607   4.711   3.399   0.055 -0.1049  0.0185 -0.5295
 4039TIP3    H133608   4.652   3.400   0.130  0.1628 -1.2371 -0.2952
 4039TIP3    H233609   4.738   3.490   0.045 -0.2932  0.2245  0.7761
 4040TIP3   OH233610   6.791   1.143  12.042 -0.1530 -0.1071 -0.0660
 4040TIP3    H133611   6.848   1.203  11.993  0.5654  0.2550  1.2073
 4040TIP3    H233612   6.851   1.081  12.084 -0.8154 -0.9398 -0.3154
 4041TIP3   OH233613   4.725   2.369  16.340  0.2297  0.0117 -1.0305
 4041TIP3    H133614   4.782   2.307  16.295  0.7987 -0.6644  0.5912
 4041TIP3    H233615   4.749   2.454  16.303  1.6143 -0.3828 -1.0683
 4042TIP3   OH233616   0.899   0.544  12.935 -0.1991  0.1686 -0.2054
 4042TIP3    H133617   0.819   0.543  12.882  0.1350  0.3305 -0.7253
 4042TIP3    H233618   0.933   0.633  12.923 -0.9543  0.7102  1.5645
 4043TIP3   OH233619   0.699   1.216  13.245  0.7029 -0.6949  0.1886
 4043TIP3    H133620   0.625   1.155  13.237 -0.3665  0.8559 -2.0913
 4043TIP3    H233621   0.765   1.181  13.185 -0.2335  0.8259 -1.7523
 4044TIP3   OH233622   0.569   6.165   1.038 -0.2122 -0.0920 -0.2582
 4044TIP3    H133623   0.489   6.120   1.067 -0.7652  0.2276 -1.2264
 4044TIP3    H233624   0.551   6.257   1.052  0.3607 -0.0815  0.3996
 4045TIP3   OH233625   1.859   4.052  14.376 -0.0762  0.1065 -0.0929
 4045TIP3    H133626   1.881   3.972  14.423  2.1343  1.3397  1.0469
 4045TIP3    H233627   1.798   4.098  14.433  0.4358  0.2845  0.3214
 4046TIP3   OH233628   0.330   1.346   4.086  0.1766  0.3548  0.4436
 4046TIP3    H133629   0.319   1.427   4.137  1.3276  1.2448 -0.7181
 4046TIP3    H233630   0.419   1.349   4.053 -0.9029  0.4072 -2.6784
 4047TIP3   OH233631   1.399   3.359  12.009  0.2596  0.6630  0.0782
 4047TIP3    H133632   1.314   3.314  12.007 -0.9205  2.8440 -0.8238
 4047TIP3    H233633   1.442   3.332  11.928  0.4399 -0.4419  0.5313
 4048TIP3   OH233634   4.078   2.715   1.202 -0.5395  0.0672  0.1530
 4048TIP3    H133635   4.002   2.716   1.261  1.1335  1.5738  2.3425
 4048TIP3    H233636   4.104   2.806   1.194  0.9942 -0.4194 -0.6515
 4049TIP3   OH233637   2.563   1.057  13.144 -0.5388  0.3215 -0.0714
 4049TIP3    H133638   2.530   1.095  13.225  0.0182 -1.4959  1.0323
 4049TIP3    H233639   2.523   0.971  13.139 -1.3997  0.7972 -2.2937
 4050TIP3   OH233640   6.419   6.300  11.928  0.0420  0.6367 -0.0251
 4050TIP3    H133641   6.333   6.283  11.890 -0.5808  1.4857  0.9812
 4050TIP3    H233642   6.449   6.380  11.885 -0.2181  1.0314  0.5236
 4051TIP3   OH233643   4.782   5.940  16.423 -0.8546 -0.2104 -0.1797
 4051TIP3    H133644   4.821   6.007  16.366  0.2553 -0.4353  0.3028
 4051TIP3    H233645   4.727   5.990  16.484  0.8677  0.3784  0.9038
 4052TIP3   OH233646   4.767   1.223   0.901  0.7251 -0.1781 -0.5879
 4052TIP3    H133647   4.762   1.316   0.883  0.6621 -0.4596 -2.0962
 4052TIP3    H233648   4.720   1.211   0.984  2.7754  1.4450  0.8555
 4053TIP3   OH233649   2.336   5.783   3.233 -0.1645 -0.5470  0.6108
 4053TIP3    H133650   2.428   5.797   3.211  0.2594  0.3338  2.8055
 4053TIP3    H233651   2.292   5.862   3.204 -0.0538 -0.5029  0.5606
 4054TIP3   OH233652   3.591   5.900   2.611  0.1252  0.2654  0.5235
 4054TIP3    H133653   3.510   5.888   2.662 -1.4349 -0.9493 -2.1302
 4054TIP3    H233654   3.571   5.971   2.550  0.0130 -1.9019 -2.0624
 4055TIP3   OH233655   6.214   3.877   2.837 -0.1802  0.2419 -0.8416
 4055TIP3    H133656   6.291   3.921   2.802  0.2505  0.5669  0.4780
 4055TIP3    H233657   6.165   3.946   2.881  0.1640 -0.4521  0.6614
 4056TIP3   OH233658   0.042   4.655  15.658  0.2164  0.3120  0.5806
 4056TIP3    H133659   0.021   4.613  15.575  0.1181  0.4569  0.5323
 4056TIP3    H233660   0.131   4.627  15.677 -0.7239 -1.9928  1.8224
 4057TIP3   OH233661   0.888   0.621   3.336  0.1380  0.0126 -0.3227
 4057TIP3    H133662   0.961   0.560   3.347 -3.2169 -3.7046  2.7319
 4057TIP3    H233663   0.899   0.686   3.405  0.7643 -0.2940 -0.1361
 4058TIP3   OH233664   1.991   2.446   4.163  0.1726  0.2223  0.3948
 4058TIP3    H133665   1.975   2.360   4.124  0.8590 -0.1748  0.9805
 4058TIP3    H233666   2.019   2.501   4.090 -0.9266  0.1292 -0.1021
 4059TIP3   OH233667   0.228   1.203  16.867  0.4469  0.5040  0.3324
 4059TIP3    H133668   0.144   1.181  16.826  0.8047 -1.4784  0.5911
 4059TIP3    H233669   0.282   1.236  16.795  0.6732 -1.8173 -0.5986
 4060TIP3   OH233670   5.599   0.598  13.301  0.3197  0.3832 -0.2822
 4060TIP3    H133671   5.522   0.592  13.357 -0.2137  1.8513 -0.8346
 4060TIP3    H233672   5.565   0.622  13.215  1.4201  1.4233 -0.4489
 4061TIP3   OH233673   6.749   3.197   6.472  0.4059  0.2872  0.2308
 4061TIP3    H133674   6.748   3.271   6.533  1.1633  0.5726 -0.0946
 4061TIP3    H233675   6.669   3.149   6.492 -0.0916  1.1902  0.4596
 4062TIP3   OH233676   1.228   1.295   4.691  1.2135 -0.2312 -0.0580
 4062TIP3    H133677   1.134   1.287   4.676  0.9135 -0.4671  1.7973
 4062TIP3    H233678   1.260   1.347   4.618 -0.6379  1.2552  0.1477
 4063TIP3   OH233679   0.703   0.029  14.101 -0.4124 -0.3543 -0.0195
 4063TIP3    H133680   0.624   0.061  14.056 -0.0512  1.6069  0.6926
 4063TIP3    H233681   0.740  -0.036  14.041 -2.1311 -0.7090 -0.7272
 4064TIP3   OH233682   1.344   4.409  11.304 -0.0716 -0.3659  0.0069
 4064TIP3    H133683   1.350   4.318  11.274  0.5856 -0.4081  0.2640
 4064TIP3    H233684   1.253   4.433  11.287 -0.2676 -1.0922 -0.0128
 4065TIP3   OH233685   2.182   1.548   3.684 -0.6692 -0.6254 -0.2974
 4065TIP3    H133686   2.186   1.453   3.697 -3.3575 -0.8217 -0.7716
 4065TIP3    H233687   2.150   1.559   3.595 -0.7623  0.7482 -0.1031
 4066TIP3   OH233688   4.062   2.215  12.587  0.0329  0.1386 -0.0568
 4066TIP3    H133689   4.095   2.275  12.521  0.9504 -0.3991 -0.0873
 4066TIP3    H233690   4.124   2.142  12.588  0.2937  0.3566  1.7086
 4067TIP3   OH233691   4.626   1.411   5.183 -0.2006  0.1476 -0.1009
 4067TIP3    H133692   4.663   1.324   5.197  1.5636  1.1483  1.5946
 4067TIP3    H233693   4.648   1.460   5.262 -2.5538  1.6856 -0.3357
 4068TIP3   OH233694   6.068   4.085  11.496  0.2111  0.4028 -0.4407
 4068TIP3    H133695   6.138   4.114  11.555  1.0200 -1.1350 -0.6060
 4068TIP3    H233696   6.113   4.064  11.414 -0.2609 -1.5206 -0.2472
 4069TIP3   OH233697   2.044   6.689  16.145 -0.5443  0.2742  0.2904
 4069TIP3    H133698   2.039   6.780  16.114 -0.6703 -0.0219 -0.5818
 4069TIP3    H233699   1.978   6.684  16.214 -0.4604  0.8753  0.4221
 4070TIP3   OH233700   2.509   5.510  14.103 -0.7478 -0.2217  0.4148
 4070TIP3    H133701   2.602   5.498  14.081 -1.0160  0.0230 -0.8995
 4070TIP3    H233702   2.491   5.601  14.080 -0.9845  0.1264  1.9412
 4071TIP3   OH233703   0.099   2.029  16.326 -0.6657  0.2249 -0.6309
 4071TIP3    H133704   0.113   1.936  16.344 -1.4061 -0.0634 -1.5519
 4071TIP3    H233705   0.015   2.049  16.368 -1.1044  0.1846 -1.4895
 4072TIP3   OH233706   1.878   4.441   4.777 -0.3478  0.1897 -0.1658
 4072TIP3    H133707   1.919   4.465   4.860  0.3952 -0.6912 -0.2683
 4072TIP3    H233708   1.943   4.465   4.711  0.5704 -2.3363 -0.2548
 4073TIP3   OH233709   6.151   2.495  14.106 -0.2946 -0.2827  0.4884
 4073TIP3    H133710   6.077   2.499  14.167 -1.7263  0.3299 -1.2500
 4073TIP3    H233711   6.158   2.584  14.071  0.2525 -0.7156 -0.5341
 4074TIP3   OH233712   3.354   5.667  11.764  0.4026  0.5299 -0.0251
 4074TIP3    H133713   3.307   5.614  11.829 -0.9427  0.3394 -1.1296
 4074TIP3    H233714   3.285   5.710  11.714  1.4061  0.2719 -1.6702
 4075TIP3   OH233715   5.207   0.533  15.834 -0.0902  0.1359 -0.1586
 4075TIP3    H133716   5.219   0.569  15.922  0.5924  2.7837 -1.2634
 4075TIP3    H233717   5.229   0.440  15.843 -0.9556  0.1593  2.6385
 4076TIP3   OH233718   0.590   4.811   5.592  0.1840  0.0642  0.0003
 4076TIP3    H133719   0.682   4.837   5.586 -0.2426  2.1089  1.9241
 4076TIP3    H233720   0.590   4.736   5.652  0.7349 -0.7218 -0.9792
 4077TIP3   OH233721   5.209   2.168  16.047  0.6385 -0.0629 -0.0703
 4077TIP3    H133722   5.130   2.199  16.091 -0.2269 -0.5460 -1.2300
 4077TIP3    H233723   5.271   2.151  16.117 -0.1809  0.6182  0.8399
 4078TIP3   OH233724   3.147   4.361  12.346  0.0122  0.3548  0.0478
 4078TIP3    H133725   3.082   4.328  12.284 -2.0071 -1.9385  3.2319
 4078TIP3    H233726   3.127   4.454  12.355 -1.3747  0.1396 -0.6804
 4079TIP3   OH233727   4.597   4.642   0.171  0.1701  0.3283  0.9355
 4079TIP3    H133728   4.666   4.607   0.114 -0.3916 -1.5043  1.3820
 4079TIP3    H233729   4.637   4.719   0.212  0.9626  1.0168 -1.0499
 4080TIP3   OH233730   4.919   2.286   4.000 -0.3123 -0.3493 -0.8276
 4080TIP3    H133731   4.961   2.250   3.922  0.2585 -0.5655 -0.4197
 4080TIP3    H233732   4.901   2.210   4.055 -0.5962 -0.1826 -0.6900
 4081TIP3   OH233733   6.267   2.059  11.251  0.4371 -0.5349  0.2771
 4081TIP3    H133734   6.208   2.065  11.326 -0.4769  0.7207 -0.5215
 4081TIP3    H233735   6.291   1.966  11.246 -0.8468 -0.9182  1.0893
 4082TIP3   OH233736   5.582   2.101  15.700  0.8706  0.2452  0.6564
 4082TIP3    H133737   5.619   2.019  15.667 -0.3243  0.2679 -0.8149
 4082TIP3    H233738   5.550   2.145  15.621  1.6780  2.2139  1.4079
 4083TIP3   OH233739   4.454   4.708   1.655 -0.0983  0.3356 -0.0982
 4083TIP3    H133740   4.452   4.779   1.590  2.2180  1.7257  1.2723
 4083TIP3    H233741   4.543   4.674   1.651 -1.2956 -2.8792 -1.0387
 4084TIP3   OH233742   1.298   0.296   0.405  0.2405 -0.3916  0.4270
 4084TIP3    H133743   1.289   0.203   0.385  0.5565 -0.1861 -0.7069
 4084TIP3    H233744   1.280   0.340   0.323 -2.8114  0.7199  1.6299
 4085TIP3   OH233745   2.752   6.085  11.914 -0.7840 -0.4612 -0.0511
 4085TIP3    H133746   2.822   6.143  11.944 -0.2277  0.2556 -2.5638
 4085TIP3    H233747   2.681   6.099  11.976  0.2213  1.1078  0.7810
 4086TIP3   OH233748   5.876   0.894   5.446  0.1674 -0.0034  0.2181
 4086TIP3    H133749   5.892   0.949   5.522 -0.5115  0.4531  0.0425
 4086TIP3    H233750   5.963   0.866   5.418  0.4510  0.1950  0.8873
 4087TIP3   OH233751   3.223   4.862  13.089  0.3280 -0.6365  0.2656
 4087TIP3    H133752   3.186   4.832  13.172 -0.0155 -0.7020  0.0919
 4087TIP3    H233753   3.153   4.846  13.025  1.0901 -1.8472 -0.2689
 4088TIP3   OH233754   1.654   6.676   1.173 -0.4602 -0.5181  0.3616
 4088TIP3    H133755   1.713   6.650   1.245  0.1447 -3.3861 -1.0766
 4088TIP3    H233756   1.711   6.683   1.097 -1.5607 -0.6840 -0.4901
 4089TIP3   OH233757   3.427   3.819  11.801 -0.2041 -0.4836  0.1863
 4089TIP3    H133758   3.498   3.878  11.826 -0.3416  0.1878 -1.0045
 4089TIP3    H233759   3.418   3.831  11.707 -1.2494 -1.2960  0.1787
 4090TIP3   OH233760   3.195   6.444  13.999 -0.0964  0.4321  0.0443
 4090TIP3    H133761   3.265   6.508  13.986  0.8917 -0.2103  2.0182
 4090TIP3    H233762   3.135   6.486  14.061  0.3499 -0.4020  1.0383
 4091TIP3   OH233763   2.214   3.883   3.405  0.1904  0.0032 -0.4466
 4091TIP3    H133764   2.130   3.837   3.395  0.4431 -0.6701  0.4377
 4091TIP3    H233765   2.235   3.874   3.498  1.4582 -0.2125 -0.7438
 4092TIP3   OH233766   3.449   5.483  14.154 -0.0244  0.7793  0.2279
 4092TIP3    H133767   3.500   5.450  14.080  0.3088  1.7139  0.0419
 4092TIP3    H233768   3.366   5.437  14.148  0.2641  0.3159 -0.3076
 4093TIP3   OH233769   1.487   3.322   6.129 -0.0706 -0.2275  0.0701
 4093TIP3    H133770   1.416   3.369   6.085 -0.0360 -0.0418  0.2121
 4093TIP3    H233771   1.459   3.230   6.127 -0.7790 -0.0434  0.9797
 4094TIP3   OH233772   1.232   5.888  11.832  0.0372 -0.0769  0.7335
 4094TIP3    H133773   1.323   5.907  11.855  0.1186  2.1483 -1.2486
 4094TIP3    H233774   1.183   5.901  11.913  1.2038  0.8473  1.3069
 4095TIP3   OH233775   5.380   0.941  15.839  0.0310 -0.6021  0.3799
 4095TIP3    H133776   5.409   0.912  15.926 -1.8090  0.9578  1.5695
 4095TIP3    H233777   5.401   1.034  15.837 -1.1830 -0.3335 -0.3036
 4096TIP3   OH233778   3.265   0.383   2.689  0.0356  0.3911 -0.3532
 4096TIP3    H133779   3.310   0.465   2.706  0.0686 -0.0684  2.0187
 4096TIP3    H233780   3.276   0.332   2.769 -2.1316 -0.9205 -0.8173
 4097TIP3   OH233781   2.806   1.205   3.443  0.1787 -0.0695 -0.0626
 4097TIP3    H133782   2.730   1.216   3.385  0.6193  0.0253 -0.6278
 4097TIP3    H233783   2.826   1.111   3.438 -0.4798 -0.2663  0.8291
 4098TIP3   OH233784   3.897   2.487   6.675  0.7255  0.0983  0.0531
 4098TIP3    H133785   3.871   2.561   6.730 -1.2663 -0.8719  0.4685
 4098TIP3    H233786   3.875   2.514   6.586  1.2612  0.5258  0.0465
 4099TIP3   OH233787   6.186   0.102   4.373  0.1796 -0.4473  0.4306
 4099TIP3    H133788   6.106   0.099   4.425  1.0101 -2.8564  1.6443
 4099TIP3    H233789   6.201   0.011   4.347  1.3721  0.2966 -1.5889
 4100TIP3   OH233790   3.233   1.073  16.795 -0.7678 -0.2295 -0.1267
 4100TIP3    H133791   3.256   1.127  16.719  1.7285  1.6554  1.8778
 4100TIP3    H233792   3.210   0.988  16.758 -0.3349  0.8764 -3.0508
 4101TIP3   OH233793   3.157   2.068  16.369 -1.0396 -0.7371  0.1254
 4101TIP3    H133794   3.209   2.007  16.317  0.3154  1.0425 -0.6524
 4101TIP3    H233795   3.066   2.043  16.352 -0.5348 -1.9000 -0.9420
 4102TIP3   OH233796   1.228   2.369   3.854 -0.3388  0.3989 -0.2439
 4102TIP3    H133797   1.293   2.424   3.811 -1.6298 -0.3052 -3.1707
 4102TIP3    H233798   1.152   2.426   3.866 -1.2017 -0.3177 -2.0808
 4103TIP3   OH233799   0.329   2.042  14.138 -0.5805 -0.9053 -0.2575
 4103TIP3    H133800   0.324   2.125  14.093 -1.5664 -0.3865  0.7685
 4103TIP3    H233801   0.356   2.064  14.227 -0.2067 -1.7472 -0.1512
 4104TIP3   OH233802   6.227   6.355  12.924 -0.3763  0.7883 -0.0557
 4104TIP3    H133803   6.167   6.402  12.982  1.7081 -0.2547  3.1042
 4104TIP3    H233804   6.256   6.280  12.976  2.7713  0.6517 -1.9132
 4105TIP3   OH233805   4.344   2.913  17.043  0.0873  0.7038  0.5835
 4105TIP3    H133806   4.402   2.968  17.095  2.6030 -2.0101  0.7490
 4105TIP3    H233807   4.400   2.877  16.975 -1.2927 -2.2616  0.9505
 4106TIP3   OH233808   2.881   2.156   0.660  0.9198  0.2652 -0.1932
 4106TIP3    H133809   2.902   2.131   0.570  4.3572 -1.8001  1.0436
 4106TIP3    H233810   2.921   2.242   0.671 -0.6849  1.1213 -1.0337
 4107TIP3   OH233811   0.083   0.041   4.086 -0.3118 -0.2965 -0.0002
 4107TIP3    H133812   0.048   0.090   4.012 -1.8775  0.6581  1.3456
 4107TIP3    H233813   0.063   0.095   4.163  1.4750 -1.1622  1.1015
 4108TIP3   OH233814   3.481   0.981   5.691 -0.0046 -0.0168 -0.0354
 4108TIP3    H133815   3.392   1.016   5.683 -0.2779 -0.9557 -1.2275
 4108TIP3    H233816   3.502   0.950   5.603  0.6997 -1.7143  0.7170
 4109TIP3   OH233817   2.139   5.882   3.037  0.3369 -0.2871 -0.6227
 4109TIP3    H133818   2.156   5.835   2.956  1.1768  0.3702 -0.8383
 4109TIP3    H233819   2.141   5.974   3.012  3.0293  0.0286  0.5429
 4110TIP3   OH233820   6.731   6.070  11.718 -0.4062  0.0465  0.6392
 4110TIP3    H133821   6.693   6.157  11.724 -0.5587  0.0479 -0.3271
 4110TIP3    H233822   6.747   6.057  11.625  2.6656  0.3615  1.0773
 4111TIP3   OH233823   5.231   6.528   1.453 -0.5000  0.5330 -0.2302
 4111TIP3    H133824   5.291   6.479   1.395  0.5843 -0.6052  1.7834
 4111TIP3    H233825   5.247   6.620   1.432  1.1639  0.1991 -0.5364
 4112TIP3   OH233826   6.424   6.553   2.860  1.7727  0.6289  0.4414
 4112TIP3    H133827   6.506   6.588   2.894  1.9602  0.6831 -0.0679
 4112TIP3    H233828   6.434   6.458   2.869  1.6304  0.6647  0.9782
 4113TIP3   OH233829   6.762   0.709   0.858  0.1421 -0.3675 -0.4983
 4113TIP3    H133830   6.680   0.711   0.809 -0.3529  0.9783  0.3532
 4113TIP3    H233831   6.787   0.801   0.866  1.5641 -0.7436 -0.4614
 4114TIP3   OH233832   4.323   0.252  17.119 -0.2504 -0.0402 -0.6538
 4114TIP3    H133833   4.256   0.318  17.140 -2.1626 -1.9855 -0.3764
 4114TIP3    H233834   4.352   0.220  17.205  1.4788  1.1810 -0.7590
 4115TIP3   OH233835   1.914   0.618  16.922 -0.4101  0.0190 -0.0972
 4115TIP3    H133836   1.977   0.686  16.897 -0.3979  0.3306  0.7495
 4115TIP3    H233837   1.960   0.536  16.909 -0.3347  0.1818 -0.8845
 4116TIP3   OH233838   1.901   3.208  12.146 -0.4545 -0.1256  0.1941
 4116TIP3    H133839   1.821   3.222  12.095 -1.1252  1.3151  1.6121
 4116TIP3    H233840   1.896   3.117  12.174 -0.9033 -0.4393 -0.8685
 4117TIP3   OH233841   5.216   1.567   1.574  0.1764  0.3410  0.3397
 4117TIP3    H133842   5.174   1.563   1.660 -0.5264 -3.3708 -0.0967
 4117TIP3    H233843   5.309   1.579   1.592  0.0197 -0.3519  1.5867
 4118TIP3   OH233844   1.388   4.272   5.593 -0.6681 -0.3010  0.1913
 4118TIP3    H133845   1.307   4.277   5.645 -0.5251  1.2920  0.2885
 4118TIP3    H233846   1.440   4.346   5.623  0.3175 -0.6094 -0.7407
 4119TIP3   OH233847   4.884   5.842  12.498  0.7203 -0.0888  0.7227
 4119TIP3    H133848   4.933   5.918  12.468  0.5887 -0.3859 -0.2657
 4119TIP3    H233849   4.881   5.851  12.593  0.8736  1.0336  0.6271
 4120TIP3   OH233850   2.177   3.168   5.111  0.2236 -0.7065 -0.0605
 4120TIP3    H133851   2.195   3.241   5.170  0.4507 -1.4716  0.8169
 4120TIP3    H233852   2.104   3.200   5.057  0.3335  0.1784  0.2958
 4121TIP3   OH233853   2.349   5.490  15.181  0.1993  0.3921 -0.4828
 4121TIP3    H133854   2.255   5.505  15.181  0.3117  1.0767  0.1790
 4121TIP3    H233855   2.378   5.523  15.096 -0.1942 -0.0543 -0.7907
 4122TIP3   OH233856   2.883   6.310   5.758  0.0313  0.1882  0.8271
 4122TIP3    H133857   2.969   6.308   5.800  0.3503 -0.7395  0.1378
 4122TIP3    H233858   2.872   6.223   5.722 -0.6933  0.6685 -0.1205
 4123TIP3   OH233859   3.388   5.332   2.083 -0.5105  0.4347 -0.2758
 4123TIP3    H133860   3.430   5.397   2.139  0.2443  1.4819 -2.0194
 4123TIP3    H233861   3.453   5.312   2.016 -0.9837 -1.6358 -0.1537
 4124TIP3   OH233862   5.268   3.921   1.591  0.2569 -0.0283  0.0177
 4124TIP3    H133863   5.200   3.974   1.548  0.7386 -0.0805 -0.8186
 4124TIP3    H233864   5.277   3.960   1.678  0.3713  1.0576 -0.4684
 4125TIP3   OH233865   1.686   3.826   2.080  0.2081  0.4140  0.2736
 4125TIP3    H133866   1.614   3.802   2.137 -0.1799  1.4510  0.2292
 4125TIP3    H233867   1.734   3.894   2.128  0.8151  0.1450  0.0611
 4126TIP3   OH233868   0.762   1.158  12.121 -0.1363 -0.4003  0.1952
 4126TIP3    H133869   0.751   1.253  12.114  0.7257 -0.3089  0.0455
 4126TIP3    H233870   0.758   1.140  12.214  0.8494 -0.0658  0.3139
 4127TIP3   OH233871   6.264   0.903  14.725  0.3254  0.8259  0.1946
 4127TIP3    H133872   6.216   0.846  14.784  0.1229 -0.1915 -0.9417
 4127TIP3    H233873   6.232   0.991  14.746 -1.0859  0.2970  0.3469
 4128TIP3   OH233874   0.781   3.302  12.745 -0.4003  0.3984  0.1914
 4128TIP3    H133875   0.793   3.347  12.829 -1.1400 -0.1547  0.6031
 4128TIP3    H233876   0.866   3.307  12.702 -0.8690  3.7413 -0.5499
 4129TIP3   OH233877   2.657   0.357  13.166  0.1919 -0.2027  0.0238
 4129TIP3    H133878   2.679   0.357  13.072 -0.9149 -0.1328 -0.2363
 4129TIP3    H233879   2.729   0.308  13.206 -1.2684 -3.7142 -1.3638
 4130TIP3   OH233880   0.936   4.999   2.662  0.0200 -0.3764  0.4404
 4130TIP3    H133881   0.851   5.038   2.643 -0.1680 -0.9475  0.1116
 4130TIP3    H233882   0.919   4.940   2.736 -0.0081 -1.0076 -0.0681
 4131TIP3   OH233883   4.392   1.479  10.465  0.1659 -0.2184 -0.2047
 4131TIP3    H133884   4.326   1.502  10.531 -0.9417 -0.1106 -1.3301
 4131TIP3    H233885   4.438   1.561  10.447 -0.5070  0.0768 -0.6185
 4132TIP3   OH233886   5.061   4.443   5.306 -0.1705 -0.4886  1.2095
 4132TIP3    H133887   5.076   4.537   5.315  1.9261 -0.7042  0.2945
 4132TIP3    H233888   5.149   4.404   5.309 -0.5803 -2.0052 -2.9141
 4133TIP3   OH233889   3.756   5.235   2.316  0.0589  0.7474  0.7787
 4133TIP3    H133890   3.691   5.176   2.278  0.4664  0.3509  0.6845
 4133TIP3    H233891   3.746   5.225   2.411 -1.6550  2.5115  0.8087
 4134TIP3   OH233892   0.895   3.785   2.391  0.1482  0.2409  0.1870
 4134TIP3    H133893   0.851   3.713   2.345 -0.1833  0.5997 -0.0542
 4134TIP3    H233894   0.985   3.782   2.358  0.4152 -0.7263  0.9522
 4135TIP3   OH233895   5.770   0.196  14.122 -0.3555 -0.1513  0.4023
 4135TIP3    H133896   5.682   0.160  14.133 -0.3178 -0.8174 -1.3960
 4135TIP3    H233897   5.824   0.121  14.096  0.3145  0.6492 -0.5552
 4136TIP3   OH233898   4.192   2.971   2.449  0.2458 -0.7368 -0.2128
 4136TIP3    H133899   4.112   2.973   2.502  0.0782 -1.8358 -0.3997
 4136TIP3    H233900   4.230   3.058   2.459 -0.8354 -0.2919  0.0973
 4137TIP3   OH233901   2.146   2.166   5.000  0.0303 -0.4020 -0.2423
 4137TIP3    H133902   2.221   2.206   5.044 -0.4057 -1.9130  1.9467
 4137TIP3    H233903   2.174   2.077   4.980 -0.3056 -0.1921 -1.7202
 4138TIP3   OH233904   6.149   6.718  13.700 -0.1973  0.4622  0.6034
 4138TIP3    H133905   6.144   6.746  13.608  1.8187  0.8076  0.5588
 4138TIP3    H233906   6.205   6.784  13.741 -0.0574 -0.3823  1.7847
 4139TIP3   OH233907   2.214   4.793   3.593  0.2465 -0.2442 -0.1202
 4139TIP3    H133908   2.176   4.713   3.630  0.2018 -1.1654 -2.1042
 4139TIP3    H233909   2.139   4.849   3.575  0.2085 -0.1115  0.4461
 4140TIP3   OH233910   1.787   3.452  16.499  0.1511  0.1896 -0.1894
 4140TIP3    H133911   1.714   3.451  16.437 -0.4905 -0.3851  0.5633
 4140TIP3    H233912   1.746   3.448  16.585  1.0951 -0.7301  0.2295
 4141TIP3   OH233913   0.513   4.169  16.682  0.5680  0.0708 -0.8481
 4141TIP3    H133914   0.523   4.263  16.671  0.0220  0.2611  0.2503
 4141TIP3    H233915   0.600   4.133  16.667  1.0805  0.8859  0.1622
 4142TIP3   OH233916   3.044   1.519   2.434 -0.0155  0.3249 -0.2475
 4142TIP3    H133917   3.039   1.550   2.343  0.4863 -0.1032 -0.4297
 4142TIP3    H233918   3.018   1.594   2.487  0.6526  0.8965 -0.7067
 4143TIP3   OH233919   6.441   2.374  14.913 -1.1179 -0.6701  0.2659
 4143TIP3    H133920   6.419   2.374  14.820  1.5879  0.1143 -0.4236
 4143TIP3    H233921   6.412   2.460  14.944 -1.2625 -0.5961 -0.0693
 4144TIP3   OH233922   1.034   4.262   4.863  0.2349 -0.2759  0.1039
 4144TIP3    H133923   1.065   4.344   4.901  0.4264 -0.3080  0.0171
 4144TIP3    H233924   0.985   4.220   4.934 -2.1847  1.1439 -0.6515
 4145TIP3   OH233925   1.416   2.197  13.733  0.0313  0.1412 -0.4476
 4145TIP3    H133926   1.382   2.109  13.713  1.1086 -0.1850 -0.8975
 4145TIP3    H233927   1.349   2.237  13.788 -1.0627 -0.4963 -1.3029
 4146TIP3   OH233928   0.840   6.076   0.957  0.5568 -0.1777  0.2027
 4146TIP3    H133929   0.754   6.101   0.991  1.0369  0.6569  0.8183
 4146TIP3    H233930   0.843   6.113   0.869  0.1328 -0.5497  0.0307
 4147TIP3   OH233931   4.786   3.487  15.188 -0.3714 -0.2225 -0.5393
 4147TIP3    H133932   4.862   3.466  15.243  1.2438  1.3205 -2.1232
 4147TIP3    H233933   4.736   3.550  15.240 -1.1328 -1.9706  0.9208
 4148TIP3   OH233934   6.240   0.910  11.904  0.1659  0.2332  0.4007
 4148TIP3    H133935   6.324   0.876  11.872 -0.9193 -0.8530 -1.4076
 4148TIP3    H233936   6.212   0.847  11.970 -0.3610 -0.7452 -0.7321
 4149TIP3   OH233937   3.873   2.267  12.932 -0.9222 -0.0632 -0.3350
 4149TIP3    H133938   3.901   2.188  12.978  0.6347  0.6631  0.0029
 4149TIP3    H233939   3.844   2.326  13.001 -0.5538  0.2510 -0.4448
 4150TIP3   OH233940   5.121   2.959   5.741  0.1245 -0.3928  0.0915
 4150TIP3    H133941   5.200   2.969   5.794 -0.4275  0.2553  0.8097
 4150TIP3    H233942   5.117   3.039   5.688 -0.0308 -0.4380  0.0332
 4151TIP3   OH233943   1.148   5.120  11.111  0.0894  0.1795 -0.2529
 4151TIP3    H133944   1.206   5.127  11.035 -0.8659  1.0072 -0.9137
 4151TIP3    H233945   1.093   5.044  11.091  0.0523  0.2051 -0.2474
 4152TIP3   OH233946   4.156   3.538   4.262 -0.0092 -0.0305 -0.5539
 4152TIP3    H133947   4.233   3.594   4.266 -0.3603  0.5291 -1.4578
 4152TIP3    H233948   4.188   3.451   4.283  0.3317  0.6857  2.0304
 4153TIP3   OH233949   5.768   0.611   5.235  0.1271 -0.0849 -0.1534
 4153TIP3    H133950   5.834   0.638   5.299  0.5241  0.0995 -0.6357
 4153TIP3    H233951   5.744   0.692   5.190  2.0336 -0.6518 -2.2779
 4154TIP3   OH233952   0.090   2.075  10.888  0.4656  0.3647 -0.0100
 4154TIP3    H133953   0.036   2.153  10.893 -0.5679 -0.2799 -0.8653
 4154TIP3    H233954   0.029   2.002  10.903  1.9953 -0.1568  4.4061
 4155TIP3   OH233955   0.127   4.684   1.695 -0.1730  0.0549 -0.4153
 4155TIP3    H133956   0.197   4.620   1.711 -0.6879 -0.6184 -0.8390
 4155TIP3    H233957   0.089   4.700   1.781  1.1091  1.1424 -0.0237
 4156TIP3   OH233958   3.321   0.316  16.944  0.0279 -1.1280 -0.0374
 4156TIP3    H133959   3.372   0.344  17.020  0.2639 -2.5945  0.3678
 4156TIP3    H233960   3.387   0.282  16.883 -0.3659 -2.1422  0.0905
 4157TIP3   OH233961   4.192   4.349   4.460 -0.7243 -0.1265 -0.2578
 4157TIP3    H133962   4.278   4.336   4.420  0.4640  1.8661  1.5564
 4157TIP3    H233963   4.170   4.264   4.497  0.8991 -0.4160  0.0755
 4158TIP3   OH233964   1.878   5.627   0.502 -0.5394 -0.0838 -0.0635
 4158TIP3    H133965   1.786   5.624   0.527 -1.1789  0.9482 -2.2075
 4158TIP3    H233966   1.881   5.585   0.416  1.3663 -2.1622  0.9695
 4159TIP3   OH233967   2.939   5.058   5.470 -0.0555  0.0495 -0.2820
 4159TIP3    H133968   2.976   5.105   5.545  0.4748  1.2737 -1.2942
 4159TIP3    H233969   2.901   5.126   5.415 -0.4856 -0.8444 -1.1085
 4160TIP3   OH233970   2.393   2.035   1.072 -0.3840  0.1229  0.0930
 4160TIP3    H133971   2.341   2.073   1.000  0.0304  1.1352  0.3129
 4160TIP3    H233972   2.378   1.941   1.065  0.8772  0.0452 -2.3132
 4161TIP3   OH233973   0.561   0.867   4.577  0.4353 -0.3254  0.3588
 4161TIP3    H133974   0.466   0.872   4.593  0.2132 -0.3233 -0.8994
 4161TIP3    H233975   0.573   0.783   4.535  0.6431  0.7252 -1.7337
 4162TIP3   OH233976   0.573   3.088   2.846 -0.7290 -0.2363 -0.2563
 4162TIP3    H133977   0.576   3.178   2.878  2.3324 -0.4853  0.3641
 4162TIP3    H233978   0.505   3.046   2.899 -1.5520  1.4839  0.0812
 4163TIP3   OH233979   3.215   3.573   0.416 -0.2361 -0.6662  0.2876
 4163TIP3    H133980   3.254   3.486   0.405 -0.8511 -0.7534 -1.3290
 4163TIP3    H233981   3.154   3.581   0.343 -0.2172  1.1269  0.4598
 4164TIP3   OH233982   1.196   0.155   3.469  0.2109 -0.0960  0.0046
 4164TIP3    H133983   1.283   0.126   3.442 -0.3367 -3.4613  1.6169
 4164TIP3    H233984   1.144   0.075   3.472 -2.9260  1.8343 -0.7442
 4165TIP3   OH233985   2.148   2.501   5.937 -0.0270 -0.0102 -0.4257
 4165TIP3    H133986   2.196   2.431   5.982  0.5046  1.0609  0.7262
 4165TIP3    H233987   2.056   2.486   5.961  0.2243  0.4040  0.8772
 4166TIP3   OH233988   1.488   3.026   4.596  0.3097 -0.2601  0.2953
 4166TIP3    H133989   1.479   3.049   4.504 -3.2219  1.1690  0.9347
 4166TIP3    H233990   1.542   3.096   4.634  1.4517 -0.6549 -0.5908
 4167TIP3   OH233991   3.807   6.126   6.082 -0.2087 -0.4126  0.2913
 4167TIP3    H133992   3.828   6.033   6.091  0.4586 -0.3667 -0.6991
 4167TIP3    H233993   3.712   6.128   6.073 -0.2120 -1.0208  0.1457
 4168TIP3   OH233994   4.085   0.705   2.724 -0.2696 -0.4122 -0.2605
 4168TIP3    H133995   4.170   0.703   2.768 -0.8908 -2.1067  0.9010
 4168TIP3    H233996   4.084   0.789   2.678  1.3888  0.3209  0.9885
 4169TIP3   OH233997   1.412   3.003  15.865 -0.1918  0.1078  0.0988
 4169TIP3    H133998   1.445   3.093  15.873  0.0001  0.1714 -1.4010
 4169TIP3    H233999   1.402   2.974  15.956 -0.0820  1.5805  0.6042
 4170TIP3   OH234000   1.044   2.195   1.768  0.3176 -0.2212  0.2715
 4170TIP3    H134001   1.080   2.279   1.795  1.2171 -0.5361  0.0780
 4170TIP3    H234002   1.032   2.147   1.850  0.8512 -0.3068  0.3064
 4171TIP3   OH234003   3.134   2.623  14.681 -0.1406  0.4304  0.6428
 4171TIP3    H134004   3.182   2.650  14.602 -2.5334 -1.3663 -1.5128
 4171TIP3    H234005   3.043   2.616  14.652 -0.9501 -1.0504  3.3907
 4172TIP3   OH234006   4.146   2.145   5.607 -0.1893  0.1625  0.0206
 4172TIP3    H134007   4.179   2.234   5.619  0.9046  0.0077 -1.5882
 4172TIP3    H234008   4.059   2.145   5.647 -0.6826  2.2875 -0.9969
 4173TIP3   OH234009   6.018   4.872  14.387 -0.2026  0.4455 -0.2471
 4173TIP3    H134010   5.925   4.888  14.402  0.4318  2.7526  1.5614
 4173TIP3    H234011   6.051   4.952  14.348  1.2623  0.1500  0.3202
 4174TIP3   OH234012   3.092   0.423  11.098  0.3406  0.7822 -0.0823
 4174TIP3    H134013   3.130   0.384  11.020  0.7695  1.7087 -0.3469
 4174TIP3    H234014   2.998   0.423  11.082  0.0916 -2.3992  0.9776
 4175TIP3   OH234015   3.219   2.587  15.016  0.0656 -0.1763  0.2076
 4175TIP3    H134016   3.194   2.617  14.928 -0.6466  2.5998  1.2971
 4175TIP3    H234017   3.163   2.512  15.033  1.2998 -1.7336 -2.3061
 4176TIP3   OH234018   0.056   4.201  13.860  0.2453  0.0263 -0.4423
 4176TIP3    H134019   0.013   4.248  13.931 -0.9763  1.1946 -1.9326
 4176TIP3    H234020   0.150   4.212  13.878 -0.0505  0.1779  1.0556
 4177TIP3   OH234021   5.243   6.732   3.998 -0.0968 -0.2497 -0.2320
 4177TIP3    H134022   5.202   6.750   3.914 -1.5191  0.3510  0.5814
 4177TIP3    H234023   5.233   6.813   4.048 -0.5290 -1.0726  1.0301
 4178TIP3   OH234024   4.078   5.568  11.066  0.0534 -0.0884 -0.0522
 4178TIP3    H134025   3.992   5.541  11.034  0.0828 -0.0724 -0.1438
 4178TIP3    H234026   4.124   5.486  11.084 -0.1650 -0.0943  0.4835
 4179TIP3   OH234027   4.143   0.996   3.804  0.1289  0.5074 -0.3438
 4179TIP3    H134028   4.173   0.971   3.891 -1.0530  0.3005  0.0109
 4179TIP3    H234029   4.080   0.928   3.779  0.5931  0.4707 -1.4310
 4180TIP3   OH234030   4.548   3.727  14.735  0.1957 -0.0827  0.0662
 4180TIP3    H134031   4.639   3.748  14.757  0.1657  1.1894 -0.9179
 4180TIP3    H234032   4.533   3.772  14.651 -1.4625  0.0761  0.4262
 4181TIP3   OH234033   0.231   0.018  14.472  0.0775 -0.3790  0.3927
 4181TIP3    H134034   0.189  -0.063  14.503 -2.2565  0.8119  0.4353
 4181TIP3    H234035   0.173   0.088  14.503  0.9258  1.1885 -1.4959
 4182TIP3   OH234036   0.569   2.035   2.943  0.1269  0.4357 -0.0218
 4182TIP3    H134037   0.486   2.040   2.991 -1.2835  0.4698 -2.3647
 4182TIP3    H234038   0.582   1.941   2.928 -0.7519  0.5381 -1.6602
 4183TIP3   OH234039   1.459   5.877   0.118 -0.2518 -0.1003 -0.2876
 4183TIP3    H134040   1.517   5.929   0.062  0.0020 -2.0382 -1.9023
 4183TIP3    H234041   1.378   5.928   0.123  0.4106  1.0209 -0.8025
 4184TIP3   OH234042   0.438   2.847   2.483 -0.2086  0.2554  0.0230
 4184TIP3    H134043   0.442   2.796   2.564 -0.2093 -0.3215 -0.3399
 4184TIP3    H234044   0.464   2.935   2.509  0.5913 -0.1171  0.4917
 4185TIP3   OH234045   1.392   6.572  16.160 -0.4631 -0.2796  0.4570
 4185TIP3    H134046   1.334   6.646  16.182  1.3712  1.6538 -0.9504
 4185TIP3    H234047   1.340   6.494  16.178 -2.7309  1.3760  1.2871
 4186TIP3   OH234048   1.838   1.544  14.928 -0.5860  0.4416  0.2805
 4186TIP3    H134049   1.764   1.536  14.868  0.8636 -1.5913 -1.3327
 4186TIP3    H234050   1.801   1.523  15.014 -2.2690  1.3665 -0.1849
 4187TIP3   OH234051   2.495   4.968  14.868  0.7785  0.0963  0.1366
 4187TIP3    H134052   2.405   4.989  14.894  1.6510  0.6421  2.8792
 4187TIP3    H234053   2.490   4.878  14.836 -0.7843  0.1938  0.0483
 4188TIP3   OH234054   2.394   5.060   1.318  0.1563  0.2211  0.5259
 4188TIP3    H134055   2.390   4.966   1.336  0.6850  0.1212  0.1424
 4188TIP3    H234056   2.321   5.097   1.368 -0.0420 -0.3892  0.6973
 4189TIP3   OH234057   5.694   5.380  12.115 -0.4633  0.2839 -0.2182
 4189TIP3    H134058   5.773   5.389  12.063 -1.2039 -0.6121 -1.5301
 4189TIP3    H234059   5.628   5.349  12.053 -1.4883 -0.3241  1.1529
 4190TIP3   OH234060   3.986   4.789   0.823  0.0795 -0.0195  0.2568
 4190TIP3    H134061   4.017   4.800   0.733 -0.5191  0.0988  0.0674
 4190TIP3    H234062   3.962   4.877   0.851 -1.4183 -0.3084 -0.0791
 4191TIP3   OH234063   1.818   5.721   2.274  0.3141  0.2676  0.1774
 4191TIP3    H134064   1.839   5.814   2.266  1.3064  0.0839  0.6413
 4191TIP3    H234065   1.863   5.679   2.201  1.2820 -0.0706  0.9505
 4192TIP3   OH234066   0.016   4.813   5.463  0.3836 -0.6258 -0.5077
 4192TIP3    H134067  -0.076   4.796   5.442  0.5151  0.0615 -1.6608
 4192TIP3    H234068   0.016   4.832   5.557 -0.7383 -0.0572 -0.6179
 4193TIP3   OH234069   4.909   2.227  13.729 -0.4452  0.3710  0.3296
 4193TIP3    H134070   4.981   2.196  13.674 -1.2017  0.6516 -0.8470
 4193TIP3    H234071   4.907   2.167  13.803  0.1149 -0.4721 -0.3356
 4194TIP3   OH234072   0.009   4.070  10.459 -0.5655  0.2519 -0.3170
 4194TIP3    H134073  -0.054   4.021  10.406  0.2826  0.9760 -2.0197
 4194TIP3    H234074   0.091   4.022  10.450 -0.5350  0.0673  0.8149
 4195TIP3   OH234075   2.341   5.561  16.858 -0.1183  0.3326 -0.4142
 4195TIP3    H134076   2.322   5.579  16.765  2.7805  0.1391 -1.1154
 4195TIP3    H234077   2.399   5.633  16.884  1.3737 -1.1264  0.4021
 4196TIP3   OH234078   2.451   1.154  13.397  0.1908  0.5811 -0.2010
 4196TIP3    H134079   2.393   1.136  13.471 -0.7486  1.2162 -0.7659
 4196TIP3    H234080   2.531   1.188  13.436 -1.0023  2.7297  0.4490
 4197TIP3   OH234081   1.113   0.995   6.361 -0.1741  0.1594 -0.3878
 4197TIP3    H134082   1.118   0.936   6.436 -0.1061  1.6818  0.8312
 4197TIP3    H234083   1.191   1.050   6.368  0.7795 -0.8680 -2.6076
 4198TIP3   OH234084   2.114   5.213  14.586  0.0331 -0.3263  0.5303
 4198TIP3    H134085   2.084   5.137  14.636  1.0641 -1.7053 -0.9111
 4198TIP3    H234086   2.056   5.217  14.510  0.5123 -0.1671  0.1698
 4199TIP3   OH234087   2.040   4.589   4.587  0.5572 -0.2546  0.1077
 4199TIP3    H134088   2.065   4.564   4.498  1.8269  0.1673  0.3300
 4199TIP3    H234089   2.050   4.684   4.589 -0.2997 -0.1628  0.4617
 4200TIP3   OH234090   0.972   3.159   5.009 -0.4104 -0.1888  0.5681
 4200TIP3    H134091   0.892   3.144   4.958  0.2546 -1.8535 -0.0088
 4200TIP3    H234092   1.043   3.147   4.946  0.4211 -2.2125  1.8414
 4201TIP3   OH234093   1.446   0.236   4.338 -0.4863 -0.1828  0.8437
 4201TIP3    H134094   1.384   0.210   4.270  1.0526  0.9241 -1.0181
 4201TIP3    H234095   1.434   0.171   4.407 -1.8658 -1.5011 -0.6007
 4202TIP3   OH234096   1.132   5.264  16.034 -0.6443  0.1306 -0.1540
 4202TIP3    H134097   1.135   5.305  15.948 -3.1776 -1.4472 -1.0337
 4202TIP3    H234098   1.048   5.290  16.071 -0.0637 -0.1161  1.3969
 4203TIP3   OH234099   0.593   4.601  12.069  0.0122 -0.1526  0.0929
 4203TIP3    H134100   0.680   4.627  12.098  0.0687 -0.9038  0.6045
 4203TIP3    H234101   0.576   4.518  12.114 -0.7666 -0.2553 -0.3770
 4204TIP3   OH234102   2.303   3.166  13.582 -0.0799 -0.3170 -0.2945
 4204TIP3    H134103   2.345   3.224  13.645 -2.8027  0.9393  0.4537
 4204TIP3    H234104   2.375   3.126  13.533  1.9457  1.1908  1.4035
 4205TIP3   OH234105   0.758   4.991  12.491 -0.1263 -0.0627 -0.0165
 4205TIP3    H134106   0.832   5.002  12.551  0.5790 -0.7194 -0.7521
 4205TIP3    H234107   0.764   5.065  12.431 -0.9011  0.6595  0.7822
 4206TIP3   OH234108   6.126   5.982  14.889  0.2492  0.5550 -0.1266
 4206TIP3    H134109   6.179   5.944  14.819  2.5735  2.7197  0.3942
 4206TIP3    H234110   6.041   5.938  14.881  2.3603 -3.6541 -0.3836
 4207TIP3   OH234111   5.957   2.667   5.770 -0.1079  0.3077  0.0807
 4207TIP3    H134112   6.041   2.648   5.812 -1.6993 -1.3894  2.7204
 4207TIP3    H234113   5.965   2.757   5.739  2.5366  0.2935  0.5919
 4208TIP3   OH234114   4.348   3.515  14.698  0.6733 -0.2702  0.1875
 4208TIP3    H134115   4.363   3.602  14.735  2.1687 -0.4671  0.1010
 4208TIP3    H234116   4.402   3.514  14.619  0.3986 -1.1551  0.0102
 4209TIP3   OH234117   1.479   0.120   5.370 -0.3937 -0.8037  0.5720
 4209TIP3    H134118   1.474   0.122   5.466 -0.5255  1.7403  0.5485
 4209TIP3    H234119   1.392   0.092   5.342 -0.5917 -0.8111  1.1793
 4210TIP3   OH234120   0.614   5.251   4.409 -0.0857 -0.6257 -0.6450
 4210TIP3    H134121   0.657   5.226   4.327 -0.0533  0.6763 -1.0315
 4210TIP3    H234122   0.678   5.230   4.477  0.1285 -1.1396 -1.0000
 4211TIP3   OH234123   2.289   0.088  13.988  0.1904 -0.3426 -0.2185
 4211TIP3    H134124   2.233   0.060  13.915 -0.1996  1.6484 -0.7088
 4211TIP3    H234125   2.228   0.119  14.055  0.6396  0.2059 -0.0584
 4212TIP3   OH234126   6.478   5.210  13.303  0.1553 -0.1372 -0.1670
 4212TIP3    H134127   6.535   5.180  13.231 -0.1230  1.5528 -1.1284
 4212TIP3    H234128   6.392   5.174  13.282  0.8123 -2.5852  1.2171
 4213TIP3   OH234129   5.664   1.423   3.999  0.0393  0.4344 -0.5210
 4213TIP3    H134130   5.630   1.496   4.050 -1.4809 -0.8371  0.3065
 4213TIP3    H234131   5.752   1.451   3.972  0.3588  1.6317  1.7235
 4214TIP3   OH234132   1.351   3.495  13.683  0.5413  0.3085 -0.1661
 4214TIP3    H134133   1.347   3.431  13.754 -1.6162  1.8754  1.1736
 4214TIP3    H234134   1.429   3.548  13.703  0.1712  0.4903  0.8149
 4215TIP3   OH234135   1.607   1.214  14.000 -0.1738  0.3627 -0.8111
 4215TIP3    H134136   1.636   1.282  13.940  1.9896  0.1096 -0.0973
 4215TIP3    H234137   1.674   1.146  13.994 -0.3757 -0.0645  1.2237
 4216TIP3   OH234138   3.897   1.127   4.700  0.4941 -0.1832  0.2098
 4216TIP3    H134139   3.951   1.201   4.727  0.2956 -0.3951  1.2213
 4216TIP3    H234140   3.960   1.057   4.681  0.6504  0.0491 -0.1197
 4217TIP3   OH234141   2.436   2.064   1.394  0.2751 -0.2495  0.6230
 4217TIP3    H134142   2.353   2.017   1.386  0.8740 -1.1777 -0.1341
 4217TIP3    H234143   2.492   2.027   1.326  0.7022  1.6820 -0.1268
 4218TIP3   OH234144   6.684   0.630  14.215  0.2181  0.0890  0.2095
 4218TIP3    H134145   6.763   0.682  14.206  0.4726 -0.3084  0.1567
 4218TIP3    H234146   6.613   0.695  14.219  0.7289  0.5407  2.5578
 4219TIP3   OH234147   2.644   6.596  14.749 -0.1669  0.7075 -0.0302
 4219TIP3    H134148   2.624   6.551  14.831 -0.5059 -0.1359 -0.5745
 4219TIP3    H234149   2.598   6.546  14.682 -1.4594  2.4997 -0.5093
 4220TIP3   OH234150   2.723   0.740  13.207 -0.0535 -0.0688  0.4036
 4220TIP3    H134151   2.633   0.772  13.205 -0.6261 -1.6724 -1.3860
 4220TIP3    H234152   2.724   0.670  13.142  2.5303  0.0240  0.3232
 4221TIP3   OH234153   1.293   4.360   0.342  0.6174 -0.7696 -0.0615
 4221TIP3    H134154   1.347   4.436   0.365 -0.7692  0.3104 -0.2858
 4221TIP3    H234155   1.294   4.306   0.421  1.5853 -0.5096  0.1202
 4222TIP3   OH234156   2.079   6.492  12.552  0.4832  0.1317  0.1486
 4222TIP3    H134157   2.103   6.403  12.580  0.0543  0.1897  0.7067
 4222TIP3    H234158   2.047   6.534  12.631 -3.0473 -0.4609 -0.9047
 4223TIP3   OH234159   2.913   5.859  11.400  0.1900  0.0440 -0.3295
 4223TIP3    H134160   2.862   5.913  11.462  0.8890  1.7334 -1.2141
 4223TIP3    H234161   2.891   5.894  11.314  0.4855 -1.2579 -0.9502
 4224TIP3   OH234162   1.148   1.930   1.248  0.9941  0.3825  0.2226
 4224TIP3    H134163   1.129   1.949   1.340  0.2878 -1.6463  0.5176
 4224TIP3    H234164   1.226   1.874   1.251  0.0845 -0.9113 -0.3246
 4225TIP3   OH234165   2.341   6.411   3.542 -0.0285 -0.1101  0.2278
 4225TIP3    H134166   2.334   6.367   3.627  0.1601 -2.0613 -0.7312
 4225TIP3    H234167   2.402   6.357   3.493  0.6861  1.5923 -0.8105
 4226TIP3   OH234168   1.533   0.985   1.092 -0.6758 -0.5111  0.6315
 4226TIP3    H134169   1.499   0.950   1.175  1.4844 -0.4910  1.5573
 4226TIP3    H234170   1.457   1.025   1.050 -1.7596 -0.2940  2.7246
 4227TIP3   OH234171   3.905   6.426   4.860  0.6267  0.2890  0.6893
 4227TIP3    H134172   3.920   6.464   4.773  0.3434  0.7295  0.8322
 4227TIP3    H234173   3.831   6.475   4.895  0.0076 -0.6546  0.7210
 4228TIP3   OH234174   1.579   0.293  14.151  0.3695  0.2585 -0.4357
 4228TIP3    H134175   1.484   0.291  14.151  0.3685 -0.2457 -1.2682
 4228TIP3    H234176   1.603   0.344  14.228 -0.5428 -1.5486  1.0925
 4229TIP3   OH234177   2.356   0.636   4.761  0.8343  0.2054 -0.2665
 4229TIP3    H134178   2.261   0.648   4.762  0.8003 -0.0668 -0.1699
 4229TIP3    H234179   2.368   0.544   4.740  1.0999  0.4678 -1.2928
 4230TIP3   OH234180   2.947   6.391  12.422 -0.0900  0.1264  0.1300
 4230TIP3    H134181   2.988   6.310  12.452 -0.7738 -0.3076 -0.0975
 4230TIP3    H234182   3.020   6.446  12.394  0.4533  0.0291  1.3335
 4231TIP3   OH234183   6.105   6.542  15.629  0.1224  0.3732  0.0342
 4231TIP3    H134184   6.067   6.527  15.543 -2.6528 -1.1768  1.4373
 4231TIP3    H234185   6.144   6.458  15.654  1.3570  0.9502  0.0950
 4232TIP3   OH234186   2.628   1.865   3.297 -0.4387  0.1024 -0.0074
 4232TIP3    H134187   2.577   1.918   3.358 -3.2259 -0.4361 -1.7631
 4232TIP3    H234188   2.571   1.791   3.276  1.6989 -1.3547 -0.8741
 4233TIP3   OH234189   0.227   6.156   0.747  0.3939  0.0578  0.2387
 4233TIP3    H134190   0.150   6.142   0.692  1.1733 -1.0955 -0.5721
 4233TIP3    H234191   0.269   6.071   0.753  1.4459  0.6103  0.9307
 4234TIP3   OH234192   3.441   2.092   3.020 -0.1441 -0.2110  0.1599
 4234TIP3    H134193   3.469   2.012   2.976 -0.6547 -2.1225  3.1092
 4234TIP3    H234194   3.518   2.119   3.072  0.0164  1.2245 -0.7920
 4235TIP3   OH234195   3.880   0.986  14.945  0.9072  0.0769  0.0078
 4235TIP3    H134196   3.832   1.069  14.934  0.3460 -0.4812 -1.8645
 4235TIP3    H234197   3.951   1.007  15.006  0.6753  1.8899 -0.3334
 4236TIP3   OH234198   4.724   4.660   1.663 -0.6443  0.1592 -0.7830
 4236TIP3    H134199   4.808   4.692   1.630 -0.0093  0.1924  0.8132
 4236TIP3    H234200   4.728   4.677   1.757 -1.9114 -1.0147 -0.5098
 4237TIP3   OH234201   5.633   4.439   5.042 -0.1015 -0.9575 -0.1968
 4237TIP3    H134202   5.706   4.486   5.002 -0.0603  1.2373  2.3734
 4237TIP3    H234203   5.558   4.460   4.987  0.1620  1.1684  0.2338
 4238TIP3   OH234204   4.104   2.665  16.491  0.5992 -0.3749 -0.0534
 4238TIP3    H134205   4.076   2.578  16.519  1.0731 -1.0478 -1.6113
 4238TIP3    H234206   4.108   2.717  16.572 -0.6152 -1.5314  0.7555
 4239TIP3   OH234207   1.320   6.038   0.379  0.9845  0.3452 -0.7556
 4239TIP3    H134208   1.350   6.110   0.323 -0.5279  0.5837 -1.2706
 4239TIP3    H234209   1.269   6.080   0.447  0.8751 -0.1585 -0.5220
 4240TIP3   OH234210   5.868   3.517  12.475 -0.7873  0.0447 -0.1175
 4240TIP3    H134211   5.807   3.452  12.508  0.2997  0.4781  2.9253
 4240TIP3    H234212   5.824   3.601  12.489 -0.5582  0.1977 -0.3132
 4241TIP3   OH234213   6.424   6.170   4.711  0.5209  1.1234  0.0029
 4241TIP3    H134214   6.448   6.240   4.650 -1.7388  1.6422 -0.3449
 4241TIP3    H234215   6.344   6.133   4.675  0.5400 -0.2614  1.3242
 4242TIP3   OH234216   4.142   6.750  13.874 -0.1021 -0.1005  0.0282
 4242TIP3    H134217   4.112   6.734  13.784  0.0420  0.4823 -0.1254
 4242TIP3    H234218   4.180   6.838  13.871  0.6235 -0.3958  0.4800
 4243TIP3   OH234219   4.969   2.257  15.503  0.1549 -0.5948  1.0283
 4243TIP3    H134220   4.969   2.302  15.418  0.2570  0.3830  1.5372
 4243TIP3    H234221   5.047   2.200  15.500  0.3201 -0.3475  0.5798
 4244TIP3   OH234222   3.846   4.250   5.670  0.3091 -0.2715  0.4748
 4244TIP3    H134223   3.830   4.274   5.762  1.0244  2.4247 -0.0724
 4244TIP3    H234224   3.940   4.263   5.657 -0.0117  0.7169 -0.9963
 4245TIP3   OH234225   0.890   4.872   4.165  0.1784 -0.1314 -0.1981
 4245TIP3    H134226   0.971   4.911   4.198 -0.8024  1.7628  0.0202
 4245TIP3    H234227   0.909   4.848   4.075  1.2351 -0.4786  0.1145
 4246TIP3   OH234228   2.560   4.082   2.667  0.1564  0.0258  0.1060
 4246TIP3    H134229   2.582   4.103   2.576 -0.6815 -2.8218 -0.8316
 4246TIP3    H234230   2.608   4.001   2.685 -1.7566 -0.8771  1.3035
 4247TIP3   OH234231   0.921   1.937   2.509 -0.5116  0.4034 -0.0965
 4247TIP3    H134232   1.006   1.948   2.465  0.4143 -3.2490  0.5754
 4247TIP3    H234233   0.942   1.932   2.602 -1.7167  1.4254  0.2445
 4248TIP3   OH234234   0.657   4.405   1.928  0.1357 -0.0294  0.6023
 4248TIP3    H134235   0.579   4.460   1.930  0.5693  0.5831  2.9540
 4248TIP3    H234236   0.626   4.319   1.955  0.0660 -0.0832  0.3515
 4249TIP3   OH234237   1.536   2.937  17.280  0.2685 -0.1947 -0.7366
 4249TIP3    H134238   1.484   2.890  17.346 -0.1097 -0.4224 -1.1956
 4249TIP3    H234239   1.614   2.882  17.268  0.3872 -0.1006 -0.4071
 4250TIP3   OH234240   5.051   6.022  13.593 -0.6517 -0.4592 -0.0835
 4250TIP3    H134241   5.132   6.007  13.544 -1.7997 -0.4335 -2.0742
 4250TIP3    H234242   5.004   5.939  13.586 -2.2655  0.5466 -1.8854
 4251TIP3   OH234243   5.205   6.169  17.080 -0.0802  0.3346  0.6992
 4251TIP3    H134244   5.148   6.113  17.027 -2.6496  1.1117  2.5543
 4251TIP3    H234245   5.231   6.240  17.020 -1.0004 -0.0743 -0.2005
 4252TIP3   OH234246   6.284   4.838   4.335 -0.1712  0.1579  0.0769
 4252TIP3    H134247   6.320   4.871   4.417  0.1133 -1.0436  0.4535
 4252TIP3    H234248   6.361   4.811   4.284 -0.2431  2.3248 -1.2428
 4253TIP3   OH234249   5.824   4.469   3.563 -0.4880 -0.3266 -0.1797
 4253TIP3    H134250   5.890   4.400   3.573  1.1594  1.1959 -0.2106
 4253TIP3    H234251   5.797   4.463   3.472  2.4427  1.4820 -1.2111
 4254TIP3   OH234252   2.514   2.528   5.400  0.1327 -0.1507 -0.5118
 4254TIP3    H134253   2.492   2.620   5.417 -0.5055 -0.4289  0.2025
 4254TIP3    H234254   2.589   2.511   5.456 -0.3400 -0.3296  0.0697
 4255TIP3   OH234255   4.388   3.819   5.301  0.2780  0.1074  0.7206
 4255TIP3    H134256   4.330   3.885   5.265  0.9866  1.0458  1.2656
 4255TIP3    H234257   4.417   3.855   5.385  2.1175 -0.0548  0.1943
 4256TIP3   OH234258   2.415   1.268   3.429  0.1193  0.3270  0.7356
 4256TIP3    H134259   2.388   1.348   3.386 -1.4596 -0.3382  0.4510
 4256TIP3    H234260   2.388   1.198   3.370 -1.7947 -0.5812  2.6133
 4257TIP3   OH234261   4.445   3.961   2.743  0.2959  0.1257 -0.3101
 4257TIP3    H134262   4.538   3.953   2.765  0.2430 -0.2475 -0.2167
 4257TIP3    H234263   4.421   3.875   2.710 -0.1485  0.0624  0.1705
 4258TIP3   OH234264   4.543   6.418  11.680 -0.1127  0.2930  0.4771
 4258TIP3    H134265   4.568   6.500  11.723 -2.6933  1.4903 -0.2310
 4258TIP3    H234266   4.533   6.441  11.588 -1.2091 -0.7165  0.3298
 4259TIP3   OH234267   4.029   0.753  12.935  0.2641 -0.3637 -0.6109
 4259TIP3    H134268   4.099   0.763  12.871 -1.1656  2.7268 -1.7903
 4259TIP3    H234269   4.039   0.828  12.994 -0.2537 -1.5339  1.0029
 4260TIP3   OH234270   2.579   2.232  16.314  0.0478 -0.1220  0.0815
 4260TIP3    H134271   2.504   2.270  16.359  0.4561 -1.3715  1.8644
 4260TIP3    H234272   2.613   2.304  16.261 -2.5999  0.3503 -1.0466
 4261TIP3   OH234273   1.465   5.842   2.357 -0.2840  0.0070  0.9582
 4261TIP3    H134274   1.412   5.860   2.434  0.5513 -1.0402  1.7948
 4261TIP3    H234275   1.485   5.749   2.362  0.1489  0.0181 -0.2867
 4262TIP3   OH234276   4.101   2.421   6.113 -0.3903  0.3196  0.1234
 4262TIP3    H134277   4.181   2.392   6.156  0.2817  0.5859 -0.9321
 4262TIP3    H234278   4.030   2.384   6.166  0.4293 -2.3365 -0.5844
 4263TIP3   OH234279   4.306   3.282  10.458  0.7103  0.0208  0.9631
 4263TIP3    H134280   4.372   3.225  10.417  2.2203  3.4523 -1.6356
 4263TIP3    H234281   4.355   3.361  10.481 -1.8881  1.4020  1.8853
 4264TIP3   OH234282   5.190   0.376   0.810  0.0180  0.1638 -0.1466
 4264TIP3    H134283   5.265   0.357   0.752  0.8751 -0.8195  1.2584
 4264TIP3    H234284   5.116   0.387   0.750  1.2495  1.0449 -1.5639
 4265TIP3   OH234285   1.363   3.652  13.061 -0.0147  0.4885 -0.0387
 4265TIP3    H134286   1.423   3.581  13.084 -0.7666  0.6289  2.5100
 4265TIP3    H234287   1.413   3.732  13.074  0.3389  0.5005 -1.3900
 4266TIP3   OH234288   5.325   3.297  15.408 -0.2628 -0.2053 -0.4737
 4266TIP3    H134289   5.252   3.359  15.400  0.1089  0.2202 -0.5339
 4266TIP3    H234290   5.305   3.228  15.345 -0.4132  0.1072 -0.7657
 4267TIP3   OH234291   3.368   6.204  13.340  0.1377 -0.4326 -0.0109
 4267TIP3    H134292   3.439   6.140  13.348 -0.1153 -0.6908  0.1893
 4267TIP3    H234293   3.411   6.285  13.312  0.0738 -1.5385 -3.5845
 4268TIP3   OH234294   1.949   0.878   3.626  0.2126 -0.0954 -0.1098
 4268TIP3    H134295   1.973   0.970   3.632  1.1580 -0.3147 -0.4876
 4268TIP3    H234296   1.928   0.865   3.533  0.6141 -0.3885 -0.1621
 4269TIP3   OH234297   3.647   2.520   1.625 -0.5768  0.2115  0.2553
 4269TIP3    H134298   3.690   2.542   1.708 -1.2076 -0.5830  0.8093
 4269TIP3    H234299   3.717   2.517   1.561 -0.1726  1.5073  0.6353
 4270TIP3   OH234300   3.784   5.752  13.710 -0.7679 -0.3130 -0.1067
 4270TIP3    H134301   3.710   5.767  13.651 -2.8820 -2.4797  1.8963
 4270TIP3    H234302   3.802   5.659  13.702  0.0407 -0.3000  1.3481
 4271TIP3   OH234303   4.301   0.949   4.958 -0.0657  0.0328 -0.3124
 4271TIP3    H134304   4.344   1.017   4.907  0.9246 -0.0729  0.3743
 4271TIP3    H234305   4.358   0.873   4.950 -1.8953 -1.2059 -2.3056
 4272TIP3   OH234306   0.389   5.709   1.600  0.1717 -0.5793 -0.4450
 4272TIP3    H134307   0.361   5.719   1.509 -1.5239 -2.1957 -0.1377
 4272TIP3    H234308   0.409   5.798   1.629  0.6765 -0.0482 -2.3817
 4273TIP3   OH234309   3.287   5.822  10.645  0.3591 -0.3061 -0.2105
 4273TIP3    H134310   3.264   5.902  10.597 -0.8091 -1.1954 -1.1881
 4273TIP3    H234311   3.374   5.798  10.613  0.9310  0.8288  0.4556
 4274TIP3   OH234312   3.969   0.011   6.600 -0.3601  0.1534  0.7426
 4274TIP3    H134313   4.003  -0.045   6.670 -1.1994 -0.9581  0.2725
 4274TIP3    H234314   3.882   0.036   6.630 -0.5964 -0.0652  0.2503
 4275TIP3   OH234315   1.466   6.187   3.898  0.2210 -0.2556 -0.0774
 4275TIP3    H134316   1.552   6.172   3.859  0.5048  2.7310 -0.6838
 4275TIP3    H234317   1.406   6.189   3.824  0.0314  0.4065  0.0923
 4276TIP3   OH234318   5.575   2.603   1.989 -0.1020 -0.0090  0.1320
 4276TIP3    H134319   5.527   2.521   1.983  1.1559 -0.7935  0.6778
 4276TIP3    H234320   5.549   2.641   2.073  1.6515 -1.3561  1.3156
 4277TIP3   OH234321   5.872   0.837  12.882  0.3825 -0.2388  0.0770
 4277TIP3    H134322   5.791   0.873  12.918 -0.5564 -0.3749 -1.7992
 4277TIP3    H234323   5.896   0.898  12.812  2.0722 -0.0472  0.8068
 4278TIP3   OH234324   3.137   2.027  15.529  0.7872 -0.0654 -0.0966
 4278TIP3    H134325   3.232   2.030  15.516  0.5751  1.6260 -1.4941
 4278TIP3    H234326   3.106   2.112  15.498 -1.4427 -1.4379 -1.7718
 4279TIP3   OH234327   0.632   4.356   0.656 -0.4089  0.7430  0.1307
 4279TIP3    H134328   0.722   4.354   0.622  0.0384  1.7402  1.2410
 4279TIP3    H234329   0.632   4.292   0.728 -0.9792 -0.3143 -0.7907
 4280TIP3   OH234330   0.957   2.829  11.152 -0.0874 -0.0325  0.0225
 4280TIP3    H134331   0.998   2.789  11.228 -0.8616 -0.0792  0.4260
 4280TIP3    H234332   1.004   2.793  11.077  2.3354  1.8982  0.5557
 4281TIP3   OH234333   3.120   3.936  11.141  0.7100  0.0721  0.3182
 4281TIP3    H134334   3.028   3.935  11.167 -0.1459 -3.1836 -2.3320
 4281TIP3    H234335   3.168   3.921  11.222 -1.2546 -0.4979  1.4230
 4282TIP3   OH234336   4.638   5.768   4.898 -0.2871 -0.3543 -0.1080
 4282TIP3    H134337   4.644   5.698   4.963  0.8226  1.4124  1.7855
 4282TIP3    H234338   4.718   5.819   4.911 -0.8478  1.0006 -1.7671
 4283TIP3   OH234339   3.233   4.199   4.908 -0.3242  0.6344  0.0890
 4283TIP3    H134340   3.243   4.141   4.833 -1.6387 -0.1699  0.5120
 4283TIP3    H234341   3.309   4.180   4.963 -1.4618 -1.7546  0.9018
 4284TIP3   OH234342   3.872   4.844  15.021  0.2564 -0.2453  0.7348
 4284TIP3    H134343   3.842   4.929  15.053  2.1444  1.4752 -1.8252
 4284TIP3    H234344   3.867   4.851  14.925  1.3485 -2.6836  0.4586
 4285TIP3   OH234345   5.087   0.039  12.529  0.1333 -0.0757 -0.3219
 4285TIP3    H134346   5.121   0.049  12.440  0.9036  0.3072  0.0017
 4285TIP3    H234347   4.996   0.011  12.518 -0.5101  2.2689 -1.2518
 4286TIP3   OH234348   0.850   6.135  12.044  0.1322 -0.6428  0.4126
 4286TIP3    H134349   0.903   6.119  11.965  1.6785  1.0980  1.0643
 4286TIP3    H234350   0.763   6.104  12.020  0.3079  0.7928 -2.3919
 4287TIP3   OH234351   4.247   2.370   1.080  0.6917 -0.7865  0.1725
 4287TIP3    H134352   4.237   2.388   0.987 -0.8028 -0.9785  0.2849
 4287TIP3    H234353   4.332   2.407   1.103 -1.2507  4.1539 -0.0676
 4288TIP3   OH234354   0.141   3.411   4.169 -0.3896 -0.2941 -0.1323
 4288TIP3    H134355   0.224   3.385   4.129 -1.5086 -3.4663 -0.5370
 4288TIP3    H234356   0.130   3.503   4.144  2.3356 -0.2085 -1.1739
 4289TIP3   OH234357   5.307   3.539  16.404 -0.0805  0.3008  0.0813
 4289TIP3    H134358   5.338   3.629  16.410  0.3278  0.0683  1.6395
 4289TIP3    H234359   5.224   3.545  16.358  0.7051  1.2931 -1.2506
 4290TIP3   OH234360   5.016   0.134  16.045  0.8044  0.4163  0.8473
 4290TIP3    H134361   5.013   0.228  16.065 -1.2570  0.1026  2.1033
 4290TIP3    H234362   5.004   0.129  15.950  0.9908  1.4167  0.7644
 4291TIP3   OH234363   2.613   1.655  16.406 -0.3255 -0.4033 -0.0171
 4291TIP3    H134364   2.586   1.677  16.495 -0.6014  0.1694 -0.2430
 4291TIP3    H234365   2.557   1.709  16.350  0.6835  0.1346 -0.5121
 4292TIP3   OH234366   0.019   3.546   2.238  0.0304  0.1642 -0.1022
 4292TIP3    H134367  -0.000   3.456   2.264 -0.8473  0.3605 -0.0534
 4292TIP3    H234368   0.023   3.543   2.142  3.5618 -0.6171  0.0209
 4293TIP3   OH234369   1.886   5.004  12.108  0.0773 -0.1220  0.0738
 4293TIP3    H134370   1.924   4.981  12.193  0.7710  0.5682 -0.0368
 4293TIP3    H234371   1.962   5.013  12.050 -0.5211 -2.6301 -1.1428
 4294TIP3   OH234372   5.859   4.178  11.935  0.3883 -0.3854 -0.1334
 4294TIP3    H134373   5.782   4.123  11.943  1.6165 -2.1478 -0.3009
 4294TIP3    H234374   5.856   4.212  11.846  0.9889 -2.2614 -0.8845
 4295TIP3   OH234375   0.219   3.934   2.443  0.0742  0.1009  0.1521
 4295TIP3    H134376   0.230   3.931   2.538  2.6830 -1.8385 -0.1745
 4295TIP3    H234377   0.243   4.024   2.420 -0.0318  0.4306  1.2659
 4296TIP3   OH234378   3.709   5.773  16.083  0.4359 -0.0586 -0.3717
 4296TIP3    H134379   3.691   5.684  16.113  0.3110 -0.8475 -2.6531
 4296TIP3    H234380   3.662   5.829  16.144 -0.1313 -1.5985  0.6343
 4297TIP3   OH234381   4.469   1.882   4.029  0.2185 -0.3742  0.0805
 4297TIP3    H134382   4.471   1.974   4.001  0.3952 -0.5201 -0.3878
 4297TIP3    H234383   4.414   1.838   3.964 -0.3442 -0.4902  0.6343
 4298TIP3   OH234384   2.597   0.696   2.614  0.2875  0.1557  0.4793
 4298TIP3    H134385   2.571   0.650   2.534 -0.6962 -0.2728  1.0286
 4298TIP3    H234386   2.672   0.749   2.589  1.1552 -1.4136 -0.2882
 4299TIP3   OH234387   3.219   0.905   3.982 -0.3353  0.1051 -0.0127
 4299TIP3    H134388   3.254   0.901   4.071 -0.5673 -1.8104  0.0228
 4299TIP3    H234389   3.293   0.880   3.927 -0.6447 -0.3332 -0.2262
 4300TIP3   OH234390   5.309   2.158  10.783  0.3960 -0.5872 -0.2290
 4300TIP3    H134391   5.241   2.117  10.836  0.8400 -1.9599 -0.6969
 4300TIP3    H234392   5.378   2.092  10.775  1.0215  0.1461 -1.2194
 4301TIP3   OH234393   5.380   2.093  16.404 -0.4021  0.0485  0.0136
 4301TIP3    H134394   5.366   2.084  16.310 -0.6223  0.5145 -0.0006
 4301TIP3    H234395   5.309   2.151  16.433 -0.7248 -0.6147  0.5762
 4302TIP3   OH234396   4.100   5.061   3.153 -0.0107  0.0914 -0.0442
 4302TIP3    H134397   4.088   5.082   3.245 -3.5129 -0.4331 -0.3096
 4302TIP3    H234398   4.024   5.099   3.109 -0.2068 -2.5928 -2.2109
 4303TIP3   OH234399   3.192   3.238  11.817  0.0941  0.2181 -0.0059
 4303TIP3    H134400   3.127   3.174  11.788  0.6207 -0.0025 -0.6946
 4303TIP3    H234401   3.272   3.215  11.770  0.4043  1.1175  0.0630
 4304TIP3   OH234402   0.618   4.162   3.392 -0.0696 -0.2260  0.5268
 4304TIP3    H134403   0.683   4.156   3.322  0.4169 -0.9393  1.0327
 4304TIP3    H234404   0.633   4.084   3.446  0.3903  0.9428  2.1317
 4305TIP3   OH234405   3.258   2.236   6.606 -0.5638  0.0658  0.0585
 4305TIP3    H134406   3.188   2.212   6.545 -0.1499 -1.4420  0.1648
 4305TIP3    H234407   3.258   2.166   6.672  1.1082 -0.0174 -0.0034
 4306TIP3   OH234408   1.176   0.943   4.943  0.1147 -0.1608 -0.3622
 4306TIP3    H134409   1.187   1.028   4.984 -1.3847  0.3133 -0.9372
 4306TIP3    H234410   1.235   0.945   4.867  0.0541  0.3743 -0.3955
 4307TIP3   OH234411   5.717   0.806  16.327 -0.6292 -0.2310  0.0563
 4307TIP3    H134412   5.735   0.899  16.345  3.7614 -0.8249 -0.6715
 4307TIP3    H234413   5.693   0.804  16.235 -0.2454  0.1596 -0.0581
 4308TIP3   OH234414   4.893   2.110   4.220 -0.5029 -0.2472  0.3658
 4308TIP3    H134415   4.904   2.108   4.315  0.1529 -1.0023  0.2824
 4308TIP3    H234416   4.830   2.039   4.202 -1.5918  0.7041  0.3458
 4309TIP3   OH234417   5.927   4.661  17.152 -0.5473  0.0039 -0.3266
 4309TIP3    H134418   5.897   4.732  17.208 -0.6010 -0.8044  0.6956
 4309TIP3    H234419   5.986   4.609  17.208 -0.9237 -1.0413 -0.8801
 4310TIP3   OH234420   1.939   4.139  11.594 -0.9998  0.4323  0.0193
 4310TIP3    H134421   1.980   4.128  11.508 -2.3425 -1.5076 -0.4029
 4310TIP3    H234422   2.002   4.101  11.655 -0.7202  0.3956 -0.2911
 4311TIP3   OH234423   3.643   0.090  11.792  0.4618  0.4730 -0.2484
 4311TIP3    H134424   3.635   0.004  11.752  2.1024  0.5560 -0.7592
 4311TIP3    H234425   3.677   0.074  11.880  0.2725  0.5621 -0.1590
 4312TIP3   OH234426   5.030   0.890   4.224  0.1657  0.1801  0.2851
 4312TIP3    H134427   5.046   0.974   4.181  2.0781 -0.5480 -0.4799
 4312TIP3    H234428   5.104   0.835   4.198 -0.4135 -1.3579  1.7729
 4313TIP3   OH234429   2.363   2.418  14.314  0.2179  0.1460  0.3102
 4313TIP3    H134430   2.300   2.382  14.377 -0.1537 -3.0130 -1.7447
 4313TIP3    H234431   2.326   2.503  14.291 -1.0642  0.1811  2.3059
 4314TIP3   OH234432   0.248   0.328   2.499  0.1821  0.5163 -0.0146
 4314TIP3    H134433   0.337   0.352   2.527  0.1480 -0.1561  0.6668
 4314TIP3    H234434   0.261   0.285   2.414  0.7260 -1.4442  1.0237
 4315TIP3   OH234435   3.003   1.379   1.290 -0.0217  0.6681  0.4014
 4315TIP3    H134436   3.037   1.458   1.332 -1.0312  1.2585  0.1076
 4315TIP3    H234437   2.917   1.365   1.330 -0.5436  0.6419 -0.7045
 4316TIP3   OH234438   5.288   5.484   3.618  0.3035 -0.2957  0.2844
 4316TIP3    H134439   5.266   5.575   3.599  0.7725 -0.4308 -0.9773
 4316TIP3    H234440   5.326   5.485   3.705  1.2215  0.8586 -0.1283
 4317TIP3   OH234441   0.823   6.135  12.355 -0.0848  0.4082 -0.1617
 4317TIP3    H134442   0.860   6.119  12.269 -0.3311 -1.6338  0.1005
 4317TIP3    H234443   0.893   6.111  12.416 -0.4584  0.3230  0.2391
 4318TIP3   OH234444   3.527   4.325   4.248 -0.0493 -0.0647  0.2290
 4318TIP3    H134445   3.537   4.332   4.153  1.7637  0.0695  0.4207
 4318TIP3    H234446   3.458   4.388   4.270  0.1024  0.5043 -0.8993
 4319TIP3   OH234447   5.606   0.764   0.382 -0.2671  0.1081  0.2072
 4319TIP3    H134448   5.537   0.802   0.327 -1.3740  1.5681  2.5343
 4319TIP3    H234449   5.561   0.742   0.463  1.9756  0.9881  1.7173
 4320TIP3   OH234450   2.977   6.354   0.169 -0.1850 -0.3146  0.1013
 4320TIP3    H134451   3.031   6.361   0.091  0.2535 -0.0499  0.4230
 4320TIP3    H234452   3.030   6.302   0.230 -0.2525  0.0277  0.4534
 4321TIP3   OH234453   0.825   0.779  14.616 -0.0456 -0.3962  0.0585
 4321TIP3    H134454   0.855   0.823  14.696  0.5284 -0.4764 -0.1078
 4321TIP3    H234455   0.884   0.704  14.607 -0.7377 -0.9561  0.0989
 4322TIP3   OH234456   4.362   5.339   6.184 -0.0979 -0.0196 -0.9186
 4322TIP3    H134457   4.314   5.375   6.259 -0.4409 -0.2408 -1.0306
 4322TIP3    H234458   4.451   5.328   6.217 -0.6696 -1.9240  0.0748
 4323TIP3   OH234459   0.820   2.251   6.011  0.7133 -0.1203 -0.2551
 4323TIP3    H134460   0.813   2.325   6.071  0.8857 -0.9398  0.8123
 4323TIP3    H234461   0.784   2.177   6.061  0.5737 -0.7529 -1.2830
 4324TIP3   OH234462   6.185   2.501  10.653 -0.0957 -0.1247 -0.1796
 4324TIP3    H134463   6.212   2.544  10.735 -0.7804 -0.0881  0.0278
 4324TIP3    H234464   6.122   2.434  10.680  0.8247 -1.1431 -0.5251
 4325TIP3   OH234465   5.456   1.857  14.427 -0.4656  0.1747  0.5816
 4325TIP3    H134466   5.489   1.809  14.504  0.7792 -0.3126 -0.2494
 4325TIP3    H234467   5.530   1.910  14.399 -0.3700 -0.9547 -1.3315
 4326TIP3   OH234468   4.543   5.263   4.294  0.0094 -0.1828 -0.6461
 4326TIP3    H134469   4.528   5.191   4.233 -0.8477 -0.7454  0.2084
 4326TIP3    H234470   4.455   5.293   4.318  0.3399  0.2656  0.0316
 4327TIP3   OH234471   6.761   5.240   3.824 -0.9081  0.4505  0.3092
 4327TIP3    H134472   6.706   5.176   3.778  1.7013 -1.2245 -0.5965
 4327TIP3    H234473   6.795   5.193   3.900  1.3506  0.5611 -0.5805
 4328TIP3   OH234474   3.638   3.461  14.420  0.3003 -0.3870  0.8289
 4328TIP3    H134475   3.720   3.411  14.424  0.6972  0.1558 -0.2125
 4328TIP3    H234476   3.667   3.552  14.412 -0.4069 -0.1757  0.7016
 4329TIP3   OH234477   2.977   2.497  13.813 -0.2140  0.4364  0.2265
 4329TIP3    H134478   2.885   2.485  13.789  0.4347 -2.6463 -1.0179
 4329TIP3    H234479   3.020   2.521  13.731  0.2770  0.6597  0.5502
 4330TIP3   OH234480   0.122   2.658  16.978 -0.6113 -0.2417  0.2428
 4330TIP3    H134481   0.044   2.683  16.930  0.5904  0.0240 -1.5944
 4330TIP3    H234482   0.131   2.564  16.961 -1.8210 -0.7892  2.3777
 4331TIP3   OH234483   0.739   0.738   5.898 -0.4144  0.3344 -0.3966
 4331TIP3    H134484   0.772   0.649   5.912  1.2250  1.1153  0.7274
 4331TIP3    H234485   0.756   0.784   5.980  0.7624  2.3204 -1.7076
 4332TIP3   OH234486   1.355   5.365  15.250 -0.0645  0.6511 -0.5457
 4332TIP3    H134487   1.394   5.281  15.227  0.0590  0.7055 -0.5340
 4332TIP3    H234488   1.261   5.354  15.231  0.1169  0.8643 -1.5849
 4333TIP3   OH234489   2.857   0.958  16.314  0.0957  0.1378  0.0908
 4333TIP3    H134490   2.903   0.876  16.295 -0.0320  0.4158 -1.4735
 4333TIP3    H234491   2.765   0.934  16.314 -0.0462  0.6072 -2.1582
 4334TIP3   OH234492   5.845   5.009  15.643 -0.0648 -0.0103  0.2218
 4334TIP3    H134493   5.813   4.983  15.730 -0.2386 -0.7646 -0.0595
 4334TIP3    H234494   5.780   4.974  15.582  0.4505 -0.1355 -0.2597
 4335TIP3   OH234495   0.464   5.610  16.532 -0.0608 -0.0576  0.3923
 4335TIP3    H134496   0.403   5.606  16.458 -0.6755 -1.3148  0.9588
 4335TIP3    H234497   0.507   5.525  16.534  0.1114  0.0370  1.3339
 4336TIP3   OH234498   1.766   4.471  13.482  0.0303  0.9606  0.4142
 4336TIP3    H134499   1.737   4.562  13.476  0.2015  0.9081 -1.9821
 4336TIP3    H234500   1.790   4.448  13.392  1.1363 -1.0817  1.1908
 4337TIP3   OH234501   4.985   3.569   1.110 -0.0584  0.3285  0.3857
 4337TIP3    H134502   5.007   3.511   1.184  1.4478  0.1025 -0.2159
 4337TIP3    H234503   5.044   3.644   1.121 -0.7453  0.9065  0.1393
 4338TIP3   OH234504   6.650   5.015  12.162 -0.6982 -0.0910 -0.3330
 4338TIP3    H134505   6.576   5.071  12.140  0.0628  1.8007  1.7515
 4338TIP3    H234506   6.618   4.960  12.234  0.1882  1.4868  1.3213
 4339TIP3   OH234507   6.478   4.119  14.587  0.5041 -0.2520 -0.1386
 4339TIP3    H134508   6.506   4.039  14.631  1.0636  0.0363  0.0260
 4339TIP3    H234509   6.510   4.190  14.642 -0.8648  0.0804  0.2582
 4340TIP3   OH234510   4.823   4.397   5.185  0.0208  0.2557  0.3580
 4340TIP3    H134511   4.909   4.404   5.227  0.3738 -1.7383  0.0075
 4340TIP3    H234512   4.761   4.422   5.253  0.7732  0.1031  1.1119
 4341TIP3   OH234513   3.901   1.428  15.583 -0.1674  0.3829 -0.3401
 4341TIP3    H134514   3.818   1.468  15.607  1.4454  3.4957  0.2316
 4341TIP3    H234515   3.967   1.493  15.606  2.4416 -1.9408 -0.9636
 4342TIP3   OH234516   2.202   0.840   5.113  0.9519 -0.0774  0.0258
 4342TIP3    H134517   2.234   0.872   5.197  1.2987 -1.5620  0.4895
 4342TIP3    H234518   2.191   0.918   5.059 -0.4225  0.9891  1.8336
 4343TIP3   OH234519   5.424   3.127  10.472  0.3416 -0.1599  0.1600
 4343TIP3    H134520   5.366   3.182  10.419  0.3590 -0.2928  0.0031
 4343TIP3    H234521   5.365   3.067  10.518  0.4726 -1.6831 -1.5800
 4344TIP3   OH234522   5.174   5.320   4.740 -0.0932  0.4199 -0.3617
 4344TIP3    H134523   5.254   5.362   4.710 -0.3386  0.9664 -0.2551
 4344TIP3    H234524   5.114   5.392   4.758 -0.4760  0.0303 -0.0597
 4345TIP3   OH234525   0.276   5.723   2.222  0.1647  0.7967 -0.0713
 4345TIP3    H134526   0.204   5.661   2.211 -0.1192  1.1379 -0.1291
 4345TIP3    H234527   0.333   5.706   2.146 -0.0022  0.7278 -0.1833
 4346TIP3   OH234528   3.690   2.713   4.962  0.0787 -0.2105  0.0595
 4346TIP3    H134529   3.648   2.799   4.962  0.2593 -0.1167  0.9179
 4346TIP3    H234530   3.645   2.664   5.031 -0.2857 -0.9326 -0.6908
 4347TIP3   OH234531   3.094   1.942  11.847  0.4762 -0.3447  0.3967
 4347TIP3    H134532   3.090   2.009  11.915 -1.2813 -0.7038  0.6605
 4347TIP3    H234533   3.003   1.913  11.836  0.5995  0.1977 -2.5628
 4348TIP3   OH234534   4.860   6.748   3.753  0.3714  0.2881 -0.3447
 4348TIP3    H134535   4.893   6.675   3.805  0.8459 -0.7875 -2.0973
 4348TIP3    H234536   4.768   6.729   3.740  0.0791  0.9467  0.7238
 4349TIP3   OH234537   3.488   0.178  16.780 -0.2916  0.4614 -0.0614
 4349TIP3    H134538   3.580   0.162  16.802 -0.4180  0.6708  0.6119
 4349TIP3    H234539   3.479   0.144  16.691 -0.2389 -2.1289  0.8634
 4350TIP3   OH234540   1.475   5.977  11.898 -0.0112 -0.2279 -0.2748
 4350TIP3    H134541   1.559   5.956  11.939 -0.8358 -1.6665  0.7682
 4350TIP3    H234542   1.458   6.068  11.923  1.3057  0.1271 -0.6398
 4351TIP3   OH234543   0.095   6.375  14.425  0.1082 -0.0643  0.2746
 4351TIP3    H134544   0.129   6.292  14.392  1.3429 -0.1773  1.8038
 4351TIP3    H234545   0.046   6.351  14.504 -0.2681  0.5580  0.2323
 4352TIP3   OH234546   5.469   6.730   1.742 -0.6037  0.0196 -0.2402
 4352TIP3    H134547   5.494   6.691   1.658 -1.6011  0.2296 -0.6425
 4352TIP3    H234548   5.376   6.708   1.751 -0.2107 -1.0639  1.3850
 4353TIP3   OH234549   4.195   0.141   4.567  0.0607 -0.0435  0.3777
 4353TIP3    H134550   4.118   0.194   4.582 -0.5905 -1.2363  1.3401
 4353TIP3    H234551   4.161   0.056   4.539  1.0645 -0.1697 -0.5315
 4354TIP3   OH234552   6.659   4.488   0.936 -0.0515  0.1116 -0.0607
 4354TIP3    H134553   6.702   4.539   1.004  2.1627  0.5587 -1.7410
 4354TIP3    H234554   6.599   4.549   0.893 -1.6976 -0.2597  1.6519
 4355TIP3   OH234555   6.669   0.829   3.729  0.1624  0.5632  0.4880
 4355TIP3    H134556   6.636   0.896   3.669 -1.3985  0.5662  1.3183
 4355TIP3    H234557   6.744   0.791   3.683  0.2924  2.0016 -0.5396
 4356TIP3   OH234558   4.009   5.601   2.279  0.0310 -0.4451 -0.6004
 4356TIP3    H134559   4.095   5.597   2.321 -0.4370 -2.8115  0.1656
 4356TIP3    H234560   3.995   5.695   2.263  1.9465  0.1286  0.9016
 4357TIP3   OH234561   2.772   5.601   3.511  0.6724 -0.2888  0.6470
 4357TIP3    H134562   2.811   5.688   3.501 -1.8994  0.8510  0.1723
 4357TIP3    H234563   2.716   5.608   3.588 -1.8033 -0.6228 -1.0531
 4358TIP3   OH234564   5.539   1.279  15.549 -0.0051 -0.4179 -0.2940
 4358TIP3    H134565   5.483   1.232  15.488 -1.2090  1.8744 -1.0100
 4358TIP3    H234566   5.621   1.292  15.502 -1.0264  1.5987 -1.6033
 4359TIP3   OH234567   1.303   1.265  15.165 -0.0459  0.4615 -0.4488
 4359TIP3    H134568   1.249   1.225  15.098 -0.9707  0.8417  0.0474
 4359TIP3    H234569   1.323   1.353  15.131  1.3710 -0.1426 -1.2146
 4360TIP3   OH234570   0.557   5.269   1.109 -0.7554  0.1597 -0.3051
 4360TIP3    H134571   0.465   5.287   1.131 -0.1441 -0.5316  3.0415
 4360TIP3    H234572   0.566   5.174   1.118  0.8395  0.4821  1.7616
 4361TIP3   OH234573   2.310   6.211   6.022 -0.2774 -0.3286 -0.2432
 4361TIP3    H134574   2.355   6.268   5.959  0.1834  0.3631  0.7117
 4361TIP3    H234575   2.276   6.271   6.088  2.3055 -1.3821  2.0910
 4362TIP3   OH234576   4.930   2.645  16.636  0.0244  0.4517 -0.2094
 4362TIP3    H134577   4.961   2.686  16.555  0.2754 -0.3052 -0.5029
 4362TIP3    H234578   4.838   2.624  16.619  0.0066  0.5320 -0.2072
 4363TIP3   OH234579   3.587   6.692  13.010 -0.0785  0.7079  0.0415
 4363TIP3    H134580   3.604   6.640  12.932  2.7797  1.2549  0.2612
 4363TIP3    H234581   3.571   6.628  13.079  2.4176  0.0866  0.0884
 4364TIP3   OH234582   6.636   6.530  15.333  0.2289  0.0407  0.0774
 4364TIP3    H134583   6.681   6.580  15.400 -1.0647  0.9715  0.2596
 4364TIP3    H234584   6.561   6.491  15.377  1.4447 -2.4640  0.0501
 4365TIP3   OH234585   3.487   3.983  16.880  0.5155  0.0682  0.4352
 4365TIP3    H134586   3.489   3.979  16.976  0.8533  0.4584  0.4492
 4365TIP3    H234587   3.578   3.966  16.854  1.0269  2.7607  0.3135
 4366TIP3   OH234588   4.184   1.909   5.895 -0.3042 -0.1165  0.4551
 4366TIP3    H134589   4.260   1.850   5.893 -0.5878 -0.4704 -1.7712
 4366TIP3    H234590   4.221   1.995   5.912  0.5411 -0.4044  0.1216
 4367TIP3   OH234591   3.864   2.041   4.935 -0.2009  0.2049  0.1766
 4367TIP3    H134592   3.885   1.971   4.997 -0.3759  0.6031  0.6890
 4367TIP3    H234593   3.909   2.016   4.854  1.7153  0.7034  1.0533
 4368TIP3   OH234594   4.774   0.428  13.593 -0.1736  0.4536 -0.3713
 4368TIP3    H134595   4.814   0.471  13.517 -2.7024  0.5900 -1.7077
 4368TIP3    H234596   4.688   0.470  13.601 -1.3909 -2.0553  0.3034
 4369TIP3   OH234597   4.941   4.875   1.640  0.9648 -0.1142  0.7067
 4369TIP3    H134598   5.019   4.833   1.677  0.0311 -2.8991 -0.3354
 4369TIP3    H234599   4.965   4.891   1.548  0.3785 -0.7939  0.4363
 4370TIP3   OH234600   1.521   4.630  11.295 -0.3726  0.5163 -0.2977
 4370TIP3    H134601   1.517   4.687  11.372  1.5464 -1.2233  1.1398
 4370TIP3    H234602   1.453   4.564  11.310  2.7501 -2.3049  2.0279
 4371TIP3   OH234603   4.154   1.762  15.534 -0.1110 -0.1354  0.1795
 4371TIP3    H134604   4.073   1.813  15.539 -0.2191 -0.1273 -1.3490
 4371TIP3    H234605   4.134   1.692  15.472  0.5285 -1.1188  1.0894
 4372TIP3   OH234606   2.853   3.174  11.513  0.0918 -0.1062 -0.0983
 4372TIP3    H134607   2.774   3.139  11.474  0.5287 -0.1896 -0.9065
 4372TIP3    H234608   2.898   3.220  11.442  1.4555 -1.2284  0.0033
 4373TIP3   OH234609   5.307   1.339   0.323  0.0869 -0.6006  0.0310
 4373TIP3    H134610   5.309   1.334   0.228  1.3750 -1.5687  0.0913
 4373TIP3    H234611   5.323   1.431   0.343  2.6247 -0.8318 -0.6700
 4374TIP3   OH234612   1.168   1.275   3.496  0.0736 -0.1413  0.1416
 4374TIP3    H134613   1.119   1.206   3.451  3.7907 -1.7422 -1.6326
 4374TIP3    H234614   1.242   1.229   3.537  0.1295  2.1778  2.7877
 4375TIP3   OH234615   6.085   1.397   4.220  0.4946 -0.7428 -0.4486
 4375TIP3    H134616   6.064   1.306   4.200  0.3663 -0.5368 -1.3015
 4375TIP3    H234617   6.000   1.440   4.231  0.5662 -0.8650  0.6303
 4376TIP3   OH234618   0.349   2.723  15.412  0.4467 -0.2814  0.1664
 4376TIP3    H134619   0.294   2.767  15.477 -0.7372 -1.0602 -0.2739
 4376TIP3    H234620   0.293   2.653  15.378  1.5873 -0.8319 -0.5969
 4377TIP3   OH234621   1.458   2.643   1.808  0.4850  0.8098 -0.3132
 4377TIP3    H134622   1.387   2.707   1.819  0.4285  0.9267 -1.2413
 4377TIP3    H234623   1.516   2.684   1.744  0.2627 -0.2095 -1.1796
 4378TIP3   OH234624   6.711   3.201   0.935  0.6906  0.5247  0.1171
 4378TIP3    H134625   6.622   3.226   0.962  0.4492 -0.0357 -0.1566
 4378TIP3    H234626   6.760   3.283   0.936  0.1785  0.8313  0.3062
 4379TIP3   OH234627   3.345   2.850  16.354  0.3434  0.2390  0.7745
 4379TIP3    H134628   3.324   2.932  16.399 -0.3624 -0.0631  1.0093
 4379TIP3    H234629   3.282   2.787  16.389 -0.4211  0.0728 -0.8594
 4380TIP3   OH234630   2.342   4.021  16.137  0.4473 -0.3337  0.0114
 4380TIP3    H134631   2.287   3.996  16.063 -0.4765  0.4489  0.4337
 4380TIP3    H234632   2.350   3.941  16.189  2.6259 -1.4193 -1.8712
 4381TIP3   OH234633   3.645   5.442  11.742  0.5328  0.6396  0.1153
 4381TIP3    H134634   3.740   5.434  11.734  0.5105  0.4961 -0.0045
 4381TIP3    H234635   3.631   5.534  11.764  0.7819  0.3775  1.4399
 4382TIP3   OH234636   0.837   0.006   6.157 -0.3164  0.6579 -0.2969
 4382TIP3    H134637   0.811   0.070   6.090  0.0406 -1.1637 -2.2112
 4382TIP3    H234638   0.915   0.045   6.198  0.6131  0.9307 -2.2584
 4383TIP3   OH234639   1.752   1.201  14.980 -0.1889 -0.1888  0.2389
 4383TIP3    H134640   1.827   1.196  14.921  0.8712  0.5440  1.4881
 4383TIP3    H234641   1.711   1.115  14.976  0.9734 -0.7239 -0.1152
 4384TIP3   OH234642   4.728   1.515   2.866  0.0142  0.4417  0.1261
 4384TIP3    H134643   4.712   1.605   2.838  0.3610  0.2293 -0.7745
 4384TIP3    H234644   4.730   1.465   2.785 -1.8174 -0.6412  0.7403
 4385TIP3   OH234645   0.027   0.235   1.743 -0.3761  0.4854  0.4962
 4385TIP3    H134646  -0.038   0.302   1.719 -0.8746 -0.4258 -0.7490
 4385TIP3    H234647  -0.021   0.174   1.799 -0.0370  0.9251  1.2716
 4386TIP3   OH234648   6.345   1.821   0.818 -0.3200 -0.0078 -0.3440
 4386TIP3    H134649   6.347   1.916   0.823  0.4158 -0.0561  0.5609
 4386TIP3    H234650   6.403   1.792   0.890 -0.5638 -1.1259 -0.5835
 4387TIP3   OH234651   0.526   3.012   3.280  0.0663  0.0304  0.5897
 4387TIP3    H134652   0.606   3.034   3.232 -0.3925  0.0867 -0.1743
 4387TIP3    H234653   0.479   3.095   3.287  0.3128  0.0978  1.4992
 4388TIP3   OH234654   4.260   4.996   1.247  0.2152  0.2682 -0.0975
 4388TIP3    H134655   4.167   4.982   1.265 -0.5825  1.5990 -2.9705
 4388TIP3    H234656   4.267   4.993   1.152  3.0877  0.5099  0.0602
 4389TIP3   OH234657   2.764   2.637  11.240 -0.4346  0.2650  0.2845
 4389TIP3    H134658   2.763   2.677  11.153  2.2811 -0.0905  0.0231
 4389TIP3    H234659   2.737   2.707  11.300 -1.3283  0.7979 -0.7343
 4390TIP3   OH234660   2.453   2.315   4.242 -0.4485  0.1277  0.0186
 4390TIP3    H134661   2.370   2.329   4.289  0.8148 -0.4317  2.4723
 4390TIP3    H234662   2.520   2.350   4.301  1.3269 -2.0378 -0.6687
 4391TIP3   OH234663   4.913   0.486   6.019  0.3309  0.6580  0.9386
 4391TIP3    H134664   4.979   0.493   6.087  2.2631 -0.8116 -0.7222
 4391TIP3    H234665   4.887   0.394   6.019  0.3815  0.6273 -0.2998
 4392TIP3   OH234666   1.425   3.722  12.363  0.7558 -0.0890  0.0285
 4392TIP3    H134667   1.417   3.815  12.341 -0.6157 -0.1846  0.0896
 4392TIP3    H234668   1.351   3.705  12.421  0.2005 -1.5630 -1.0937
 4393TIP3   OH234669   4.663   2.001   0.073  0.3100 -0.0409 -0.0125
 4393TIP3    H134670   4.682   1.910   0.049 -0.9330  0.0074 -1.2515
 4393TIP3    H234671   4.603   2.032   0.005 -0.6323  1.1742  1.3319
 4394TIP3   OH234672   1.991   4.834  14.662 -0.4608  0.3359  0.1798
 4394TIP3    H134673   2.070   4.884  14.680 -0.5862  0.3369  0.7196
 4394TIP3    H234674   1.920   4.889  14.692 -0.6449  0.1595  0.0671
 4395TIP3   OH234675   3.540   0.563   2.229 -0.1880 -0.3179  0.0612
 4395TIP3    H134676   3.575   0.529   2.312 -0.9161  0.1978  0.5806
 4395TIP3    H234677   3.464   0.615   2.255 -0.0635  0.3299 -0.8852
 4396TIP3   OH234678   2.168   1.892  15.615 -0.6108 -0.0330  0.3363
 4396TIP3    H134679   2.107   1.861  15.548 -1.3836 -1.3609  1.6648
 4396TIP3    H234680   2.248   1.912  15.566 -0.9212 -1.7164 -0.8798
 4397TIP3   OH234681   6.294   0.592  13.828 -0.0575  0.5453 -1.0436
 4397TIP3    H134682   6.338   0.629  13.752  2.8047  0.2420  0.3895
 4397TIP3    H234683   6.294   0.497  13.813  0.5810  0.4784 -0.6622
 4398TIP3   OH234684   6.150   0.965  11.413  0.0943  0.1325  0.1942
 4398TIP3    H134685   6.152   0.924  11.500  1.6152  0.4691  0.3406
 4398TIP3    H234686   6.101   0.904  11.359  2.3887 -1.9851  0.3997
 4399TIP3   OH234687   6.029   6.393   0.783 -0.7686 -0.4858  0.3666
 4399TIP3    H134688   6.097   6.375   0.719 -1.1480  0.9950 -0.4739
 4399TIP3    H234689   5.949   6.403   0.732 -1.3325 -0.6407  1.1991
 4400TIP3   OH234690   2.638   2.381   0.873 -0.3016 -0.6677 -0.0941
 4400TIP3    H134691   2.631   2.312   0.940  1.4254 -0.6961  0.0823
 4400TIP3    H234692   2.732   2.399   0.867 -0.5628  0.2832 -1.5696
 4401TIP3   OH234693   4.414   5.763  11.739  0.2403  0.3771 -0.7062
 4401TIP3    H134694   4.426   5.858  11.744 -0.9445  0.5190 -0.5370
 4401TIP3    H234695   4.423   5.734  11.830  2.4971  0.0810 -0.9880
 4402TIP3   OH234696   0.090   5.670   5.233 -0.2246 -0.1876  0.2836
 4402TIP3    H134697   0.066   5.583   5.200 -0.0601 -0.5422  1.0860
 4402TIP3    H234698   0.034   5.730   5.185 -0.6771 -0.7800  0.0608
 4403TIP3   OH234699   2.118   3.769   0.240 -0.0975  0.1243  0.0709
 4403TIP3    H134700   2.062   3.693   0.256  2.0455 -1.1348  1.7751
 4403TIP3    H234701   2.107   3.824   0.317  1.6023 -0.5256  0.8011
 4404TIP3   OH234702   0.658   6.660   6.567 -0.1666 -0.0177 -0.0666
 4404TIP3    H134703   0.660   6.572   6.606  0.7284  0.1904  0.3805
 4404TIP3    H234704   0.568   6.690   6.579 -0.3296 -0.6389  0.2963
 4405TIP3   OH234705   6.119   5.882  11.791 -0.3302  0.7090  0.2007
 4405TIP3    H134706   6.143   5.967  11.754 -0.8064 -0.2856 -2.5375
 4405TIP3    H234707   6.089   5.831  11.716 -0.2813 -1.8134  1.8317
 4406TIP3   OH234708   2.823   1.087  15.600  0.0698  0.4451  0.0259
 4406TIP3    H134709   2.741   1.129  15.574 -0.5490 -0.2749  0.7766
 4406TIP3    H234710   2.873   1.078  15.519 -0.3600  1.3774 -0.3541
 4407TIP3   OH234711   6.431   2.888  14.383  0.4233  0.0503  0.7930
 4407TIP3    H134712   6.487   2.810  14.383  0.1468 -0.1510  1.2165
 4407TIP3    H234713   6.392   2.889  14.471 -1.6532 -0.8219 -0.0802
 4408TIP3   OH234714   2.150   4.108   3.609  0.2117 -0.1171 -0.3412
 4408TIP3    H134715   2.143   4.202   3.589  1.9845  0.1596  0.2008
 4408TIP3    H234716   2.165   4.067   3.524  0.2468  0.1992 -0.4920
 4409TIP3   OH234717   3.536   2.582  16.517  0.3103  0.1521 -0.3360
 4409TIP3    H134718   3.470   2.555  16.452  1.4287 -2.0678 -0.5759
 4409TIP3    H234719   3.493   2.652  16.567 -1.4898  0.1355 -1.8019
 4410TIP3   OH234720   3.764   3.277  12.743  0.2080  1.0586 -0.2096
 4410TIP3    H134721   3.742   3.199  12.693  0.0862  1.6138 -1.0266
 4410TIP3    H234722   3.717   3.266  12.826 -0.0556  0.4146 -0.4440
 4411TIP3   OH234723   0.425   5.882  12.766 -0.8123 -0.1024  0.1645
 4411TIP3    H134724   0.406   5.972  12.791  0.3915  0.1996  0.0474
 4411TIP3    H234725   0.517   5.884  12.738 -1.5745 -0.7820 -2.5410
 4412TIP3   OH234726   3.274   1.620   2.242  0.1695  0.1595  0.5029
 4412TIP3    H134727   3.246   1.548   2.186 -1.0896  0.1850  1.0949
 4412TIP3    H234728   3.360   1.594   2.274  1.6081  0.7870 -2.5913
 4413TIP3   OH234729   2.191   5.318   5.953 -0.5640  0.7179 -0.9523
 4413TIP3    H134730   2.222   5.228   5.943  0.5935  1.0260 -0.2491
 4413TIP3    H234731   2.208   5.339   6.045 -1.3472  1.4652 -0.9744
 4414TIP3   OH234732   2.100   2.972  13.947 -0.3641  0.1330  0.3315
 4414TIP3    H134733   2.049   2.955  13.868  1.1976  2.6064 -1.2762
 4414TIP3    H234734   2.149   2.891  13.962  0.4788  0.1416 -2.1437
 4415TIP3   OH234735   0.685   0.177   3.943 -0.4283  0.2558  0.0251
 4415TIP3    H134736   0.664   0.092   3.981  0.5435  0.6193  1.4329
 4415TIP3    H234737   0.679   0.164   3.848 -2.1465 -0.8696  0.2762
 4416TIP3   OH234738   3.069   0.319  15.568 -0.1782 -0.1501  0.1801
 4416TIP3    H134739   3.029   0.345  15.485  0.6365 -0.2092 -0.2400
 4416TIP3    H234740   3.108   0.234  15.549  0.7257  0.2106  0.3805
 4417TIP3   OH234741   2.091   3.627  15.468  0.5885 -0.4232 -0.1543
 4417TIP3    H134742   2.107   3.535  15.487  1.2771 -0.6618 -1.7915
 4417TIP3    H234743   2.166   3.654  15.414  0.2383  1.0042  0.0434
 4418TIP3   OH234744   6.768   3.034  12.728  0.2256 -0.2450  0.2563
 4418TIP3    H134745   6.755   2.950  12.685  0.8065  0.2773 -0.9589
 4418TIP3    H234746   6.848   3.022  12.780 -1.2095 -1.2924  2.2843
 4419TIP3   OH234747   5.143   0.670   4.480  0.2324 -0.2092 -0.3767
 4419TIP3    H134748   5.109   0.681   4.569  1.1358 -1.7866  0.1800
 4419TIP3    H234749   5.162   0.759   4.451  1.7691  0.1848  1.7391
 4420TIP3   OH234750   2.300   6.697  12.055  0.0252 -0.1429  0.1781
 4420TIP3    H134751   2.322   6.785  12.023 -1.0823  0.3200  0.6745
 4420TIP3    H234752   2.329   6.639  11.984 -0.8525  0.7518 -0.9449
 4421TIP3   OH234753   5.394   0.760   0.632  0.4272  0.0159  0.0095
 4421TIP3    H134754   5.367   0.838   0.680 -1.2781 -1.3332  1.3095
 4421TIP3    H234755   5.463   0.721   0.686 -0.0553 -0.3868  0.3466
 4422TIP3   OH234756   5.289   3.183  11.039 -0.2077  0.4444 -0.0986
 4422TIP3    H134757   5.205   3.196  11.082 -0.1775 -0.5878  0.2587
 4422TIP3    H234758   5.267   3.144  10.954 -0.1583  1.1488 -0.4448
 4423TIP3   OH234759   1.030   1.632  13.032  0.1384  0.7819 -0.2078
 4423TIP3    H134760   1.112   1.623  13.081 -0.5616  1.1625  1.0604
 4423TIP3    H234761   0.992   1.544  13.033 -0.3855  1.0062  0.8777
 4424TIP3   OH234762   5.243   3.476  13.238 -0.8108 -0.2552 -0.1014
 4424TIP3    H134763   5.274   3.386  13.222 -0.3219 -0.0018 -0.5775
 4424TIP3    H234764   5.175   3.466  13.305 -0.0115 -0.8654  0.6388
 4425TIP3   OH234765   0.426   2.438   2.487  0.1687  0.1325 -0.3601
 4425TIP3    H134766   0.503   2.491   2.467  0.1640  0.0903 -0.4903
 4425TIP3    H234767   0.394   2.473   2.571 -1.4959  2.2311 -1.8118
 4426TIP3   OH234768   3.010   5.735  14.933  0.1587  0.0046  0.5641
 4426TIP3    H134769   2.964   5.692  15.006  0.4275 -2.0726 -0.4736
 4426TIP3    H234770   2.980   5.689  14.855  0.5760  1.6280 -0.5784
 4427TIP3   OH234771   1.765   1.070   0.700  0.3996  0.0878  0.3438
 4427TIP3    H134772   1.796   1.084   0.610 -0.5608  0.3215  0.0501
 4427TIP3    H234773   1.760   0.975   0.709  0.1994  0.0705  0.0495
 4428TIP3   OH234774   5.007   3.242   6.313 -0.5025  0.3936  0.4315
 4428TIP3    H134775   5.079   3.179   6.318 -1.5275 -0.8112  0.0359
 4428TIP3    H234776   4.989   3.265   6.404  0.5461  0.8990  0.5222
 4429TIP3   OH234777   3.964   4.902  11.774  0.3356  0.5756  0.1193
 4429TIP3    H134778   3.927   4.906  11.686  0.7355  1.2762 -0.0193
 4429TIP3    H234779   3.889   4.888  11.832  0.2021 -1.0022 -0.4311
 4430TIP3   OH234780   5.377   4.076  13.982 -0.0545 -0.1454 -0.3831
 4430TIP3    H134781   5.303   4.125  13.946  0.1169 -0.5294 -1.2507
 4430TIP3    H234782   5.342   3.988  13.998 -0.6604  0.5147  2.1595
 4431TIP3   OH234783   6.115   4.415   4.384  0.1061  0.1569  0.3771
 4431TIP3    H134784   6.144   4.382   4.468 -0.5156 -0.4042  0.3765
 4431TIP3    H234785   6.111   4.337   4.327  1.4048  0.6597 -0.4284
 4432TIP3   OH234786   4.139   6.374   1.223 -0.4189 -0.3689  0.0620
 4432TIP3    H134787   4.059   6.389   1.274 -0.6001 -0.2690 -0.2518
 4432TIP3    H234788   4.109   6.335   1.141 -0.2044  0.2135 -0.3009
 4433TIP3   OH234789   3.315   0.204   3.962 -0.0349 -0.4098  1.0003
 4433TIP3    H134790   3.313   0.299   3.977 -1.1366 -0.3306  0.3941
 4433TIP3    H234791   3.405   0.186   3.936  0.4788  0.2968  2.2620
 4434TIP3   OH234792   3.987   2.544  17.163  0.2937 -0.7619  0.0286
 4434TIP3    H134793   4.061   2.559  17.223  0.2916  2.0662 -0.6177
 4434TIP3    H234794   4.028   2.522  17.080  0.4036  0.3109 -0.2035
 4435TIP3   OH234795   1.645   6.101  16.959 -0.5723  0.4211 -0.3531
 4435TIP3    H134796   1.717   6.140  17.010 -0.2723  0.6879 -0.9692
 4435TIP3    H234797   1.675   6.013  16.939 -0.6396  0.3554 -0.1567
 4436TIP3   OH234798   0.132   4.842  14.091  0.0310 -0.4352 -0.3645
 4436TIP3    H134799   0.163   4.797  14.170  0.7258 -0.0193 -0.3952
 4436TIP3    H234800   0.067   4.904  14.122 -2.3507 -2.7607 -0.5287
 4437TIP3   OH234801   1.587   1.514  14.712  0.4369 -0.4781 -0.4383
 4437TIP3    H134802   1.656   1.498  14.647  1.6167  1.1080  0.3824
 4437TIP3    H234803   1.512   1.544  14.660  0.6663 -1.3221 -1.2657
 4438TIP3   OH234804   0.659   3.408   3.770 -0.1832 -0.2177  0.0511
 4438TIP3    H134805   0.665   3.327   3.720  1.0515  0.5761 -1.1295
 4438TIP3    H234806   0.749   3.428   3.795 -0.6043  0.2129  1.2951
 4439TIP3   OH234807   0.176   0.422  16.046  0.2220  0.6215  0.1186
 4439TIP3    H134808   0.261   0.398  16.082  1.3779  0.1722 -2.8037
 4439TIP3    H234809   0.196   0.489  15.980 -1.7440  0.8948 -0.2229
 4440TIP3   OH234810   5.312   4.080  15.282  0.6928  0.3425 -0.1410
 4440TIP3    H134811   5.217   4.087  15.295  0.3162  0.9908 -2.8309
 4440TIP3    H234812   5.337   4.000  15.329 -1.3457 -0.3324 -0.1356
 4441TIP3   OH234813   4.518   6.523  14.681  0.0992  0.0039 -0.0843
 4441TIP3    H134814   4.528   6.443  14.733  2.1948 -0.2042 -0.7364
 4441TIP3    H234815   4.562   6.503  14.598  2.0154  2.3275  0.3023
 4442TIP3   OH234816   4.176   3.090   1.832  0.6232 -0.0173  0.1837
 4442TIP3    H134817   4.162   3.045   1.915  0.3110 -0.1969  0.0355
 4442TIP3    H234818   4.108   3.157   1.829  1.2014  0.5855  0.4865
 4443TIP3   OH234819   1.153   3.648  13.562  0.6843 -0.0324 -0.3038
 4443TIP3    H134820   1.223   3.583  13.569  0.0977 -0.4891  2.0641
 4443TIP3    H234821   1.171   3.710  13.633  1.0165  2.2191 -2.2868
 4444TIP3   OH234822   5.425   6.053   2.633  0.3761 -0.2760  0.1535
 4444TIP3    H134823   5.440   5.983   2.697 -0.8041 -0.8725 -0.2065
 4444TIP3    H234824   5.379   6.121   2.683  0.6597 -0.1670  0.2670
 4445TIP3   OH234825   4.197   3.977   2.840  0.6228  0.1573  0.5720
 4445TIP3    H134826   4.273   4.004   2.788 -1.0274  1.0166 -1.4460
 4445TIP3    H234827   4.195   3.882   2.831  0.7589  0.2370 -0.3669
 4446TIP3   OH234828   2.768   5.868  15.667  0.1896 -0.0579  0.8457
 4446TIP3    H134829   2.826   5.870  15.744  2.0141  1.6352 -0.4828
 4446TIP3    H234830   2.698   5.930  15.688  0.7306  0.4642  1.1463
 4447TIP3   OH234831   6.711   6.127  12.932  0.1870  0.3726  0.0305
 4447TIP3    H134832   6.635   6.075  12.903 -0.5755  0.8365  1.1506
 4447TIP3    H234833   6.748   6.076  13.004  0.8688  0.2157 -0.4271
 4448TIP3   OH234834   1.809   6.451  13.397 -0.0329 -0.2384 -0.4201
 4448TIP3    H134835   1.758   6.370  13.397 -0.5473  0.0782  1.5029
 4448TIP3    H234836   1.796   6.489  13.484  1.0685  1.3744 -0.9236
 4449TIP3   OH234837   3.097   4.404   5.626 -0.1959  0.0627 -0.0074
 4449TIP3    H134838   3.056   4.397   5.539 -0.4244 -0.6616  0.1500
 4449TIP3    H234839   3.024   4.426   5.685 -0.5915 -2.2995  0.4443
 4450TIP3   OH234840   2.917   5.251   0.301  0.5226  0.4636  0.0943
 4450TIP3    H134841   2.887   5.307   0.373  1.1255 -0.8757  1.4336
 4450TIP3    H234842   3.011   5.244   0.313  0.4161 -1.1464  0.2297
 4451TIP3   OH234843   5.840   5.909  14.882  0.4256 -0.2298  0.0539
 4451TIP3    H134844   5.831   5.903  14.977  1.2510  1.4819  0.2499
 4451TIP3    H234845   5.752   5.930  14.851  0.7635  2.2446  0.7135
 4452TIP3   OH234846   3.255   6.189   1.671  0.4822  0.4936  0.1541
 4452TIP3    H134847   3.313   6.246   1.621 -0.8554  1.0502 -0.7695
 4452TIP3    H234848   3.301   6.177   1.755  1.1181  2.3345  0.0953
 4453TIP3   OH234849   3.247   1.669   0.621  0.0724  0.4769  0.0860
 4453TIP3    H134850   3.307   1.651   0.693  1.2660  0.4881 -0.8871
 4453TIP3    H234851   3.207   1.585   0.601  0.8491  0.1807 -0.2193
 4454TIP3   OH234852   5.463   5.047   2.510 -0.7219 -0.3784  0.1513
 4454TIP3    H134853   5.456   4.958   2.476 -0.5039 -0.7397  1.0340
 4454TIP3    H234854   5.443   5.039   2.603 -2.2357  0.7462 -0.0683
 4455TIP3   OH234855   5.518   6.066   1.698 -0.3213  0.0939 -0.0510
 4455TIP3    H134856   5.458   6.105   1.762 -1.5888 -0.4623 -0.8896
 4455TIP3    H234857   5.532   6.136   1.634 -0.1208  0.2067  0.1160
 4456TIP3   OH234858   0.169   2.349   1.748  0.3730  0.7667 -0.5579
 4456TIP3    H134859   0.202   2.418   1.690  1.4370  0.8365  0.1237
 4456TIP3    H234860   0.206   2.369   1.834 -0.5725  0.2265 -0.0116
 4457TIP3   OH234861   2.948   6.158   0.767 -0.3502  0.2183 -0.1613
 4457TIP3    H134862   3.033   6.200   0.773 -0.1032 -0.2783 -0.1586
 4457TIP3    H234863   2.899   6.192   0.843  0.2876 -0.4826  0.5763
 4458TIP3   OH234864   6.533   0.666  13.716  0.4366  0.1766  0.7329
 4458TIP3    H134865   6.587   0.679  13.638  0.0110 -1.5103  0.1439
 4458TIP3    H234866   6.535   0.572  13.731 -1.1766  0.2671  1.5453
 4459TIP3   OH234867   4.920   5.792  14.942  0.2189  0.3063 -0.2168
 4459TIP3    H134868   4.939   5.785  15.036 -1.1615  0.3019  0.0781
 4459TIP3    H234869   4.983   5.734  14.900 -0.0345 -0.7237  0.8163
 4460TIP3   OH234870   6.104   4.456   3.940 -0.0575 -0.5202 -0.1886
 4460TIP3    H134871   6.159   4.512   3.995 -0.6734  0.8338 -0.9146
 4460TIP3    H234872   6.074   4.387   3.999 -0.1577  0.5203  1.0169
 4461TIP3   OH234873   5.409   1.129  11.320 -0.0873 -0.4977  0.3071
 4461TIP3    H134874   5.316   1.149  11.326  0.2793  1.5419 -0.1688
 4461TIP3    H234875   5.448   1.174  11.395  0.5664 -0.9668  0.2510
 4462TIP3   OH234876   6.211   3.559  15.228 -0.4474 -0.7173 -0.7854
 4462TIP3    H134877   6.304   3.538  15.226 -0.0365  0.5410  2.2401
 4462TIP3    H234878   6.177   3.514  15.305 -1.9061  0.4360 -0.7247
 4463TIP3   OH234879   1.036   1.207  14.571 -0.1961 -0.4789 -0.1288
 4463TIP3    H134880   1.079   1.289  14.597 -0.3899 -0.1760 -0.7471
 4463TIP3    H234881   1.000   1.172  14.652 -0.5010  0.2780  0.0719
 4464TIP3   OH234882   5.629   1.366  10.525 -0.0698 -0.3200 -0.0811
 4464TIP3    H134883   5.543   1.347  10.562  0.0107 -0.0278  0.2554
 4464TIP3    H234884   5.623   1.457  10.497 -0.1268 -0.5368 -0.7800
 4465TIP3   OH234885   1.835   1.411  16.021 -0.1653  0.0275 -0.2572
 4465TIP3    H134886   1.852   1.505  16.009 -0.7564  0.4718  2.1302
 4465TIP3    H234887   1.907   1.381  16.076  0.3912 -1.0967 -1.5659
 4466TIP3   OH234888   2.783   1.187  13.279  0.1442  0.0510 -0.1788
 4466TIP3    H134889   2.739   1.272  13.272 -0.6896 -0.0711  2.6268
 4466TIP3    H234890   2.722   1.125  13.240 -1.1976  0.2171  1.5541
 4467TIP3   OH234891   6.130   1.868   4.407 -0.1456  0.0143 -0.5625
 4467TIP3    H134892   6.222   1.852   4.386 -0.1723  0.6746 -1.1867
 4467TIP3    H234893   6.126   1.962   4.425 -0.2734 -0.3739  1.6316
 4468TIP3   OH234894   6.380   4.435  11.666 -0.0288  0.1265 -1.3770
 4468TIP3    H134895   6.428   4.435  11.749  0.5901 -1.6536 -1.7246
 4468TIP3    H234896   6.380   4.526  11.638 -2.5562  1.2556  1.9158
 4469TIP3   OH234897   3.334   5.863  14.364 -0.3287  0.0294  0.0264
 4469TIP3    H134898   3.371   5.836  14.280 -1.9545 -1.9055 -0.1265
 4469TIP3    H234899   3.404   5.910  14.408  0.5738  1.0329 -2.3836
 4470TIP3   OH234900   3.579   0.539  12.201  0.3389 -0.0679  0.1145
 4470TIP3    H134901   3.488   0.510  12.201  0.0689  0.7878  0.3539
 4470TIP3    H234902   3.613   0.509  12.116 -0.3009  0.0589 -0.1848
 4471TIP3   OH234903   6.043   3.149   2.152  0.6197  0.5552 -0.4994
 4471TIP3    H134904   5.962   3.122   2.109  1.2687 -1.0873 -0.6992
 4471TIP3    H234905   6.108   3.149   2.082  0.1623  5.1834 -1.1210
 4472TIP3   OH234906   2.025   1.350   4.784  0.1452 -0.0212 -0.3224
 4472TIP3    H134907   2.093   1.316   4.725  0.6220 -0.8208  0.6670
 4472TIP3    H234908   1.963   1.277   4.792 -0.3083  0.3527 -0.4200
 4473TIP3   OH234909   4.121   6.020  12.362  0.1373 -0.4910  0.0824
 4473TIP3    H134910   4.101   6.086  12.295  0.6202 -0.5980 -0.1666
 4473TIP3    H234911   4.171   6.068  12.428  0.0503 -0.4884  0.1449
 4474TIP3   OH234912   5.751   0.728   2.141  0.0765  0.3004 -0.0501
 4474TIP3    H134913   5.695   0.738   2.218  1.2401 -0.5022  0.9321
 4474TIP3    H234914   5.732   0.640   2.108  4.1489 -1.9862  3.1726
 4475TIP3   OH234915   3.308   1.651   4.737 -0.6488  0.4445 -0.2512
 4475TIP3    H134916   3.327   1.601   4.657  1.0353 -1.1492  1.0956
 4475TIP3    H234917   3.219   1.624   4.760 -0.5649 -0.2796 -0.7383
 4476TIP3   OH234918   4.562   0.081   0.598  0.2027 -0.0875 -0.0036
 4476TIP3    H134919   4.657   0.073   0.600  0.2504 -0.0090 -1.2566
 4476TIP3    H234920   4.539   0.069   0.505 -1.0900 -1.0520  0.4270
 4477TIP3   OH234921   3.384   2.153   0.333 -0.1963  0.1756 -0.3799
 4477TIP3    H134922   3.437   2.186   0.261  0.4373  0.7501  0.3406
 4477TIP3    H234923   3.429   2.074   0.362 -0.3256  0.0702 -0.4677
 4478TIP3   OH234924   3.967   2.396   2.517  0.2480 -0.1968 -0.4343
 4478TIP3    H134925   3.992   2.483   2.486  0.2520  0.4432  1.2617
 4478TIP3    H234926   3.897   2.413   2.581  0.4668 -1.4033  0.1513
 4479TIP3   OH234927   5.303   3.917   5.214  0.1150 -0.4853 -0.1634
 4479TIP3    H134928   5.275   3.905   5.124 -0.7118 -0.1506  0.0432
 4479TIP3    H234929   5.320   4.012   5.221 -0.2334 -0.4473  0.1510
 4480TIP3   OH234930   2.790   6.794   2.335 -0.2746 -0.4391 -0.3067
 4480TIP3    H134931   2.803   6.743   2.256  0.3282 -1.7200  0.6024
 4480TIP3    H234932   2.701   6.772   2.364 -0.2174 -0.5497 -0.2151
 4481TIP3   OH234933   2.468   1.094   2.345  0.1988  0.3373 -0.1301
 4481TIP3    H134934   2.498   1.029   2.282 -0.3089  0.6738 -0.7229
 4481TIP3    H234935   2.374   1.078   2.353  0.6450 -1.3080  2.3892
 4482TIP3   OH234936   1.213   5.851  16.408 -0.1791  0.0929  0.2909
 4482TIP3    H134937   1.218   5.840  16.503  1.9687  1.1021  0.3348
 4482TIP3    H234938   1.119   5.861  16.390 -0.6866 -0.9971  2.1785
 4483TIP3   OH234939   5.486   6.704   2.325  0.3433 -0.1725 -0.3078
 4483TIP3    H134940   5.568   6.690   2.371  0.4974  0.6733 -0.3227
 4483TIP3    H234941   5.462   6.617   2.291  0.2093 -0.8007  1.3843
 4484TIP3   OH234942   4.611   5.896   0.160 -0.3357  0.0631 -0.3020
 4484TIP3    H134943   4.635   5.821   0.215  1.0537  0.5034 -0.2714
 4484TIP3    H234944   4.656   5.879   0.077  0.9459  1.4129  0.0912
 4485TIP3   OH234945   2.776   0.990   4.346 -0.4260  0.1005 -0.0851
 4485TIP3    H134946   2.792   1.084   4.339 -0.2141  0.0759  0.0808
 4485TIP3    H234947   2.827   0.962   4.422 -0.3224 -0.1883 -0.2612
 4486TIP3   OH234948   2.233   1.004   5.351 -0.0765 -0.0599 -0.0632
 4486TIP3    H134949   2.293   1.010   5.426  1.7583 -1.7313 -1.3405
 4486TIP3    H234950   2.240   1.089   5.308 -1.3186  0.9986  1.7476
 4487TIP3   OH234951   2.825   0.237  14.983  0.1466 -0.0909  0.4209
 4487TIP3    H134952   2.910   0.282  14.985 -1.0543  2.2476  0.0230
 4487TIP3    H234953   2.775   0.284  14.916 -0.8558 -2.5978 -0.6396
 4488TIP3   OH234954   1.284   4.059  17.073 -0.0919  0.0657 -0.6696
 4488TIP3    H134955   1.327   4.131  17.027  0.0086  0.5414  0.1390
 4488TIP3    H234956   1.205   4.099  17.111 -1.6483 -0.9575 -2.7243
 4489TIP3   OH234957   1.043   2.930  13.248  0.0564 -0.2603  0.1883
 4489TIP3    H134958   1.109   2.917  13.181 -0.1391  1.2214 -0.3116
 4489TIP3    H234959   1.070   2.873  13.320  1.1769 -0.6054 -0.5000
 4490TIP3   OH234960   5.932   2.263   2.359 -0.0394 -0.0271  0.9350
 4490TIP3    H134961   5.975   2.319   2.423 -1.4733  0.5485  1.4009
 4490TIP3    H234962   5.843   2.297   2.352 -0.0810 -0.4550 -0.9193
 4491TIP3   OH234963   6.277   6.242  16.576  0.5616 -0.0795  0.4066
 4491TIP3    H134964   6.357   6.268  16.622  0.4534  2.0262 -0.5506
 4491TIP3    H234965   6.220   6.209  16.645  1.5554  0.1539  1.3640
 4492TIP3   OH234966   3.452   3.963   4.842 -0.1810 -0.4882  0.5637
 4492TIP3    H134967   3.474   3.984   4.933  0.3190 -0.2663  0.3941
 4492TIP3    H234968   3.441   3.868   4.842  1.6045 -0.7053  0.4844
 4493TIP3   OH234969   1.919   1.643  17.013 -0.5534 -0.0207  0.4147
 4493TIP3    H134970   1.986   1.581  17.043 -1.0764 -0.3859  0.8336
 4493TIP3    H234971   1.966   1.725  17.002  0.3224 -0.6874 -0.9706
 4494TIP3   OH234972   0.010   0.965  14.948 -0.5856 -0.1596 -0.3992
 4494TIP3    H134973   0.040   1.040  14.897  2.3176 -2.0171 -1.5088
 4494TIP3    H234974   0.068   0.963  15.024  0.1009 -1.9135 -0.9406
 4495TIP3   OH234975   3.658   3.288  13.536 -0.2763 -0.1054 -0.0325
 4495TIP3    H134976   3.727   3.229  13.507 -0.6644 -0.6619  0.1779
 4495TIP3    H234977   3.625   3.250  13.617 -3.2806 -1.8411 -1.9894
 4496TIP3   OH234978   3.388   5.522   0.574  0.0434  0.5979 -0.0940
 4496TIP3    H134979   3.318   5.509   0.638  0.5716  1.9244  0.7729
 4496TIP3    H234980   3.349   5.575   0.505  0.3535  1.9009  0.7101
 4497TIP3   OH234981   0.866   4.763  14.237 -0.1462  0.1668 -0.1653
 4497TIP3    H134982   0.958   4.783  14.221 -0.3438  0.5528 -0.8313
 4497TIP3    H234983   0.821   4.847  14.229 -1.0122 -0.5530 -3.2413
 4498TIP3   OH234984   6.496   5.012  15.748 -0.2605  0.2909  0.4094
 4498TIP3    H134985   6.439   4.943  15.713  1.0239 -0.8090  0.4150
 4498TIP3    H234986   6.575   5.006  15.695  0.3259  0.9711  1.1985
 4499TIP3   OH234987   6.022   5.798  13.902 -0.0837  0.8094 -0.1600
 4499TIP3    H134988   6.087   5.868  13.895  0.6281  0.1271 -0.4193
 4499TIP3    H234989   5.993   5.783  13.812  0.9564 -0.3384 -0.3195
 4500TIP3   OH234990   3.561   0.611  11.319 -0.6127  0.2213 -0.0886
 4500TIP3    H134991   3.550   0.684  11.258  0.6753 -1.2057 -2.0869
 4500TIP3    H234992   3.478   0.563  11.314 -0.0842 -0.5714 -1.6883
 4501TIP3   OH234993   2.230   5.493   5.713 -0.1862  0.1980  0.0421
 4501TIP3    H134994   2.232   5.589   5.708  0.7334  0.1160 -1.0396
 4501TIP3    H234995   2.183   5.476   5.795  1.6370  1.5847  1.4318
 4502TIP3   OH234996   0.793   1.969   5.016 -0.0100  0.6211  0.0838
 4502TIP3    H134997   0.801   1.986   4.922  0.1273  1.2471  0.2107
 4502TIP3    H234998   0.812   2.052   5.057 -0.2594  0.3913  0.6641
 4503TIP3   OH234999   1.173   4.000   3.337  0.0112  0.0319  0.1465
 4503TIP3    H135000   1.112   3.933   3.368 -1.6829  1.7381  0.6199
 4503TIP3    H235001   1.131   4.037   3.260  1.9567 -0.8944 -1.3992
 4504TIP3   OH235002   4.620   5.441   1.042 -0.1969 -0.0467  0.3333
 4504TIP3    H135003   4.595   5.391   0.964  1.6998 -0.7625  0.1574
 4504TIP3    H235004   4.669   5.515   1.008  0.1778 -0.0712  0.8253
 4505TIP3   OH235005   4.092   5.005  15.181  0.6537  0.1927 -0.0928
 4505TIP3    H135006   4.038   5.008  15.102  1.3537 -1.2537 -0.6380
 4505TIP3    H235007   4.030   5.017  15.252 -0.2477 -0.4348 -0.7658
 4506TIP3   OH235008   5.102   1.492   5.108 -0.6455  0.1088 -0.4764
 4506TIP3    H135009   5.115   1.414   5.162 -0.1274  0.8169  0.4503
 4506TIP3    H235010   5.091   1.459   5.019  0.4972 -0.9590 -0.2307
 4507TIP3   OH235011   3.758   6.145  13.047 -0.5947  0.2102  0.1077
 4507TIP3    H135012   3.806   6.062  13.047  0.3454  0.7372  1.0922
 4507TIP3    H235013   3.807   6.201  12.986 -0.6940  0.3355  0.1426
 4508TIP3   OH235014   5.602   3.664   3.727 -0.5767  0.3681  0.4012
 4508TIP3    H135015   5.629   3.691   3.814 -1.1285 -1.0816  1.0499
 4508TIP3    H235016   5.572   3.744   3.685 -2.6598  0.7108  2.4380
 4509TIP3   OH235017   6.166   1.811   1.983  0.5405  0.6103  0.2434
 4509TIP3    H135018   6.175   1.717   1.964  2.0250  0.7898 -0.0289
 4509TIP3    H235019   6.243   1.851   1.942 -0.8022  2.1389 -0.8194
 4510TIP3   OH235020   4.499   0.325   4.935 -0.8302  0.2734 -0.3689
 4510TIP3    H135021   4.553   0.248   4.953 -2.6757 -1.0080 -0.1582
 4510TIP3    H235022   4.544   0.396   4.981  0.5283 -0.8072  0.0233
 4511TIP3   OH235023   3.466   2.785  11.333 -0.4763  0.1813 -0.3486
 4511TIP3    H135024   3.538   2.845  11.350  0.1905 -0.7070 -0.0006
 4511TIP3    H235025   3.496   2.701  11.366 -1.1322 -0.4949 -1.4267
 4512TIP3   OH235026   5.151   6.668   3.499 -0.3797  0.1061 -0.2125
 4512TIP3    H135027   5.235   6.687   3.541  0.2820  3.0971 -2.6836
 4512TIP3    H235028   5.107   6.753   3.495 -2.1199 -0.8380 -1.8135
 4513TIP3   OH235029   3.945   5.977   5.547  0.5427  0.1643 -0.2535
 4513TIP3    H135030   4.029   6.010   5.578 -0.0294  0.9654  0.4544
 4513TIP3    H235031   3.962   5.885   5.527  1.5122  0.2385  0.1747
 4514TIP3   OH235032   6.220   2.821   2.109 -0.3881  0.5536 -0.3713
 4514TIP3    H135033   6.254   2.752   2.051 -3.4432 -0.3579 -1.1838
 4514TIP3    H235034   6.251   2.903   2.071 -0.0291 -0.1846 -1.6848
 4515TIP3   OH235035   2.977   2.895   0.179  0.1267 -0.1305 -0.0060
 4515TIP3    H135036   2.994   2.955   0.252 -0.2278  2.5812 -2.0709
 4515TIP3    H235037   3.064   2.875   0.144  0.2985 -1.4461  1.1314
 4516TIP3   OH235038   6.311   0.917   2.386  0.4975 -0.4794 -0.0864
 4516TIP3    H135039   6.371   0.984   2.418 -1.1211 -0.1872  2.5321
 4516TIP3    H235040   6.232   0.929   2.438 -0.6170 -3.0294 -1.0915
 4517TIP3   OH235041   2.148   3.770   0.702 -0.1684 -0.0998  0.0398
 4517TIP3    H135042   2.134   3.819   0.621 -1.4132  1.4557  1.1684
 4517TIP3    H235043   2.060   3.738   0.726  0.6043 -2.9154 -0.6636
 4518TIP3   OH235044   2.414   4.001   3.246 -0.4193 -0.3100 -0.3638
 4518TIP3    H135045   2.416   3.930   3.182 -0.9436  0.5179 -1.3191
 4518TIP3    H235046   2.361   3.967   3.318  0.3521 -1.3294 -0.2560
 4519TIP3   OH235047   2.026   3.061   4.118  0.1752 -0.1188 -0.1692
 4519TIP3    H135048   1.940   3.071   4.159 -0.6153 -2.7588 -1.1227
 4519TIP3    H235049   2.008   3.062   4.024  1.1501 -0.9925 -0.3674
 4520TIP3   OH235050   4.225   5.321   2.253  0.3843 -0.1078 -0.0116
 4520TIP3    H135051   4.191   5.281   2.334  2.0822  0.1143  0.8354
 4520TIP3    H235052   4.152   5.373   2.220 -0.7314 -1.1547  0.7332
 4521TIP3   OH235053   4.425   2.651  11.102  0.2658 -0.3110 -0.3858
 4521TIP3    H135054   4.508   2.697  11.090  0.2373  0.1864  1.1854
 4521TIP3    H235055   4.447   2.575  11.155 -0.1201 -0.7354 -0.8289
 4522TIP3   OH235056   0.759   2.026  14.543  0.7849  0.6312 -0.1362
 4522TIP3    H135057   0.712   2.093  14.594  0.8363 -0.4513  1.3657
 4522TIP3    H235058   0.698   2.004  14.472  0.1118  1.1212  0.2760
 4523TIP3   OH235059   4.588   5.397   6.356  0.4582  0.3296 -0.5024
 4523TIP3    H135060   4.610   5.309   6.386  0.4856  0.3402 -0.4919
 4523TIP3    H235061   4.622   5.455   6.424  0.7846  0.3718 -0.7002
 4524TIP3   OH235062   4.199   2.848  16.273 -0.4164  0.7924  0.0450
 4524TIP3    H135063   4.127   2.908  16.293 -0.9483 -0.0173  0.6029
 4524TIP3    H235064   4.200   2.786  16.346  2.5972  2.3797  1.4325
 4525TIP3   OH235065   4.382   4.701  11.277  0.1071 -0.5176 -0.4529
 4525TIP3    H135066   4.431   4.735  11.202 -1.8183  0.4350 -1.3042
 4525TIP3    H235067   4.320   4.770  11.298  0.0303 -1.1563  1.4811
 4526TIP3   OH235068   6.352   1.816  16.356  0.6324 -0.7534  1.2655
 4526TIP3    H135069   6.415   1.812  16.284 -0.2492  0.9153  0.3789
 4526TIP3    H235070   6.347   1.909  16.379  0.2767 -1.1702  2.9205
 4527TIP3   OH235071   5.307   0.278  15.883  0.5412 -0.4777  0.4804
 4527TIP3    H135072   5.297   0.291  15.977 -1.7595  0.4533  0.1329
 4527TIP3    H235073   5.268   0.193  15.866  1.7702 -1.0558  0.4741
 4528TIP3   OH235074   3.474   2.544   2.149  0.0301 -0.3372  0.3412
 4528TIP3    H135075   3.526   2.472   2.183  0.4055 -0.0833  0.3133
 4528TIP3    H235076   3.439   2.512   2.066 -1.5966 -1.2766  1.3654
 4529TIP3   OH235077   2.886   6.050   5.005 -0.1977 -0.5000  0.4319
 4529TIP3    H135078   2.970   6.037   5.051 -1.3721 -1.7640  2.2861
 4529TIP3    H235079   2.910   6.053   4.913  1.6387 -3.4298  0.7495
 4530TIP3   OH235080   1.709   3.547   4.394  0.5126  0.2491  0.5001
 4530TIP3    H135081   1.650   3.616   4.423 -0.6391 -0.6509  0.3596
 4530TIP3    H235082   1.705   3.550   4.298 -0.4857 -0.7887  0.5010
 4531TIP3   OH235083   0.173   5.821  15.639  0.1288  0.7058  0.2644
 4531TIP3    H135084   0.153   5.807  15.546 -0.7460 -0.1068  0.5606
 4531TIP3    H235085   0.209   5.737  15.668 -1.3351  0.3527  1.0955
 4532TIP3   OH235086   2.276   6.426  16.803 -0.5091  0.2406 -0.1741
 4532TIP3    H135087   2.313   6.511  16.829 -2.4570  0.6005  1.5310
 4532TIP3    H235088   2.221   6.445  16.727 -1.4512  0.6165  0.5996
 4533TIP3   OH235089   3.807   1.037  16.366  0.4579  0.6447  0.1190
 4533TIP3    H135090   3.800   1.130  16.347 -0.2712  0.4859 -0.4356
 4533TIP3    H235091   3.789   0.994  16.282  0.9252  0.0070  0.3372
 4534TIP3   OH235092   0.103   5.805  16.466  0.3981 -0.3116 -0.4926
 4534TIP3    H135093   0.103   5.895  16.431  0.2063 -0.2195 -0.2555
 4534TIP3    H235094   0.132   5.814  16.556 -1.4342 -0.2556  0.1119
 4535TIP3   OH235095   5.536   4.190   4.398 -0.3749  0.4282 -0.4038
 4535TIP3    H135096   5.558   4.154   4.313  1.0472  0.3309 -0.0077
 4535TIP3    H235097   5.620   4.217   4.436 -1.1815  2.2342  0.1705
 4536TIP3   OH235098   0.486   0.412  16.153  0.0473 -0.0310 -0.1143
 4536TIP3    H135099   0.525   0.337  16.107 -1.7195 -2.0322  1.5035
 4536TIP3    H235100   0.528   0.412  16.239 -1.8168 -0.8346  0.8409
 4537TIP3   OH235101   4.941   3.581   1.531  0.1578 -0.6096  0.2908
 4537TIP3    H135102   4.965   3.671   1.556  2.6211 -1.0844 -0.2735
 4537TIP3    H235103   4.861   3.591   1.480 -0.2096  1.1591  1.1618
 4538TIP3   OH235104   4.122   5.691   3.601  0.0839  0.4252 -0.8127
 4538TIP3    H135105   4.207   5.715   3.638  0.6158 -1.5898 -0.6905
 4538TIP3    H235106   4.128   5.714   3.508  0.9502 -0.1573 -0.9040
 4539TIP3   OH235107   4.054   5.550   1.518 -0.5107 -0.2895 -0.7457
 4539TIP3    H135108   4.086   5.511   1.436  0.1707 -2.1976  0.3932
 4539TIP3    H235109   4.132   5.560   1.572 -1.1895 -0.5831  0.2968
 4540TIP3   OH235110   0.066   5.768   3.689 -0.3183 -0.3567 -0.6785
 4540TIP3    H135111   0.013   5.834   3.644 -1.7842 -1.4198 -0.5570
 4540TIP3    H235112   0.006   5.729   3.752  1.2881  0.0292  1.1308
 4541TIP3   OH235113   6.588   3.943   1.843  0.3692 -0.8341  0.2274
 4541TIP3    H135114   6.593   3.908   1.932  0.6927 -1.5890 -0.0759
 4541TIP3    H235115   6.588   4.038   1.854 -2.6111 -0.9029  1.1895
 4542TIP3   OH235116   0.029   1.304  12.856  0.9876  0.0438 -0.3744
 4542TIP3    H135117   0.073   1.387  12.839  1.2161 -0.1277 -0.6173
 4542TIP3    H235118   0.086   1.258  12.917 -0.1697  0.9508  1.4271
 4543TIP3   OH235119   6.820   1.008   6.438 -0.0290  0.1978  0.0867
 4543TIP3    H135120   6.907   1.037   6.412 -0.1219  0.1226 -0.3079
 4543TIP3    H235121   6.835   0.928   6.489  0.2399  1.0528  1.3552
 4544TIP3   OH235122   1.196   6.048   5.253 -0.0664 -0.1843  0.2487
 4544TIP3    H135123   1.277   5.997   5.253  0.1097  0.0898 -0.1414
 4544TIP3    H235124   1.225   6.139   5.262 -0.1310  0.1761 -2.7132
 4545TIP3   OH235125   2.932   5.287  12.198  0.5564 -0.5068 -0.7796
 4545TIP3    H135126   2.853   5.264  12.150 -0.2214 -2.8467  1.5097
 4545TIP3    H235127   2.910   5.270  12.290  3.1454  0.4817  0.0643
 4546TIP3   OH235128   4.002   2.022   1.447  0.1100  0.5986 -0.1448
 4546TIP3    H135129   3.999   1.942   1.395  0.8350  0.3430  0.1942
 4546TIP3    H235130   3.925   2.072   1.420 -0.3354 -0.2051 -0.3667
 4547TIP3   OH235131   1.530   3.704  16.531  0.0546  0.3718 -0.3506
 4547TIP3    H135132   1.607   3.729  16.581  0.7750  0.6280 -1.5705
 4547TIP3    H235133   1.559   3.632  16.476 -1.8560 -2.9349  2.7345
 4548TIP3   OH235134   6.112   3.450   4.002  0.1684  0.1338  0.3282
 4548TIP3    H135135   6.079   3.535   3.972  0.6366 -0.0952 -0.8760
 4548TIP3    H235136   6.111   3.395   3.924  0.2275 -0.8668  1.0159
 4549TIP3   OH235137   2.952   5.166   3.714  0.0633 -0.6477 -0.0532
 4549TIP3    H135138   2.933   5.110   3.789  1.7926  0.8285  1.5111
 4549TIP3    H235139   2.969   5.104   3.642  0.6223 -2.1129  1.3098
 4550TIP3   OH235140   4.666   4.499   2.630  0.6129  0.0332  0.6384
 4550TIP3    H135141   4.675   4.497   2.534  1.5858 -2.0166  0.7481
 4550TIP3    H235142   4.572   4.511   2.645  0.0076 -2.7811 -0.6029
 4551TIP3   OH235143   6.533   5.584   3.626  0.3160 -0.0302 -0.6492
 4551TIP3    H135144   6.589   5.625   3.692 -1.4594  0.4120  0.6140
 4551TIP3    H235145   6.479   5.656   3.592 -0.3246 -0.6595 -0.9835
 4552TIP3   OH235146   1.333   4.832  14.619  0.1205 -0.0237 -0.0113
 4552TIP3    H135147   1.247   4.862  14.587  0.1055  0.7060  0.7001
 4552TIP3    H235148   1.341   4.743  14.585 -0.2380  0.4578 -1.3867
 4553TIP3   OH235149   5.013   0.355  14.509  0.0082 -0.5789 -0.0365
 4553TIP3    H135150   4.938   0.399  14.468 -0.5073 -0.3566  1.1268
 4553TIP3    H235151   5.089   0.385  14.458 -0.2119  2.5006  1.3622
 4554TIP3   OH235152   3.111   6.254  11.794 -0.0745 -0.3870  0.0168
 4554TIP3    H135153   3.196   6.273  11.753  0.2116 -2.3595 -0.3502
 4554TIP3    H235154   3.052   6.238  11.721 -0.8173  1.0439  0.2728
 4555TIP3   OH235155   0.164   3.328   4.986  0.2272 -0.2786 -0.5417
 4555TIP3    H135156   0.157   3.338   4.891  0.4624 -3.3255 -0.9305
 4555TIP3    H235157   0.169   3.234   5.000 -1.0208  0.0507  2.6054
 4556TIP3   OH235158   4.854   2.665  11.449  0.8127  0.1350  0.1620
 4556TIP3    H135159   4.795   2.673  11.524  0.8708 -0.2328  0.2491
 4556TIP3    H235160   4.808   2.606  11.389  0.7827  0.3994 -0.0754
 4557TIP3   OH235161   6.360   0.012   7.072 -0.2205 -0.4808  0.1007
 4557TIP3    H135162   6.293  -0.056   7.081  0.2458 -0.8786  0.6334
 4557TIP3    H235163   6.434  -0.033   7.033  0.8128 -0.7852  2.3205
 4558TIP3   OH235164   0.366   1.178  11.850 -0.3129  0.2886 -0.5084
 4558TIP3    H135165   0.376   1.245  11.918 -1.0670 -0.5191  0.4205
 4558TIP3    H235166   0.272   1.162  11.847 -0.5582  1.9340 -3.3561
 4559TIP3   OH235167   3.880   3.324  12.475  0.4282  0.2734 -0.8648
 4559TIP3    H135168   3.797   3.334  12.428 -0.4830  2.2526  1.0666
 4559TIP3    H235169   3.865   3.252  12.536 -0.1331  1.1101 -0.0040
 4560TIP3   OH235170   1.012   1.056   0.469  0.4982  0.3899  0.3885
 4560TIP3    H135171   0.924   1.091   0.485  0.0031 -0.1468 -1.1278
 4560TIP3    H235172   0.997   0.966   0.442  1.4365  0.7202 -1.2390
 4561TIP3   OH235173   0.022   5.531  13.716 -0.6189  1.1321  0.1396
 4561TIP3    H135174  -0.034   5.457  13.741  0.4028  1.1968  2.7545
 4561TIP3    H235175   0.111   5.497  13.723 -0.2135  1.8671 -1.2506
 4562TIP3   OH235176   6.127   2.121  13.573  0.2211 -0.6496 -0.0142
 4562TIP3    H135177   6.179   2.163  13.504 -1.7817  0.7862 -0.6944
 4562TIP3    H235178   6.166   2.153  13.654  0.3896  0.4479 -0.5184
 4563TIP3   OH235179   6.568   4.538  15.871 -0.0168 -0.4500  0.1778
 4563TIP3    H135180   6.522   4.591  15.937 -0.1658 -1.5922  1.0034
 4563TIP3    H235181   6.511   4.543  15.794  0.4608  1.3985 -0.0835
 4564TIP3   OH235182   5.664   0.448  11.102 -0.0379 -0.2251 -0.0680
 4564TIP3    H135183   5.682   0.499  11.023 -0.0790 -0.4018 -0.1892
 4564TIP3    H235184   5.664   0.357  11.073 -0.1248 -0.2853  0.1211
 4565TIP3   OH235185   4.520   5.142   5.486  0.3643  0.4551  0.7516
 4565TIP3    H135186   4.557   5.213   5.434 -0.2537 -1.7284 -2.8535
 4565TIP3    H235187   4.596   5.091   5.516  0.6030 -0.2148 -0.9528
 4566TIP3   OH235188   2.352   0.618  11.497 -0.1521 -0.3153  0.5391
 4566TIP3    H135189   2.293   0.559  11.544  0.5574 -0.3910  1.3375
 4566TIP3    H235190   2.329   0.606  11.405 -0.5606 -1.2373  0.7542
 4567TIP3   OH235191   2.281   1.802   4.383  0.2076 -0.4081  0.4773
 4567TIP3    H135192   2.226   1.783   4.308  1.5420 -1.4543 -0.2639
 4567TIP3    H235193   2.330   1.880   4.358 -0.2727 -0.0001  0.7861
 4568TIP3   OH235194   3.256   4.431   4.207 -0.1033 -0.4132 -0.4956
 4568TIP3    H135195   3.172   4.386   4.214  0.2871 -1.3623 -1.8230
 4568TIP3    H235196   3.247   4.507   4.264 -1.7809 -0.6299 -0.4555
 4569TIP3   OH235197   0.055   5.498  12.863 -0.4089  0.1203  0.8333
 4569TIP3    H135198   0.079   5.423  12.917  2.4160  0.1932 -0.2327
 4569TIP3    H235199   0.029   5.566  12.925 -2.3073 -1.4792  1.8324
 4570TIP3   OH235200   1.535   1.193   4.326  0.0297  0.4444 -0.1263
 4570TIP3    H135201   1.465   1.253   4.300  0.2312  0.7434  0.0287
 4570TIP3    H235202   1.575   1.234   4.403 -0.5286 -0.4030  0.6313
 4571TIP3   OH235203   6.340   1.996  13.075  0.0812 -0.1874 -0.4417
 4571TIP3    H135204   6.371   1.958  13.157  0.4743 -1.8495 -1.3347
 4571TIP3    H235205   6.265   2.050  13.100  2.4889  2.4058  1.5111
 4572TIP3   OH235206   3.729   3.243   6.082  0.2999 -0.6807  0.0626
 4572TIP3    H135207   3.762   3.229   5.993 -1.2361  0.0568 -0.6549
 4572TIP3    H235208   3.807   3.253   6.136  1.2563 -1.3274 -1.1770
 4573TIP3   OH235209   3.563   5.123  13.283 -0.3299 -0.1042 -0.1595
 4573TIP3    H135210   3.501   5.186  13.246 -1.7902 -0.3329  1.7985
 4573TIP3    H235211   3.509   5.066  13.338  1.4791 -0.9967  0.7315
 4574TIP3   OH235212   2.396   3.237   2.171 -0.3236  0.3987  0.3154
 4574TIP3    H135213   2.327   3.303   2.160 -1.0582 -0.4544 -0.1863
 4574TIP3    H235214   2.350   3.157   2.194  0.6563  0.3213  2.1073
 4575TIP3   OH235215   4.939   4.630   3.469  0.2059  0.1490 -0.2704
 4575TIP3    H135216   4.890   4.683   3.406  2.0047 -0.0056 -1.8625
 4575TIP3    H235217   4.984   4.695   3.523  0.4355  0.2803 -0.6118
 4576TIP3   OH235218   5.297   1.912   1.216 -0.0475  0.1820  0.3801
 4576TIP3    H135219   5.202   1.901   1.206 -0.1162  1.0286  0.0095
 4576TIP3    H235220   5.325   1.949   1.133  0.9124 -1.7869 -0.1928
 4577TIP3   OH235221   0.462   3.018  13.702 -0.3315  0.6577 -0.0613
 4577TIP3    H135222   0.430   3.108  13.701 -4.6798 -0.7691 -0.6015
 4577TIP3    H235223   0.467   2.994  13.609  0.0571  0.0681  0.1082
 4578TIP3   OH235224   5.442   1.849  16.090  0.6176 -0.0374  0.1455
 4578TIP3    H135225   5.379   1.776  16.089  1.4164 -0.7395  0.7986
 4578TIP3    H235226   5.408   1.911  16.025 -0.3312 -0.7664 -0.0585
 4579TIP3   OH235227   0.358   5.893   0.714  0.4606  0.3886 -0.5432
 4579TIP3    H135228   0.387   5.871   0.626  0.8778 -0.0481 -0.2968
 4579TIP3    H235229   0.357   5.810   0.761 -1.1847  0.3925 -0.5406
 4580TIP3   OH235230   1.356   0.707   4.382 -0.6092 -0.6048 -0.1003
 4580TIP3    H135231   1.282   0.663   4.424 -0.5333 -0.2881  0.3728
 4580TIP3    H235232   1.400   0.639   4.332 -0.8180 -0.9440  0.1772
 4581TIP3   OH235233   3.311   0.680   2.409  0.2457  0.7584 -0.1133
 4581TIP3    H135234   3.238   0.646   2.461 -1.1830  2.5488 -0.8690
 4581TIP3    H235235   3.351   0.747   2.465  0.1433  1.0877 -0.4360
 4582TIP3   OH235236   4.065   3.744   2.248  0.5727  0.0014  0.5120
 4582TIP3    H135237   4.158   3.768   2.240  0.8051 -0.5940  1.3401
 4582TIP3    H235238   4.054   3.726   2.341 -0.8680  2.0766  0.7838
 4583TIP3   OH235239   1.352   1.008  12.555  0.0454 -0.1578  0.3324
 4583TIP3    H135240   1.364   1.102  12.552  1.4665 -0.2818  1.9199
 4583TIP3    H235241   1.332   0.988  12.646 -1.0298 -1.3008 -0.1382
 4584TIP3   OH235242   2.003   4.816  14.253  0.1068  0.0870 -0.5135
 4584TIP3    H135243   2.047   4.894  14.217  1.6021 -0.4602  0.0802
 4584TIP3    H235244   2.057   4.790  14.327 -0.5353 -1.3664 -0.5407
 4585TIP3   OH235245   6.599   4.743   2.380 -0.1614 -0.2233 -0.3208
 4585TIP3    H135246   6.607   4.826   2.333  0.0614 -0.1434 -0.1418
 4585TIP3    H235247   6.642   4.758   2.464 -0.6849 -0.3228 -0.0357
 4586TIP3   OH235248   5.299   4.297   0.253  0.0386  0.1515  0.1667
 4586TIP3    H135249   5.375   4.292   0.195 -0.9978  2.1545 -1.4199
 4586TIP3    H235250   5.284   4.391   0.266 -1.3972 -0.2301  1.4943
 4587TIP3   OH235251   6.820   4.048   2.170 -0.0741 -0.2365 -0.1784
 4587TIP3    H135252   6.833   3.959   2.203 -0.6382 -0.2747 -0.0615
 4587TIP3    H235253   6.835   4.105   2.246 -0.0509 -0.2518 -0.1720
 4588TIP3   OH235254   6.178   0.923   2.720  0.1434  0.4869 -0.1379
 4588TIP3    H135255   6.119   0.986   2.679  0.5321  0.3228 -0.9636
 4588TIP3    H235256   6.142   0.909   2.808 -0.8987  0.5705 -0.5490
 4589TIP3   OH235257   6.330   0.794  13.262  0.5533 -0.2575  0.1617
 4589TIP3    H135258   6.334   0.718  13.321 -1.2182  0.3316  1.0679
 4589TIP3    H235259   6.340   0.756  13.175  1.6306 -1.3223  0.7321
 4590TIP3   OH235260   6.149   2.325  15.779  0.5934  0.5299 -0.2115
 4590TIP3    H135261   6.065   2.335  15.824  1.4388  0.7563  1.3565
 4590TIP3    H235262   6.129   2.345  15.688 -1.1260  0.2390  0.0746
 4591TIP3   OH235263   2.195   5.366   2.358 -0.1346 -0.7845  0.3416
 4591TIP3    H135264   2.238   5.373   2.273  0.3467 -0.4205  0.6099
 4591TIP3    H235265   2.146   5.448   2.367  2.0400  0.4390  1.6093
 4592TIP3   OH235266   3.693   2.373  16.641 -0.1763  0.0633  0.2391
 4592TIP3    H135267   3.645   2.406  16.565 -0.7566 -1.1846  0.0510
 4592TIP3    H235268   3.785   2.379  16.616 -0.2659  1.4941  0.2079
 4593TIP3   OH235269   0.450   1.651   2.055 -0.0819 -0.2325 -0.2211
 4593TIP3    H135270   0.478   1.560   2.050  0.6108 -0.0415  0.1358
 4593TIP3    H235271   0.505   1.696   1.990 -0.0250  0.0303  0.0089
 4594TIP3   OH235272   6.561   3.388  10.705  0.3878 -0.0589 -0.2144
 4594TIP3    H135273   6.522   3.461  10.753 -1.0052  1.8626 -4.0612
 4594TIP3    H235274   6.515   3.311  10.737  1.0991  0.8063  3.1097
 4595TIP3   OH235275   5.000   0.713  13.230 -0.1545  0.4423 -0.2673
 4595TIP3    H135276   5.044   0.656  13.167  1.2350 -0.9725  1.9449
 4595TIP3    H235277   5.070   0.761  13.273 -1.1028  1.4458  0.1938
 4596TIP3   OH235278   3.107   1.313  13.985  0.3040  0.6341  0.6050
 4596TIP3    H135279   3.153   1.371  13.924 -2.5947  0.3305 -1.9731
 4596TIP3    H235280   3.072   1.371  14.052  0.3597  1.4357 -0.0582
 4597TIP3   OH235281   2.581   2.677   3.676  0.0426 -0.2239  0.4220
 4597TIP3    H135282   2.508   2.689   3.737 -0.1743 -0.8105  0.2819
 4597TIP3    H235283   2.650   2.637   3.730  0.1966  0.1611  0.5113
 4598TIP3   OH235284   4.999   1.683   2.939 -0.2202  0.4303 -0.1996
 4598TIP3    H135285   4.942   1.644   2.872  0.1657  2.1065 -1.5348
 4598TIP3    H235286   5.015   1.772   2.907  3.5303 -0.1525 -0.0666
 4599TIP3   OH235287   4.378   4.461  12.628 -0.9187  0.6293  0.0486
 4599TIP3    H135288   4.468   4.469  12.661 -0.9539  0.1156  0.2723
 4599TIP3    H235289   4.359   4.547  12.589  0.3193  0.1934 -1.6145
 4600TIP3   OH235290   6.741   3.342  14.775 -0.0866 -0.6494  0.4747
 4600TIP3    H135291   6.815   3.388  14.813  0.6852 -0.3401 -1.3346
 4600TIP3    H235292   6.701   3.295  14.848  2.3306 -1.3990  1.3532
 4601TIP3   OH235293   2.079   4.514   5.343 -0.2199  0.0915 -0.0927
 4601TIP3    H135294   2.160   4.463   5.335  0.3332  0.3295  3.3077
 4601TIP3    H235295   2.025   4.463   5.403 -1.6230  1.1489 -0.4468
 4602TIP3   OH235296   4.537   4.464   0.388 -0.7402  0.1310  0.1708
 4602TIP3    H135297   4.459   4.409   0.376 -0.7020  0.2852 -0.8628
 4602TIP3    H235298   4.540   4.517   0.309  0.4299  0.1079  0.1998
 4603TIP3   OH235299   3.499   0.177   0.601 -0.2928 -0.1043  0.0751
 4603TIP3    H135300   3.432   0.208   0.540 -1.2500  0.8077  1.5381
 4603TIP3    H235301   3.531   0.257   0.643  0.8452 -0.6564  0.2748
 4604TIP3   OH235302   5.137   2.560  16.116  0.5451 -0.1757 -0.1192
 4604TIP3    H135303   5.149   2.567  16.021 -0.4834 -1.7104 -0.3760
 4604TIP3    H235304   5.048   2.526  16.126  1.2357 -1.5930  1.3451
 4605TIP3   OH235305   0.317   1.749   0.961  0.1809  0.7698  0.5183
 4605TIP3    H135306   0.300   1.725   0.870 -0.3115  2.1657  0.2274
 4605TIP3    H235307   0.412   1.764   0.965  0.2021  0.7092  0.2442
 4606TIP3   OH235308   0.251   2.817   5.199 -0.2112 -0.4107 -0.0704
 4606TIP3    H135309   0.306   2.892   5.176 -2.4309  0.4969 -2.7579
 4606TIP3    H235310   0.245   2.766   5.118 -3.2044 -0.5313  0.1696
 4607TIP3   OH235311   1.924   5.553  13.409  0.1175 -0.4001 -0.0752
 4607TIP3    H135312   1.888   5.640  13.423 -1.9773 -1.5182  1.8999
 4607TIP3    H235313   1.936   5.517  13.497  3.5185 -1.1459 -0.7437
 4608TIP3   OH235314   1.093   6.146  12.731  0.4580  0.2747 -0.3609
 4608TIP3    H135315   1.078   6.231  12.690 -0.9357  0.6308  0.8393
 4608TIP3    H235316   1.091   6.164  12.825 -0.9337 -1.2444 -0.0744
 4609TIP3   OH235317   5.521   0.388  15.739  0.4561  0.0809 -0.0015
 4609TIP3    H135318   5.588   0.448  15.772 -0.4360  0.8701  0.4227
 4609TIP3    H235319   5.456   0.384  15.810  0.0095 -0.5905 -0.4410
 4610TIP3   OH235320   0.496   3.921   4.186  0.0093  0.3232 -0.7933
 4610TIP3    H135321   0.503   4.009   4.148 -0.3141  0.3196 -0.8653
 4610TIP3    H235322   0.406   3.917   4.218  0.2597  0.3016 -0.0847
 4611TIP3   OH235323   1.159   2.315   4.184 -0.2752 -0.2706 -0.1450
 4611TIP3    H135324   1.147   2.403   4.147  1.3342 -0.5144 -1.2792
 4611TIP3    H235325   1.107   2.258   4.128 -1.0476 -0.0934  0.3863
 4612TIP3   OH235326   1.745   4.743   1.648  0.2269  0.3827 -0.9272
 4612TIP3    H135327   1.746   4.806   1.719  0.1312  1.5055 -1.9112
 4612TIP3    H235328   1.660   4.755   1.606  0.3915 -0.0848 -1.4034
 4613TIP3   OH235329   5.956   6.284   3.167 -0.2719 -0.1924 -0.0161
 4613TIP3    H135330   5.877   6.241   3.135 -0.5893 -1.2155  2.0331
 4613TIP3    H235331   6.019   6.276   3.095 -1.5604 -0.6654 -1.1093
 4614TIP3   OH235332   3.565   1.634  13.357  0.3540 -0.0286  0.5692
 4614TIP3    H135333   3.557   1.539  13.347  1.4888  0.0669 -1.3395
 4614TIP3    H235334   3.650   1.655  13.319 -0.8921  2.0498 -1.1590
 4615TIP3   OH235335   3.108   1.811  12.893  0.5384  0.4550 -0.0230
 4615TIP3    H135336   3.098   1.884  12.955 -0.6445 -0.5229  0.9841
 4615TIP3    H235337   3.018   1.789  12.868  0.7110 -2.1351  1.4704
 4616TIP3   OH235338   6.588   0.625   3.309  0.0314 -0.3465 -0.3374
 4616TIP3    H135339   6.563   0.637   3.400 -0.7780 -0.8611 -0.4843
 4616TIP3    H235340   6.513   0.657   3.259 -0.1439 -1.4561 -0.7955
 4617TIP3   OH235341   3.038   5.400  13.583 -0.2024  0.4588 -0.1027
 4617TIP3    H135342   3.079   5.485  13.596 -0.6565  0.6410  0.1402
 4617TIP3    H235343   2.977   5.413  13.510 -0.6170  0.4650  0.2403
 4618TIP3   OH235344   1.166   2.086   0.715  0.2718 -0.4439 -0.0566
 4618TIP3    H135345   1.234   2.019   0.730 -1.0334 -2.1215 -1.3953
 4618TIP3    H235346   1.105   2.044   0.655  0.0016  2.4084 -1.8450
 4619TIP3   OH235347   6.431   3.349   2.797 -0.0295 -0.2715  0.2588
 4619TIP3    H135348   6.495   3.379   2.732 -0.1066 -1.7383 -0.5131
 4619TIP3    H235349   6.346   3.369   2.758 -0.0636  0.6154  0.7733
 4620TIP3   OH235350   4.089   0.789  14.245  0.6239  0.4188 -0.0815
 4620TIP3    H135351   4.090   0.718  14.309 -0.8906  0.6444  0.2092
 4620TIP3    H235352   4.078   0.745  14.161  1.6124  0.1907 -0.1005
 4621TIP3   OH235353   0.233   3.404   1.786  0.1747 -0.2297 -0.6681
 4621TIP3    H135354   0.312   3.372   1.743  0.4914  2.4077 -2.1464
 4621TIP3    H235355   0.168   3.409   1.717 -0.1819  1.1714 -0.2520
 4622TIP3   OH235356   1.933   1.719  11.555  0.1703  0.6531 -0.3476
 4622TIP3    H135357   1.992   1.677  11.493  1.5194  1.8191  0.1251
 4622TIP3    H235358   1.945   1.671  11.637 -0.0561  0.4488 -0.4345
 4623TIP3   OH235359   2.923   2.355   5.398  0.6709  0.4067 -0.0571
 4623TIP3    H135360   2.986   2.319   5.460  0.4224 -0.2267 -0.1658
 4623TIP3    H235361   2.869   2.280   5.373 -1.1360  1.2446  1.2228
 4624TIP3   OH235362   4.255   4.941   0.922  0.0200  0.4208  0.1453
 4624TIP3    H135363   4.167   4.977   0.916 -0.0477  0.3682  0.7170
 4624TIP3    H235364   4.299   4.970   0.843 -1.0047 -0.9261 -0.9370
 4625TIP3   OH235365   6.555   3.223   5.250  0.0990 -0.0380  0.1740
 4625TIP3    H135366   6.545   3.133   5.280  0.8924  0.2649  1.3736
 4625TIP3    H235367   6.597   3.215   5.164 -1.0418 -0.8591 -0.3163
 4626TIP3   OH235368   1.946   0.304   1.216 -0.2541 -0.3972 -0.3031
 4626TIP3    H135369   1.883   0.335   1.150 -0.4849 -0.1527  0.0301
 4626TIP3    H235370   1.894   0.291   1.295  0.1392 -0.0330  0.0233
 4627TIP3   OH235371   2.832   5.996   2.903 -0.3229  0.7197  0.1496
 4627TIP3    H135372   2.883   6.015   2.982  0.2887  2.3567 -0.6276
 4627TIP3    H235373   2.747   6.037   2.918 -0.4071  0.5284  0.2001
 4628TIP3   OH235374   1.434   0.806  16.100 -0.3652 -0.1965  0.3505
 4628TIP3    H135375   1.387   0.723  16.108 -0.0578 -0.3903  0.1629
 4628TIP3    H235376   1.525   0.781  16.082 -0.2292  0.1772  0.5064
 4629TIP3   OH235377   5.274   0.215  11.621  0.5960 -0.5788 -0.1960
 4629TIP3    H135378   5.332   0.287  11.595  3.2515 -2.2845  0.8676
 4629TIP3    H235379   5.265   0.161  11.542  0.8886 -0.6079 -0.2088
 4630TIP3   OH235380   2.171   5.117   4.456 -0.3891 -0.0191 -0.1335
 4630TIP3    H135381   2.242   5.073   4.503  1.1049  0.7764 -1.6156
 4630TIP3    H235382   2.156   5.198   4.504  0.5031  0.3572 -0.4917
 4631TIP3   OH235383   0.312   6.465  12.715  0.0292  0.0197 -0.5035
 4631TIP3    H135384   0.390   6.409  12.715  0.4608  0.5720  1.6762
 4631TIP3    H235385   0.334   6.537  12.656  1.7902  0.9299  1.1898
 4632TIP3   OH235386   4.859   4.017   4.747 -0.5725  0.3588  0.0304
 4632TIP3    H135387   4.907   4.057   4.820 -2.3222  0.6120  1.0690
 4632TIP3    H235388   4.866   4.082   4.677 -0.2566  0.8416  0.4956
 4633TIP3   OH235389   2.602   6.522  11.324  0.2345  0.7807 -0.8042
 4633TIP3    H135390   2.633   6.454  11.264  0.4797  0.5179 -0.3873
 4633TIP3    H235391   2.542   6.575  11.272 -1.5409 -0.9769 -0.5771
 4634TIP3   OH235392   1.678   4.171   4.573  0.2458 -0.3768 -0.2291
 4634TIP3    H135393   1.766   4.200   4.549  0.1787 -0.6630 -0.8374
 4634TIP3    H235394   1.634   4.155   4.489 -1.2507  2.2518 -0.0055
 4635TIP3   OH235395   2.093   4.221   0.398  0.0892 -0.0163 -0.5718
 4635TIP3    H135396   2.053   4.240   0.482  0.5473 -3.5495  0.5240
 4635TIP3    H235397   2.026   4.244   0.333 -1.4254 -0.2381  0.9031
 4636TIP3   OH235398   6.513   5.438  15.886  0.1338 -0.3269  0.6316
 4636TIP3    H135399   6.594   5.488  15.895  0.7834 -0.9063 -1.6437
 4636TIP3    H235400   6.507   5.420  15.792 -2.3797 -0.7253  0.8539
 4637TIP3   OH235401   0.310   5.824   4.635  0.0871 -0.7147  0.8176
 4637TIP3    H135402   0.359   5.765   4.579 -1.4187 -0.2676 -1.0279
 4637TIP3    H235403   0.287   5.771   4.712 -2.6680 -3.1052 -1.5238
 4638TIP3   OH235404   2.227   4.958  14.768 -0.5350  0.1850  0.1325
 4638TIP3    H135405   2.240   5.043  14.808  2.1971 -0.6922  1.2002
 4638TIP3    H235406   2.278   4.961  14.687 -1.8166  0.1213 -0.7088
 4639TIP3   OH235407   2.876   6.275   4.694  0.1490  0.1624 -0.6207
 4639TIP3    H135408   2.878   6.216   4.619 -0.3837  1.3103 -1.5381
 4639TIP3    H235409   2.785   6.305   4.699 -0.7721 -2.6846  2.6862
 4640TIP3   OH235410   1.946   3.861   3.000  0.4750 -0.1025  0.3195
 4640TIP3    H135411   1.914   3.771   2.997  1.4385 -0.4573  0.4859
 4640TIP3    H235412   2.015   3.859   3.066  2.7808 -0.0013 -2.0316
 4641TIP3   OH235413   5.392   0.678  15.195 -0.0618  0.1364  0.1821
 4641TIP3    H135414   5.326   0.620  15.232 -0.2407 -0.5493 -1.1876
 4641TIP3    H235415   5.475   0.645  15.229 -0.0660 -1.6134 -1.4734
 4642TIP3   OH235416   1.597   1.692   4.873 -0.0337 -0.0028 -0.8072
 4642TIP3    H135417   1.635   1.719   4.789 -0.1590  0.1613 -0.8110
 4642TIP3    H235418   1.506   1.673   4.853 -0.2285  0.6710 -0.5813
 4643TIP3   OH235419   1.972   0.559   4.266 -0.1007  0.0160  0.8209
 4643TIP3    H135420   2.034   0.626   4.296 -0.6458  1.1513 -0.5488
 4643TIP3    H235421   1.982   0.556   4.171 -1.2850 -0.6462  0.6976
 4644TIP3   OH235422   4.703   4.852  16.380 -0.3727 -0.1390  0.0772
 4644TIP3    H135423   4.734   4.764  16.355 -0.6958  0.3972 -2.3060
 4644TIP3    H235424   4.783   4.903  16.390 -0.2101 -0.5326  0.8800
 4645TIP3   OH235425   5.900   5.694   2.482 -0.1604  0.0202 -0.3747
 4645TIP3    H135426   5.954   5.650   2.417 -0.7799 -0.7574 -0.3758
 4645TIP3    H235427   5.811   5.691   2.446 -0.1092  1.9013 -0.7014
 4646TIP3   OH235428   2.138   2.871  14.564 -0.1288 -0.3223  0.2868
 4646TIP3    H135429   2.092   2.813  14.625  0.6056 -1.0596  0.1518
 4646TIP3    H235430   2.175   2.940  14.620 -0.6963 -0.1874  0.4966
 4647TIP3   OH235431   0.670   4.272   5.882  0.2448 -0.0647 -0.8257
 4647TIP3    H135432   0.652   4.348   5.937  0.4185 -0.0174 -0.8352
 4647TIP3    H235433   0.649   4.197   5.938 -1.2376  0.0076 -1.2634
 4648TIP3   OH235434   0.776   4.110   4.557  0.1236  0.0882  0.4012
 4648TIP3    H135435   0.793   4.024   4.518  0.2677  0.2619  0.0741
 4648TIP3    H235436   0.859   4.136   4.596 -0.1466 -0.2940  1.2452
 4649TIP3   OH235437   3.509   3.226   2.429 -0.0160  0.4429  0.4950
 4649TIP3    H135438   3.479   3.317   2.434 -0.1366  0.4101  0.3377
 4649TIP3    H235439   3.599   3.229   2.462  0.1989  0.7223 -0.1132
 4650TIP3   OH235440   2.620   1.236  15.487 -0.1853  0.1439 -0.3951
 4650TIP3    H135441   2.631   1.326  15.517 -0.8291  0.3899 -0.8821
 4650TIP3    H235442   2.645   1.238  15.395 -1.4532  0.1064 -0.7513
 4651TIP3   OH235443   1.731   1.600  15.556 -0.5130  0.0419 -0.2146
 4651TIP3    H135444   1.702   1.527  15.612  2.3829 -0.2583  1.0115
 4651TIP3    H235445   1.754   1.559  15.473  0.1164 -0.3025  0.1252
 4652TIP3   OH235446   2.158   2.178  15.974  0.1249 -0.2894 -0.0087
 4652TIP3    H135447   2.073   2.193  16.015  0.4461  1.7585  0.0012
 4652TIP3    H235448   2.146   2.204  15.883  1.0292  1.2856  0.2801
 4653TIP3   OH235449   2.334   0.855  11.630  0.3286 -0.3132 -0.3668
 4653TIP3    H135450   2.320   0.841  11.723  1.3321  0.5101 -0.0757
 4653TIP3    H235451   2.358   0.769  11.596 -0.2893 -0.6642  0.0830
 4654TIP3   OH235452   4.633   6.649  15.684  0.0839  0.0992 -0.0874
 4654TIP3    H135453   4.669   6.605  15.760  1.4033  1.3958  0.0626
 4654TIP3    H235454   4.693   6.627  15.612  0.2647  0.9364 -0.1954
 4655TIP3   OH235455   5.259   5.485   1.503  0.3602 -0.5418  0.0402
 4655TIP3    H135456   5.342   5.524   1.531 -0.3752  0.9606  0.1707
 4655TIP3    H235457   5.205   5.560   1.477 -1.3964 -1.4094  1.1113
 4656TIP3   OH235458   4.508   0.042   2.324  0.8278 -0.0423 -0.6739
 4656TIP3    H135459   4.592   0.016   2.286  1.5332 -1.4422  1.7265
 4656TIP3    H235460   4.451  -0.034   2.311  0.8292 -0.2149  0.3036
 4657TIP3   OH235461   2.314   1.897  10.723 -1.1185  1.2325  0.3746
 4657TIP3    H135462   2.327   1.943  10.640 -1.1189  0.6963  0.0786
 4657TIP3    H235463   2.358   1.953  10.788  1.5584  0.1247 -0.4052
 4658TIP3   OH235464   5.120   5.554   4.518  0.4068  0.2049 -0.0611
 4658TIP3    H135465   5.136   5.545   4.424 -2.4692  0.1555 -0.6038
 4658TIP3    H235466   5.180   5.623   4.546  4.4534 -2.7466 -1.0007
 4659TIP3   OH235467   0.115   2.136  14.704 -0.2837 -0.3135  0.4600
 4659TIP3    H135468   0.146   2.067  14.763  0.5725 -0.3537 -0.0262
 4659TIP3    H235469   0.145   2.108  14.618  0.4322  0.8614  0.3149
 4660TIP3   OH235470   2.156   3.108  12.164 -0.0851 -0.0138  0.2369
 4660TIP3    H135471   2.073   3.154  12.160  0.6093  1.0923 -1.8303
 4660TIP3    H235472   2.168   3.088  12.257 -1.7631  1.4521  0.7856
 4661TIP3   OH235473   4.136   2.882  15.893  0.0918 -0.2579  0.3293
 4661TIP3    H135474   4.208   2.841  15.844 -1.4227 -1.1810 -1.2043
 4661TIP3    H235475   4.084   2.927  15.826 -1.2306 -0.3162  1.2848
 4662TIP3   OH235476   4.879   5.332  11.555  0.0925 -0.2188  0.1934
 4662TIP3    H135477   4.785   5.323  11.567 -0.3875  1.3184 -2.1870
 4662TIP3    H235478   4.894   5.311  11.463  1.8373  1.3658  0.0887
 4663TIP3   OH235479   0.466   2.421   4.927  0.3881 -0.7489 -0.3441
 4663TIP3    H135480   0.429   2.349   4.978 -0.9709  2.1098  2.9447
 4663TIP3    H235481   0.556   2.429   4.959 -0.1404  0.3629  0.9339
 4664TIP3   OH235482   5.891   6.800   0.471 -0.0286 -0.0778 -0.3873
 4664TIP3    H135483   5.825   6.853   0.516  0.5833  0.5671 -0.2475
 4664TIP3    H235484   5.918   6.735   0.535  1.7605  1.6210  0.6221
 4665TIP3   OH235485   5.360   6.589   3.705  0.1891 -0.1815  0.2199
 4665TIP3    H135486   5.448   6.563   3.729  0.4313  0.9719  0.5922
 4665TIP3    H235487   5.348   6.675   3.744 -2.3163 -1.6851  3.0596
 4666TIP3   OH235488   0.957   6.524   0.161  0.5570 -0.1966 -0.5884
 4666TIP3    H135489   0.894   6.456   0.138 -1.2144  0.9452  0.8105
 4666TIP3    H235490   0.963   6.579   0.082 -0.7766  0.1278 -0.4734
 4667TIP3   OH235491   4.032   6.033  15.408 -0.0011 -0.2475 -0.3586
 4667TIP3    H135492   3.945   6.000  15.385 -0.0215 -0.0258 -0.6111
 4667TIP3    H235493   4.066   5.970  15.470 -0.3088 -0.3855 -0.3288
 4668TIP3   OH235494   1.078   0.128   2.060  0.1599  0.0235 -0.1970
 4668TIP3    H135495   1.097   0.222   2.065 -1.6035  0.3179  1.3984
 4668TIP3    H235496   1.157   0.086   2.094  0.2284  1.0151  0.9140
 4669TIP3   OH235497   5.855   1.186   1.579  0.2923 -0.4466  0.0858
 4669TIP3    H135498   5.892   1.268   1.545  0.8791 -0.2890  1.0859
 4669TIP3    H235499   5.763   1.189   1.553  0.5228  0.0982 -0.6870
 4670TIP3   OH235500   3.080   3.736   4.588 -0.5836 -0.4071  0.3064
 4670TIP3    H135501   2.993   3.754   4.554 -0.7074  1.3581  1.4603
 4670TIP3    H235502   3.065   3.682   4.665 -0.5498 -1.4025 -0.3854
 4671TIP3   OH235503   0.692   6.225  15.636 -0.0454  0.3290 -0.4209
 4671TIP3    H135504   0.695   6.130  15.635 -1.0047  0.2912 -0.6008
 4671TIP3    H235505   0.629   6.248  15.567  0.0115  1.0784 -0.2329
 4672TIP3   OH235506   3.318   1.276   3.103 -0.1220 -0.0707  0.2143
 4672TIP3    H135507   3.228   1.247   3.091 -0.3290  0.1583  1.1540
 4672TIP3    H235508   3.317   1.368   3.079  0.1300 -0.3600 -0.9442
 4673TIP3   OH235509   1.216   3.448  16.982  0.1361 -0.5846 -0.2514
 4673TIP3    H135510   1.164   3.378  16.944 -1.0478  0.2296 -0.1348
 4673TIP3    H235511   1.178   3.462  17.068  1.5885 -1.1025  0.4956
 4674TIP3   OH235512   4.933   0.871  14.131  0.2002 -0.1623 -0.1876
 4674TIP3    H135513   4.919   0.827  14.048 -0.0179  0.1809 -0.3342
 4674TIP3    H235514   4.849   0.862  14.178 -0.3418  1.3591 -0.8158
 4675TIP3   OH235515   0.735   5.968  17.052 -0.2149 -0.0890 -0.1276
 4675TIP3    H135516   0.790   5.894  17.078 -0.4987 -0.7889 -1.4495
 4675TIP3    H235517   0.646   5.940  17.071 -0.2456  0.3094  0.3040
 4676TIP3   OH235518   1.509   4.094  15.474 -0.4100 -0.4686  0.1002
 4676TIP3    H135519   1.580   4.136  15.523 -1.7296  2.2589 -0.2578
 4676TIP3    H235520   1.543   4.085  15.385  0.3510 -1.4028  0.4713
 4677TIP3   OH235521   1.004   4.482  12.526  0.0674 -0.0818  0.0199
 4677TIP3    H135522   0.985   4.451  12.437  2.8600  1.3181 -1.1395
 4677TIP3    H235523   1.098   4.502  12.524 -0.3615  2.3999  2.5445
 4678TIP3   OH235524   0.821   2.383   1.632 -0.0267  0.2392 -0.2319
 4678TIP3    H135525   0.866   2.298   1.633  0.5087  0.4845 -2.3093
 4678TIP3    H235526   0.771   2.384   1.714 -0.7773 -2.4809 -0.6099
 4679TIP3   OH235527   1.606   4.196  14.967 -0.3493 -0.4208  0.6670
 4679TIP3    H135528   1.559   4.246  14.900 -1.3891 -1.2590  0.7627
 4679TIP3    H235529   1.541   4.136  15.003  0.7339 -1.4495  0.9580
 4680TIP3   OH235530   1.491   4.243  14.285  0.0082 -0.3393 -0.1620
 4680TIP3    H135531   1.448   4.200  14.358  0.1676 -0.5215 -0.1763
 4680TIP3    H235532   1.516   4.172  14.225  0.4127 -0.2451 -0.1084
 4681TIP3   OH235533   2.427   2.403  16.111  0.1870 -0.2393  0.2005
 4681TIP3    H135534   2.444   2.493  16.139  1.3222 -0.7014  1.0322
 4681TIP3    H235535   2.332   2.399  16.102 -0.0296  0.5488  1.8902
 4682TIP3   OH235536   3.048   6.244   1.864  0.3874 -0.3014 -0.8037
 4682TIP3    H135537   2.985   6.300   1.818 -0.3512 -1.2002 -0.8866
 4682TIP3    H235538   3.099   6.203   1.794  0.5811 -0.1409 -0.7577
 4683TIP3   OH235539   3.922   1.709  13.866 -0.6071  0.3301  0.3440
 4683TIP3    H135540   3.995   1.767  13.886 -0.5145  0.2862  0.1297
 4683TIP3    H235541   3.938   1.678  13.777 -1.0913  0.6241  0.1518
 4684TIP3   OH235542   1.648   0.685  10.984 -0.1921  0.0112  0.3405
 4684TIP3    H135543   1.655   0.698  11.079 -0.6756 -0.4369  0.4402
 4684TIP3    H235544   1.610   0.766  10.951  2.6277  1.3080  0.1682
 4685TIP3   OH235545   3.901   6.699   0.964  0.1797  0.5213  0.6656
 4685TIP3    H135546   3.985   6.651   0.963 -0.2126 -0.1603 -0.1631
 4685TIP3    H235547   3.907   6.757   0.889 -0.5838 -0.4052 -0.1257
 4686TIP3   OH235548   1.854   4.995   0.619  0.2860  0.4502 -0.5098
 4686TIP3    H135549   1.918   5.048   0.573 -0.0432  0.6622 -0.7288
 4686TIP3    H235550   1.878   5.002   0.711  1.7934 -1.1068 -0.7588
 4687TIP3   OH235551   2.532   4.606  11.719 -0.6266  0.6820 -0.4783
 4687TIP3    H135552   2.472   4.532  11.730 -2.0257  1.4814 -2.4951
 4687TIP3    H235553   2.599   4.573  11.659  0.4069  0.1317  0.9433
 4688TIP3   OH235554   1.949   4.405  16.129 -0.2357 -0.3378 -0.1217
 4688TIP3    H135555   1.918   4.315  16.119  1.4260 -0.8526 -0.9112
 4688TIP3    H235556   1.932   4.446  16.044 -1.0785  0.1150  0.2700
 4689TIP3   OH235557   6.550   5.172  14.996 -0.4600  0.0251 -0.2249
 4689TIP3    H135558   6.544   5.099  14.934 -1.6527 -1.3907  1.5029
 4689TIP3    H235559   6.507   5.245  14.951  0.7292 -0.3102 -1.9663
 4690TIP3   OH235560   1.675   0.451   0.594  0.2947 -0.3618  0.4475
 4690TIP3    H135561   1.755   0.444   0.542  0.9757 -0.3220  1.4504
 4690TIP3    H235562   1.696   0.406   0.676 -0.8633 -0.7241  0.5583
 4691TIP3   OH235563   3.843   0.797  11.788  0.4014  0.0600  0.1257
 4691TIP3    H135564   3.765   0.742  11.779 -0.4168  1.4291 -1.3627
 4691TIP3    H235565   3.880   0.802  11.700 -0.7036  3.5346 -0.2146
 4692TIP3   OH235566   2.035   0.996  13.035 -0.8283 -0.4787  0.2306
 4692TIP3    H135567   2.063   0.921  12.983  0.4387  0.2162 -0.1258
 4692TIP3    H235568   2.082   0.987  13.118  1.7018  1.4533 -0.8935
 4693TIP3   OH235569   4.405   1.846  13.051 -0.1528 -0.4389 -0.6640
 4693TIP3    H135570   4.495   1.872  13.071 -0.5256 -0.0802  0.5615
 4693TIP3    H235571   4.408   1.822  12.958  1.3555 -1.0836 -0.4694
 4694TIP3   OH235572   3.095   0.388  14.653 -0.3939  0.2471 -0.0901
 4694TIP3    H135573   3.168   0.440  14.617  1.1205 -0.8043  1.3797
 4694TIP3    H235574   3.126   0.298  14.649 -1.7148 -0.2346  0.3826
 4695TIP3   OH235575   6.552   5.756   0.459 -0.2647  0.3518 -0.7980
 4695TIP3    H135576   6.567   5.803   0.540 -1.0442 -0.6763 -0.0467
 4695TIP3    H235577   6.459   5.772   0.439 -0.5127 -0.7667 -0.5830
 4696TIP3   OH235578   4.179   1.473   0.772  0.3703  0.5500  0.2935
 4696TIP3    H135579   4.094   1.448   0.807  0.5969  0.5356  0.8360
 4696TIP3    H235580   4.168   1.565   0.747 -0.3803  0.0073 -1.4562
 4697TIP3   OH235581   3.674   4.090   0.143 -0.4365  0.3116  0.7650
 4697TIP3    H135582   3.740   4.090   0.074 -0.2427 -0.7792  0.9291
 4697TIP3    H235583   3.723   4.073   0.224 -0.8211  0.2674  0.9920
 4698TIP3   OH235584   0.762   5.349   5.304 -1.0433  0.1580 -0.0937
 4698TIP3    H135585   0.837   5.409   5.300 -0.4705 -0.6182 -1.3623
 4698TIP3    H235586   0.714   5.364   5.223 -1.0521 -0.8750 -0.2898
 4699TIP3   OH235587   0.269   1.993   2.758 -0.0226  0.2032  0.2270
 4699TIP3    H135588   0.320   2.056   2.809 -0.5875 -0.2334  1.3355
 4699TIP3    H235589   0.264   2.032   2.671  2.0304  0.3516  0.1480
 4700TIP3   OH235590   3.405   1.197   4.177 -0.2322 -0.3799  0.1181
 4700TIP3    H135591   3.431   1.141   4.104 -0.1383  0.9471 -0.8811
 4700TIP3    H235592   3.346   1.261   4.138  0.8023  1.1128  0.9401
 4701TIP3   OH235593   2.072   1.605  15.622  0.1262  0.0147  0.2265
 4701TIP3    H135594   2.056   1.676  15.559 -0.0549  0.3711  0.6725
 4701TIP3    H235595   1.994   1.550  15.616 -0.1321  0.3481  0.5382
 4702TIP3   OH235596   6.681   5.534  11.511  0.2702  0.2087 -0.2824
 4702TIP3    H135597   6.712   5.623  11.528  1.0139 -0.2550  0.8701
 4702TIP3    H235598   6.598   5.545  11.464 -0.4592  1.5355  1.2923
 4703TIP3   OH235599   3.680   5.085  17.287 -0.0427  0.2911 -0.0166
 4703TIP3    H135600   3.723   5.058  17.368  0.5450 -0.8522 -0.7007
 4703TIP3    H235601   3.708   5.021  17.222 -2.3365 -0.1797 -0.6091
 4704TIP3   OH235602   2.394   6.390  12.198  0.5224  0.1495  0.5073
 4704TIP3    H135603   2.307   6.404  12.161  1.0636 -0.9690 -1.2516
 4704TIP3    H235604   2.389   6.426  12.286 -1.4726  0.8469  0.1262
 4705TIP3   OH235605   1.595   6.080   4.383 -0.1039 -0.9355  0.5879
 4705TIP3    H135606   1.667   6.023   4.410  1.7422  0.7134 -0.6458
 4705TIP3    H235607   1.597   6.078   4.288  0.1015  1.2487  0.5163
 4706TIP3   OH235608   3.778   1.371   4.889 -0.0076  0.0383 -0.2154
 4706TIP3    H135609   3.864   1.352   4.927 -0.3852  2.1798  1.7916
 4706TIP3    H235610   3.794   1.447   4.831 -1.0888  2.6066  2.7147
 4707TIP3   OH235611   0.993   4.357  15.384  0.1776 -0.3864  0.0920
 4707TIP3    H135612   1.072   4.398  15.349 -0.9231  0.9323 -0.9296
 4707TIP3    H235613   0.992   4.269  15.346  0.5059  0.0239 -0.8914
 4708TIP3   OH235614   6.262   5.244  13.899  0.0888 -0.6327  0.3156
 4708TIP3    H135615   6.182   5.294  13.879  0.7286 -0.2741 -1.4443
 4708TIP3    H235616   6.325   5.310  13.927  0.6388 -0.5491 -1.0806
 4709TIP3   OH235617   1.836   0.078  12.429 -0.4275  0.3780  0.1134
 4709TIP3    H135618   1.842   0.172  12.413 -0.9078  0.5813  1.0593
 4709TIP3    H235619   1.898   0.061  12.500 -0.6263  0.0552  0.2148
 4710TIP3   OH235620   2.305   2.825   4.097 -0.1620  0.4027 -0.0775
 4710TIP3    H135621   2.245   2.798   4.027 -0.3440 -0.9197  0.5733
 4710TIP3    H235622   2.390   2.830   4.054 -0.4729  0.7658 -0.6602
 4711TIP3   OH235623   1.492   3.574  11.595  0.5887 -0.0294  0.3002
 4711TIP3    H135624   1.506   3.535  11.509  1.4397 -0.8568  0.7970
 4711TIP3    H235625   1.575   3.562  11.641 -0.8703 -2.7675  2.4329
 4712TIP3   OH235626   4.089   0.438  12.355 -0.1383 -0.2609  0.0976
 4712TIP3    H135627   4.010   0.425  12.302  0.6785  1.4975 -1.5823
 4712TIP3    H235628   4.081   0.527  12.389  0.6149 -0.4651  0.8222
 4713TIP3   OH235629   2.550   5.469   5.903 -0.7012  0.5940 -0.1520
 4713TIP3    H135630   2.591   5.383   5.911 -0.4612  0.7159 -0.0763
 4713TIP3    H235631   2.506   5.483   5.987  0.7821  1.3339  0.5212
 4714TIP3   OH235632   1.436   5.159   1.251  0.5437  0.1161  0.0450
 4714TIP3    H135633   1.521   5.136   1.212  0.4320 -0.5254  0.1655
 4714TIP3    H235634   1.456   5.177   1.342  0.6853  0.8339 -0.1290
 4715TIP3   OH235635   0.439   2.850  12.828  0.0435  0.6055 -0.3132
 4715TIP3    H135636   0.523   2.804  12.829  1.7269  3.5564 -0.7434
 4715TIP3    H235637   0.440   2.905  12.906 -1.6238  0.4534 -0.1640
 4716TIP3   OH235638   6.141   2.726  11.712 -0.1618 -0.1620 -0.0108
 4716TIP3    H135639   6.164   2.812  11.675 -3.3920  0.3991 -0.8651
 4716TIP3    H235640   6.186   2.663  11.656  1.0161  0.8905 -0.2965
 4717TIP3   OH235641   1.060   3.696  14.240  0.0697 -0.1366 -0.3349
 4717TIP3    H135642   1.154   3.678  14.235 -0.1017 -1.6476  1.2746
 4717TIP3    H235643   1.051   3.756  14.313 -0.4151 -1.6752  0.8898
 4718TIP3   OH235644   2.448   3.651   4.714 -0.0448 -0.5695  0.5980
 4718TIP3    H135645   2.463   3.561   4.684  1.8075 -0.0075 -0.2334
 4718TIP3    H235646   2.447   3.703   4.634 -1.3175  0.1493  1.0578
 4719TIP3   OH235647   0.110   0.578  16.441  0.4559 -0.2117  0.2151
 4719TIP3    H135648   0.164   0.548  16.514  0.2791 -1.0326  0.0215
 4719TIP3    H235649   0.065   0.498  16.411 -0.6969  0.4120  0.2445
 4720TIP3   OH235650   0.223   4.942  16.245 -0.1929 -0.2097  0.0481
 4720TIP3    H135651   0.140   4.977  16.275 -0.2053 -0.4363  0.2841
 4720TIP3    H235652   0.228   4.855  16.284 -0.4327 -0.7034 -1.0145
 4721TIP3   OH235653   2.859   5.998   3.708  0.2001  0.4536  0.2390
 4721TIP3    H135654   2.839   5.924   3.651 -0.1037 -0.1657  1.1380
 4721TIP3    H235655   2.795   5.991   3.779  1.4466  0.4119  1.3768
 4722TIP3   OH235656   4.089   0.711  12.453  0.4023  0.1352 -0.4552
 4722TIP3    H135657   4.125   0.736  12.368 -0.7715  0.1583 -0.9556
 4722TIP3    H235658   4.103   0.788  12.508 -2.4945  1.6556 -1.7698
 4723TIP3   OH235659   6.364   6.148  16.319  0.2740  0.6999  0.0868
 4723TIP3    H135660   6.289   6.149  16.379  0.6176 -1.1540  0.5835
 4723TIP3    H235661   6.438   6.174  16.373  0.4940 -0.4434  0.3349
 4724TIP3   OH235662   3.208   6.795   2.955 -0.0476 -0.0049  0.6083
 4724TIP3    H135663   3.140   6.763   2.897 -0.2701  0.2986  0.6993
 4724TIP3    H235664   3.179   6.771   3.043 -1.5525  2.7512  0.9397
 4725TIP3   OH235665   3.735   6.751  12.039  0.4928 -0.4837 -0.0846
 4725TIP3    H135666   3.723   6.750  12.134 -1.5377 -1.1439 -0.3231
 4725TIP3    H235667   3.669   6.690  12.006  0.5459  0.4581 -1.9873
 4726TIP3   OH235668   2.143   3.418  11.791 -0.6001 -0.1249 -0.4908
 4726TIP3    H135669   2.199   3.351  11.831 -0.3477  0.5281  0.2729
 4726TIP3    H235670   2.057   3.377  11.786 -0.3873 -0.6079 -0.2857
 4727TIP3   OH235671   4.166   0.959   4.062  0.3828 -0.1680 -0.2930
 4727TIP3    H135672   4.157   1.048   4.096  1.4009  0.8392 -2.6060
 4727TIP3    H235673   4.234   0.920   4.117  0.6422  0.7915  0.0795
 4728TIP3   OH235674   2.936   3.618   3.036  0.1329 -0.0497 -0.0010
 4728TIP3    H135675   3.006   3.678   3.011  1.4382 -1.1360  0.9722
 4728TIP3    H235676   2.865   3.675   3.066  1.4411  1.0031  1.1298
 4729TIP3   OH235677   0.672   0.972   1.307 -0.2330 -0.1982  0.2208
 4729TIP3    H135678   0.750   0.943   1.259  0.5910  0.3717  1.2024
 4729TIP3    H235679   0.678   1.068   1.307 -0.9885 -0.1420  0.2319
 4730TIP3   OH235680   5.932   5.814   3.624 -0.1167 -0.1914 -0.3249
 4730TIP3    H135681   5.984   5.736   3.643  0.6187  0.4398  0.3021
 4730TIP3    H235682   5.996   5.881   3.601 -0.7027  0.3670 -0.3603
 4731TIP3   OH235683   2.493   2.793  12.872 -0.0242  0.3108 -0.3255
 4731TIP3    H135684   2.486   2.763  12.781  0.1563  0.5892 -0.4295
 4731TIP3    H235685   2.419   2.852  12.883  0.8810  1.5544 -0.7801
 4732TIP3   OH235686   2.092   0.595   4.666  0.1019  0.3368 -0.0598
 4732TIP3    H135687   2.088   0.631   4.577  1.2074 -0.9350 -0.6257
 4732TIP3    H235688   2.041   0.514   4.662 -1.7092  1.3741  1.0270
 4733TIP3   OH235689   6.159   0.266   4.664 -0.4605  0.7127  0.2907
 4733TIP3    H135690   6.141   0.337   4.603 -0.6296  2.9048  2.8027
 4733TIP3    H235691   6.252   0.246   4.651 -0.5510  0.9730 -0.8329
 4734TIP3   OH235692   0.247   0.955  17.245 -0.0179  0.0612 -0.1620
 4734TIP3    H135693   0.156   0.981  17.229 -0.2845  0.4404  1.7856
 4734TIP3    H235694   0.295   0.987  17.169 -1.5297 -0.2427 -1.2695
 4735TIP3   OH235695   6.583   4.268   2.153  0.2884  0.3303  0.1001
 4735TIP3    H135696   6.637   4.189   2.150 -1.7313 -1.0822 -0.0604
 4735TIP3    H235697   6.612   4.314   2.232 -0.2614 -1.8561  1.6215
 4736TIP3   OH235698   1.155   3.196   0.479  0.9549  0.4508 -0.4140
 4736TIP3    H135699   1.172   3.124   0.418 -0.0403  0.8829 -1.2092
 4736TIP3    H235700   1.107   3.261   0.427  3.5002  2.5503 -0.2400
 4737TIP3   OH235701   1.603   6.565   2.804 -0.4782  0.0871 -0.1265
 4737TIP3    H135702   1.637   6.574   2.715  0.4200  1.0297  0.3069
 4737TIP3    H235703   1.660   6.500   2.845 -2.1845 -1.9260 -0.8691
 4738TIP3   OH235704   5.696   2.632  15.695  0.2014 -0.3024 -0.4638
 4738TIP3    H135705   5.746   2.702  15.736  2.6236 -0.3475 -3.2134
 4738TIP3    H235706   5.606   2.666  15.689  0.3671  0.7384  2.2960
 4739TIP3   OH235707   4.773   0.064  14.593 -0.7955  0.8861  0.5228
 4739TIP3    H135708   4.865   0.078  14.572 -0.6622  0.9589  1.1727
 4739TIP3    H235709   4.726   0.122  14.532 -0.5219 -0.8163 -1.3566
 4740TIP3   OH235710   5.038   6.549   5.876 -0.1645 -0.4966 -0.1645
 4740TIP3    H135711   5.100   6.492   5.922  1.1591  1.2433  0.2547
 4740TIP3    H235712   4.952   6.516   5.903  0.5760 -1.0279  1.6606
 4741TIP3   OH235713   0.669   0.438  16.400 -0.0340 -0.1526  0.3542
 4741TIP3    H135714   0.697   0.527  16.423  1.3388 -0.1783 -1.0910
 4741TIP3    H235715   0.724   0.381  16.455 -1.0855 -0.1150  1.4582
 4742TIP3   OH235716   1.027   2.107  15.252 -0.0153  0.0080 -0.1763
 4742TIP3    H135717   0.972   2.112  15.330  1.3146  1.4183  0.6890
 4742TIP3    H235718   1.027   2.196  15.217  1.2640 -0.1090 -0.4830
 4743TIP3   OH235719   1.542   0.397   4.560  0.0501 -0.3982 -0.1056
 4743TIP3    H135720   1.547   0.320   4.617 -2.0691 -0.6794 -0.2455
 4743TIP3    H235721   1.509   0.363   4.476 -0.3064  0.5571 -0.3630
 4744TIP3   OH235722   6.819   3.221  13.600  0.1466  0.0319  0.7131
 4744TIP3    H135723   6.774   3.151  13.647 -0.3058 -1.9599 -2.5222
 4744TIP3    H235724   6.767   3.233  13.520  2.5076  1.2221 -0.6984
 4745TIP3   OH235725   2.661   1.099  14.977 -0.0007  0.2383  0.2064
 4745TIP3    H135726   2.568   1.084  14.960 -0.5573  0.6064  2.7493
 4745TIP3    H235727   2.704   1.019  14.947 -1.3904 -0.8096  0.9493
 4746TIP3   OH235728   3.624   0.640  11.799  0.1403  0.0330 -0.4129
 4746TIP3    H135729   3.529   0.653  11.802  0.1332  0.5676 -2.5350
 4746TIP3    H235730   3.641   0.575  11.868 -1.8821 -0.7727 -0.6351
 4747TIP3   OH235731   2.973   5.281   5.746  0.0570  0.2584 -0.7295
 4747TIP3    H135732   3.016   5.246   5.668  0.0519 -1.9406  0.2158
 4747TIP3    H235733   3.043   5.326   5.793  0.9362 -1.6302 -0.1673
 4748TIP3   OH235734   2.108   4.479  16.339 -0.0266  0.3570 -0.6464
 4748TIP3    H135735   2.050   4.461  16.264  0.4465 -1.9467 -0.5014
 4748TIP3    H235736   2.169   4.405  16.340  0.8490  1.0862  1.1879
 4749TIP3   OH235737   6.399   5.947  13.905 -0.4726  0.0581 -0.1371
 4749TIP3    H135738   6.346   6.025  13.886 -1.2719 -0.0010  1.7666
 4749TIP3    H235739   6.427   5.959  13.995  2.3766 -0.1724 -0.9379
 4750TIP3   OH235740   6.267   4.160  15.272  0.3218 -0.1440  0.3651
 4750TIP3    H135741   6.192   4.121  15.317  0.2703 -0.1021  0.3141
 4750TIP3    H235742   6.288   4.239  15.323  1.5094 -1.1489  1.4821
 4751TIP3   OH235743   6.575   1.651  14.524 -0.3760  0.3864 -0.3461
 4751TIP3    H135744   6.486   1.615  14.521  0.1268 -1.1352  1.7840
 4751TIP3    H235745   6.569   1.724  14.586 -0.0279 -0.0680  0.2270
 4752TIP3   OH235746   1.871   0.791  14.626 -0.5302 -0.4486 -0.0317
 4752TIP3    H135747   1.879   0.882  14.655  0.1342 -0.5832  0.2104
 4752TIP3    H235748   1.902   0.792  14.536 -1.1505 -0.3157 -0.2485
 4753TIP3   OH235749   1.075   5.592  11.616  0.3042  0.3810  0.6376
 4753TIP3    H135750   1.069   5.516  11.558  0.3899  1.6264 -1.0435
 4753TIP3    H235751   1.111   5.557  11.697 -0.7643 -1.5817  0.3020
 4754TIP3   OH235752   6.594   0.992   3.529  0.1463 -0.2434 -0.2897
 4754TIP3    H135753   6.615   1.085   3.543  3.0952 -0.8117 -0.7974
 4754TIP3    H235754   6.618   0.975   3.438  1.3276 -1.9456  0.3197
 4755TIP3   OH235755   1.244   6.101  15.687 -0.2472  0.6292  0.1458
 4755TIP3    H135756   1.165   6.060  15.724 -0.0768 -1.8023 -2.0438
 4755TIP3    H235757   1.211   6.157  15.617 -0.0322 -0.7394 -1.0719
 4756TIP3   OH235758   5.072   0.372  11.813  0.2363  0.0174 -0.0592
 4756TIP3    H135759   5.161   0.390  11.786  0.1948  1.1742  0.5607
 4756TIP3    H235760   5.021   0.369  11.732  1.0781 -2.1532 -0.5567
 4757TIP3   OH235761   4.166   4.115   4.620  0.5140  0.3179  0.7656
 4757TIP3    H135762   4.122   4.077   4.697 -1.5993  0.9204 -0.1167
 4757TIP3    H235763   4.255   4.134   4.650  0.1787 -0.9139  2.6063
 4758TIP3   OH235764   5.677   4.220   6.180  0.5133 -0.5297 -0.1895
 4758TIP3    H135765   5.652   4.182   6.264  0.4574  2.4844  1.2471
 4758TIP3    H235766   5.606   4.198   6.120 -1.4539  0.7182  1.6434
 4759TIP3   OH235767   0.962   5.459   2.760 -0.5331  0.3658 -0.6670
 4759TIP3    H135768   1.013   5.424   2.687  0.0687 -1.1356  0.4566
 4759TIP3    H235769   1.019   5.525   2.800 -1.4092  2.2348 -2.3716
 4760TIP3   OH235770   5.048   3.384   5.848  0.3592  0.1026  0.1364
 4760TIP3    H135771   5.082   3.296   5.829  0.2761  0.0149  0.4008
 4760TIP3    H235772   5.087   3.439   5.780  0.5626 -0.1031  0.0843
 4761TIP3   OH235773   2.939   6.245  16.107 -0.4368  0.0030 -0.7526
 4761TIP3    H135774   3.010   6.283  16.056 -0.2354 -0.8202 -1.0853
 4761TIP3    H235775   2.938   6.152  16.084  1.4731 -1.0093  2.8072
 4762TIP3   OH235776   6.814   4.704   1.968  0.4073 -0.3616 -0.1381
 4762TIP3    H135777   6.852   4.666   2.048  1.4597  0.1034 -0.4087
 4762TIP3    H235778   6.793   4.794   1.992 -2.1346 -1.0781  0.5160
 4763TIP3   OH235779   4.679   6.586   0.040  0.0075 -0.0093  0.4587
 4763TIP3    H135780   4.599   6.542   0.069  0.1046 -0.3032  0.2793
 4763TIP3    H235781   4.649   6.647  -0.027  0.0060 -0.4886  0.0219
 4764TIP3   OH235782   6.557   3.787  12.708  0.3712  0.8421 -0.2200
 4764TIP3    H135783   6.519   3.865  12.747  1.1892  1.4298 -0.5721
 4764TIP3    H235784   6.595   3.740  12.782  2.0203  2.0131 -0.2762
 4765TIP3   OH235785   1.558   6.491  12.126  0.4251  0.0142 -0.0505
 4765TIP3    H135786   1.577   6.436  12.202 -1.1702 -2.0483 -1.0789
 4765TIP3    H235787   1.473   6.532  12.146  1.0040  1.1334  0.1644
 4766TIP3   OH235788   1.316   3.014   1.439  0.2529  0.2567 -0.0977
 4766TIP3    H135789   1.310   2.982   1.529  1.4079 -0.3880 -0.2368
 4766TIP3    H235790   1.226   3.008   1.405  0.4444 -3.0734 -0.1865
 4767TIP3   OH235791   1.323   4.993   0.421 -0.2975 -0.5571  0.7184
 4767TIP3    H135792   1.379   4.938   0.477  2.7601  2.1812  0.5230
 4767TIP3    H235793   1.283   5.054   0.482 -1.0880 -0.8855  0.5307
 4768TIP3   OH235794   3.925   3.095  13.835 -0.6775  0.6486  0.5242
 4768TIP3    H135795   3.957   3.171  13.787 -0.3541 -1.0620 -2.1407
 4768TIP3    H235796   3.994   3.076  13.899  0.6934  0.7671 -0.8901
 4769TIP3   OH235797   3.691   0.420  11.962  0.0896  0.4038 -0.1724
 4769TIP3    H135798   3.636   0.394  11.888  0.2228  1.0782 -0.5162
 4769TIP3    H235799   3.737   0.340  11.987  1.1471  0.5010 -1.7657
 4770TIP3   OH235800   5.388   5.491   6.263  0.0896  0.3964  0.2241
 4770TIP3    H135801   5.465   5.444   6.296  1.3429  2.4159  0.2544
 4770TIP3    H235802   5.405   5.502   6.170 -1.6214 -1.8252 -0.3991
 4771TIP3   OH235803   3.765   2.408   0.018  0.5458 -0.0402 -0.7173
 4771TIP3    H135804   3.777   2.373  -0.070  1.5169  2.0197 -1.4333
 4771TIP3    H235805   3.846   2.455   0.036  0.2420 -0.1890  1.1836
 4772TIP3   OH235806   0.002   2.868  14.217  0.0863 -0.3530 -0.4150
 4772TIP3    H135807  -0.047   2.941  14.253  0.4660 -0.4357  0.2823
 4772TIP3    H235808  -0.059   2.825  14.158 -0.0686  0.6492 -0.9884
 4773TIP3   OH235809   6.669   0.791  15.633  0.0891 -0.1854 -0.4092
 4773TIP3    H135810   6.682   0.730  15.706  0.4472 -0.6384 -0.8484
 4773TIP3    H235811   6.659   0.735  15.556  0.6436  0.3144 -0.8490
 4774TIP3   OH235812   1.271   4.669   5.535 -0.0608  0.0343 -0.0578
 4774TIP3    H135813   1.251   4.637   5.623  0.3370 -1.1968 -0.4040
 4774TIP3    H235814   1.360   4.638   5.518 -0.3370 -0.2095 -1.1048
 4775TIP3   OH235815   2.424   6.670   3.753 -0.4209 -0.4403  0.3777
 4775TIP3    H135816   2.477   6.591   3.749 -0.6872 -0.5553 -1.2147
 4775TIP3    H235817   2.333   6.639   3.745 -0.6177 -0.0869  1.1657
 4776TIP3   OH235818   2.609   6.735   4.526 -0.0076  0.1638  0.3261
 4776TIP3    H135819   2.535   6.776   4.571  1.0750 -0.6517  2.9972
 4776TIP3    H235820   2.642   6.670   4.588  3.4606  1.0951 -0.3845
 4777TIP3   OH235821   2.605   2.934  13.684 -0.0990  0.8223  0.1769
 4777TIP3    H135822   2.547   2.870  13.643  0.0235 -0.0732  1.3580
 4777TIP3    H235823   2.556   2.964  13.761 -0.3369  2.4867 -0.5809
 4778TIP3   OH235824   5.103   2.033  16.329 -0.6320 -0.0858 -0.2657
 4778TIP3    H135825   5.050   1.993  16.398 -0.3361  0.5730  0.3506
 4778TIP3    H235826   5.042   2.089  16.281 -0.5015  0.6651  0.4357
 4779TIP3   OH235827   1.297   0.807   2.274  0.2444  0.3929  0.2517
 4779TIP3    H135828   1.360   0.823   2.344  1.1594  1.9363 -0.8799
 4779TIP3    H235829   1.346   0.824   2.194 -2.0861  3.6925 -0.6035
 4780TIP3   OH235830   0.163   2.862  16.544 -0.7485  0.6169  0.5398
 4780TIP3    H135831   0.087   2.838  16.490 -0.3363  0.9892 -0.2135
 4780TIP3    H235832   0.231   2.801  16.517  0.1994  2.3836 -1.1296
 4781TIP3   OH235833   6.028   0.608   2.216  0.4358 -0.8646 -0.1183
 4781TIP3    H135834   5.934   0.626   2.209  0.8435  0.7390 -2.0921
 4781TIP3    H235835   6.034   0.514   2.229 -1.4059 -1.1935 -1.4378
 4782TIP3   OH235836   1.971   0.694  14.131 -0.3944  0.1549 -0.0787
 4782TIP3    H135837   1.999   0.690  14.040 -0.2841  1.1222 -0.0983
 4782TIP3    H235838   2.048   0.669  14.181 -1.1139 -2.6735 -0.3191
 4783TIP3   OH235839   1.665   4.355   5.604 -0.2696 -0.5164  0.1192
 4783TIP3    H135840   1.627   4.424   5.549 -0.0550 -0.8581 -0.4578
 4783TIP3    H235841   1.747   4.333   5.561  0.5797  0.1866  1.3389
 4784TIP3   OH235842   0.103   0.662   6.368  0.2846 -0.1430  0.1108
 4784TIP3    H135843   0.143   0.604   6.432  0.8285  1.1049  0.9311
 4784TIP3    H235844   0.050   0.605   6.313  2.5163 -1.7182 -0.4632
 4785TIP3   OH235845   2.750   2.662   5.949 -0.2033 -0.4254  0.7304
 4785TIP3    H135846   2.765   2.581   5.900  0.9583  0.3205 -0.1886
 4785TIP3    H235847   2.700   2.635   6.025 -0.2785 -1.9356  0.1674
 4786TIP3   OH235848   4.557   2.568  12.343  0.0712  0.1659  0.3969
 4786TIP3    H135849   4.606   2.564  12.425  1.2085  0.0782 -0.2772
 4786TIP3    H235850   4.553   2.662  12.322  1.6514  0.0494 -0.5356
 4787TIP3   OH235851   6.249   4.638   0.719 -0.6682 -0.2315 -0.2999
 4787TIP3    H135852   6.215   4.573   0.782  0.1481  0.6053  1.0330
 4787TIP3    H235853   6.324   4.595   0.679  0.2409  0.0877  1.0231
 4788TIP3   OH235854   3.931   1.393   1.802  0.0363 -0.6314  0.1682
 4788TIP3    H135855   3.864   1.339   1.760 -2.5124  0.2891  2.8529
 4788TIP3    H235856   3.905   1.483   1.782  1.6870 -0.2987 -0.5175
 4789TIP3   OH235857   0.916   4.761  15.013  0.3379 -0.2768  0.1105
 4789TIP3    H135858   0.954   4.678  14.985 -0.0449  0.2343 -2.0056
 4789TIP3    H235859   0.964   4.783  15.093  2.3460 -1.1892 -0.7951
 4790TIP3   OH235860   0.199   1.825   5.959 -0.0282 -0.7086  0.1143
 4790TIP3    H135861   0.190   1.916   5.930 -0.2759 -0.4043  1.1302
 4790TIP3    H235862   0.111   1.789   5.955 -0.0733 -0.6496  0.5247
 4791TIP3   OH235863   0.829   1.278  12.787 -0.4655 -0.0245  0.5919
 4791TIP3    H135864   0.801   1.369  12.780 -0.9857 -0.1773  0.6104
 4791TIP3    H235865   0.747   1.228  12.784 -0.1266 -0.5435 -0.3656
 4792TIP3   OH235866   6.341   2.723   1.775 -0.7345  0.0545 -0.0976
 4792TIP3    H135867   6.354   2.669   1.853 -2.7315 -0.9483 -0.4130
 4792TIP3    H235868   6.356   2.663   1.702 -2.8317 -0.0958 -0.4526
 4793TIP3   OH235869   1.075   1.775   1.751  0.6113 -0.3781 -0.0729
 4793TIP3    H135870   0.984   1.768   1.780  0.1040  2.6432 -0.8491
 4793TIP3    H235871   1.125   1.788   1.832  0.4193 -2.1108  0.3624
 4794TIP3   OH235872   6.032   1.269  12.977  0.4092  0.3239  0.0375
 4794TIP3    H135873   6.112   1.244  12.931  0.2010  0.4794 -0.4149
 4794TIP3    H235874   6.011   1.193  13.031 -0.3520 -0.6060 -1.5093
 4795TIP3   OH235875   6.001   3.559  15.420 -0.2215  0.3144  0.1533
 4795TIP3    H135876   5.974   3.565  15.328  2.2806  0.4903 -0.5931
 4795TIP3    H235877   5.978   3.469  15.446 -2.8884  0.9209  0.0346
 4796TIP3   OH235878   3.629   0.505  15.675  0.0786  0.8921 -0.0118
 4796TIP3    H135879   3.633   0.588  15.722 -1.7539  1.3957 -0.7039
 4796TIP3    H235880   3.665   0.523  15.589  0.7343  0.6877  0.2190
 4797TIP3   OH235881   6.021   6.086  17.230  0.4295  0.6430 -0.7876
 4797TIP3    H135882   6.002   6.148  17.160 -1.8354  0.9003  0.0198
 4797TIP3    H235883   5.935   6.052  17.256  1.3684 -0.5265  0.8855
 4798TIP3   OH235884   5.957   0.191   4.838 -0.4538  0.9886 -0.2953
 4798TIP3    H135885   5.928   0.279   4.862  1.1958  1.4203  0.2296
 4798TIP3    H235886   6.023   0.206   4.770  0.7368  0.2429  0.6834
 4799TIP3   OH235887   3.098   1.413  11.925 -0.3945 -0.0767  0.4918
 4799TIP3    H135888   3.065   1.503  11.925 -1.7115 -0.5497  1.1285
 4799TIP3    H235889   3.092   1.385  12.016  0.9048 -0.5001  0.4603
 4800TIP3   OH235890   5.736   4.031  13.442 -0.5664  0.1513 -0.2856
 4800TIP3    H135891   5.767   4.121  13.443  0.9144 -0.2942 -2.1839
 4800TIP3    H235892   5.692   4.019  13.526  2.0817  1.6764  1.3787
 4801TIP3   OH235893   3.468   2.746  12.520 -0.3279  0.1686  0.1657
 4801TIP3    H135894   3.398   2.803  12.553  0.2302 -0.1222  1.9495
 4801TIP3    H235895   3.518   2.724  12.598  1.8021  0.4143 -1.1164
 4802TIP3   OH235896   2.992   0.361   4.930 -0.0949  0.0832  0.3915
 4802TIP3    H135897   2.915   0.326   4.885 -0.8367  0.1642  1.5918
 4802TIP3    H235898   3.018   0.291   4.990 -0.2423  0.7128  1.1943
 4803TIP3   OH235899   6.602   2.719  14.096  0.0164  0.5291  0.3277
 4803TIP3    H135900   6.599   2.635  14.049  0.7954  0.9184 -0.4270
 4803TIP3    H235901   6.524   2.765  14.067 -0.6341 -0.0940  1.0565
 4804TIP3   OH235902   3.185   3.615   3.877 -0.1008  0.7125  0.2716
 4804TIP3    H135903   3.159   3.523   3.886 -0.7867  0.9231  0.5206
 4804TIP3    H235904   3.174   3.633   3.783  0.3628  0.4449  0.1658
 4805TIP3   OH235905   4.391   0.880  16.966  1.0444  0.4990  0.4937
 4805TIP3    H135906   4.403   0.793  16.928 -0.0172  0.6513 -0.2166
 4805TIP3    H235907   4.431   0.939  16.903  0.0501  0.6773  0.0123
 4806TIP3   OH235908   0.199   1.788  15.416  0.5138 -0.0751 -0.3477
 4806TIP3    H135909   0.283   1.835  15.423 -0.1337  0.8716  1.5581
 4806TIP3    H235910   0.133   1.857  15.417 -0.3145 -0.8306 -1.6531
 4807TIP3   OH235911   3.751   6.140  14.271  0.8513  0.2288 -0.2918
 4807TIP3    H135912   3.784   6.212  14.324  1.5329 -0.1310 -0.2207
 4807TIP3    H235913   3.790   6.154  14.185  2.1466 -0.8524  0.1051
 4808TIP3   OH235914   3.757   0.178   1.387 -0.0283 -0.0271  0.4648
 4808TIP3    H135915   3.712   0.249   1.432  0.0266 -0.6043  1.4516
 4808TIP3    H235916   3.798   0.128   1.458  0.4331 -0.6858 -0.2695
 4809TIP3   OH235917   0.862   2.112   1.951  1.3309 -0.6262  0.4480
 4809TIP3    H135918   0.822   2.050   2.011  0.6885  0.0363  0.7183
 4809TIP3    H235919   0.796   2.181   1.940  2.1463  0.1683  0.4087
 4810TIP3   OH235920   2.514   0.924   4.301 -0.1167 -0.3155 -0.5894
 4810TIP3    H135921   2.491   0.874   4.379  0.2204  1.5633  0.7283
 4810TIP3    H235922   2.609   0.923   4.298 -0.1186 -0.0868 -0.7691
 4811TIP3   OH235923   0.348   6.817   4.120  0.0536 -0.1601  0.1875
 4811TIP3    H135924   0.366   6.723   4.133  0.7484  0.2294  2.3755
 4811TIP3    H235925   0.253   6.824   4.126  0.0514 -0.6403  0.8422
 4812TIP3   OH235926   6.049   0.101   5.094  0.6967  0.1282  0.2898
 4812TIP3    H135927   6.125   0.157   5.104 -1.8101  3.4328  1.5494
 4812TIP3    H235928   6.013   0.123   5.008 -1.2286  1.7241  1.4627
 4813TIP3   OH235929   2.989   4.635  14.178 -0.2735  0.7877  0.1574
 4813TIP3    H135930   3.029   4.648  14.091  0.8475  1.1702  0.7145
 4813TIP3    H235931   2.919   4.572  14.163 -0.2830  1.0769 -1.0862
 4814TIP3   OH235932   0.321   4.631  10.646 -0.1471 -0.3157 -0.6972
 4814TIP3    H135933   0.235   4.667  10.667  0.2668 -0.8372  2.0203
 4814TIP3    H235934   0.306   4.536  10.639 -0.0318 -0.2770 -1.5561
 4815TIP3   OH235935   0.864   0.333   2.845  0.4755 -0.4278 -0.0164
 4815TIP3    H135936   0.818   0.294   2.918  2.2820  0.2921  1.5551
 4815TIP3    H235937   0.872   0.263   2.781  0.9760 -1.7651  1.4799
 4816TIP3   OH235938   3.730   2.732   2.903 -0.0995 -0.0911  0.6754
 4816TIP3    H135939   3.652   2.780   2.876  0.2247 -0.3803 -0.7756
 4816TIP3    H235940   3.778   2.795   2.958 -0.7513  0.4878  0.5918
 4817TIP3   OH235941   0.351   1.081  14.327 -0.4217  0.3252  0.2513
 4817TIP3    H135942   0.406   1.034  14.389 -1.1571 -0.2657  0.4646
 4817TIP3    H235943   0.379   1.051  14.241 -1.2057 -0.8894  0.3979
 4818TIP3   OH235944   0.286   6.108   1.148 -0.2472  0.1984  0.3654
 4818TIP3    H135945   0.312   6.023   1.111 -1.1410  0.4365 -0.8363
 4818TIP3    H235946   0.197   6.122   1.115 -1.1211  0.3635  2.7275
 4819TIP3   OH235947   5.200   0.711  11.504 -0.2106  0.9095  0.1460
 4819TIP3    H135948   5.165   0.718  11.593  0.6252 -1.5910  0.6991
 4819TIP3    H235949   5.293   0.728  11.514 -0.2154  1.2431 -0.3661
 4820TIP3   OH235950   2.819   1.319   5.170  0.3354  0.4320 -0.7385
 4820TIP3    H135951   2.825   1.278   5.083  2.7262 -0.0989 -0.3507
 4820TIP3    H235952   2.854   1.408   5.157  0.4566  0.4364 -0.3855
 4821TIP3   OH235953   3.207   4.831  16.719 -0.4044  0.2351 -0.2197
 4821TIP3    H135954   3.167   4.782  16.647  0.9515 -0.6230 -0.4179
 4821TIP3    H235955   3.293   4.856  16.686 -0.0718  0.5015  0.8285
 4822TIP3   OH235956   2.299   5.642   4.447  0.2874 -0.5703 -0.2495
 4822TIP3    H135957   2.248   5.589   4.509  1.1327 -0.1453  0.8334
 4822TIP3    H235958   2.389   5.636   4.479  0.4979  0.9633 -0.4979
 4823TIP3   OH235959   3.239   0.195  16.532  0.0429 -0.7355  0.5579
 4823TIP3    H135960   3.209   0.200  16.622  1.0992 -0.7138  0.9094
 4823TIP3    H235961   3.164   0.159  16.484 -1.6857  2.2500  0.8675
 4824TIP3   OH235962   2.982   5.795   1.094  0.1722 -0.1761  0.4474
 4824TIP3    H135963   3.021   5.721   1.049  0.3839  0.2780 -0.1337
 4824TIP3    H235964   2.987   5.774   1.187  2.0715  0.0205  0.3953
 4825TIP3   OH235965   3.528   1.891  16.186  0.3061  0.3594 -0.1377
 4825TIP3    H135966   3.579   1.952  16.239 -0.1516  0.8506 -0.2560
 4825TIP3    H235967   3.445   1.881  16.233  0.7874 -1.0311  0.4510
 4826TIP3   OH235968   2.958   1.388  14.352  0.0105 -0.0505  0.1264
 4826TIP3    H135969   3.049   1.394  14.321 -0.1877 -0.3473 -0.5262
 4826TIP3    H235970   2.959   1.432  14.437  0.7408  0.0579  0.0702
 4827TIP3   OH235971   2.130   0.700   3.314 -0.1786  0.0506  0.4952
 4827TIP3    H135972   2.145   0.652   3.395  0.9828 -1.2786 -0.5010
 4827TIP3    H235973   2.085   0.638   3.257  1.3223  0.1280 -0.7957
 4828TIP3   OH235974   5.925   6.753  16.733  0.0935  0.0327  0.1905
 4828TIP3    H135975   5.872   6.773  16.656  0.7115 -0.3845 -0.3436
 4828TIP3    H235976   6.015   6.764  16.703  0.4136 -2.5869  0.1526
 4829TIP3   OH235977   3.053   3.038   1.078  0.2965 -0.4918  0.4194
 4829TIP3    H135978   2.969   3.000   1.102  0.0635 -0.1492  0.1505
 4829TIP3    H235979   3.115   2.966   1.084 -0.2151 -1.0183 -0.4810
 4830TIP3   OH235980   2.450   3.100   5.068 -0.7787 -0.2012  0.5238
 4830TIP3    H135981   2.477   3.020   5.114 -0.5144 -1.6033 -1.9339
 4830TIP3    H235982   2.355   3.103   5.078 -0.8632 -1.1966  0.1038
 4831TIP3   OH235983   5.146   2.134  12.937 -0.0029  0.6084 -0.1242
 4831TIP3    H135984   5.214   2.189  12.975 -1.4923  1.9217  0.6872
 4831TIP3    H235985   5.105   2.091  13.012  0.3061 -0.6394 -0.6516
 4832TIP3   OH235986   2.755   1.992  12.070 -0.9000 -0.3352 -0.5227
 4832TIP3    H135987   2.775   1.920  12.011 -0.7965 -1.4339  0.8263
 4832TIP3    H235988   2.772   2.071  12.019 -0.0357 -1.2620 -1.6831
 4833TIP3   OH235989   4.310   5.138  15.086  0.2016  0.6209  0.0500
 4833TIP3    H135990   4.370   5.088  15.141 -1.3335  0.1445  1.3513
 4833TIP3    H235991   4.224   5.103  15.107 -0.4940  0.8570 -2.2452
 4834TIP3   OH235992   5.033   2.087   3.750 -0.4946  0.5516 -0.4194
 4834TIP3    H135993   5.080   2.040   3.681  0.3435 -1.0235  1.1641
 4834TIP3    H235994   5.101   2.133   3.798 -1.1539  2.1749 -1.0293
 4835TIP3   OH235995   4.161   4.696   1.282 -0.0996 -0.1766 -0.1513
 4835TIP3    H135996   4.148   4.790   1.296  0.3520 -0.1293 -0.0494
 4835TIP3    H235997   4.254   4.687   1.259 -0.3765 -0.4825 -1.1743
 4836TIP3   OH235998   4.426   3.424   4.608  0.0899  0.1000 -0.1866
 4836TIP3    H135999   4.407   3.506   4.655  0.4443 -0.5179  1.0474
 4836TIP3    H236000   4.519   3.408   4.625 -0.2631 -1.1734  0.5452
 4837TIP3   OH236001   5.407   6.437   2.522  0.1973 -0.2340  0.6967
 4837TIP3    H136002   5.320   6.400   2.509  0.6783 -1.8645  2.0381
 4837TIP3    H236003   5.394   6.508   2.585 -0.2975  0.1948  0.1256
 4838TIP3   OH236004   5.848   6.556   0.970  0.4836  0.0519  0.1675
 4838TIP3    H136005   5.940   6.528   0.966  0.0399 -1.3446 -1.0214
 4838TIP3    H236006   5.808   6.514   0.894 -0.8153  1.8764 -0.1746
 4839TIP3   OH236007   1.682   1.664   6.453  0.3332 -0.3543 -0.0429
 4839TIP3    H136008   1.633   1.691   6.376  0.6081 -0.6002 -0.3076
 4839TIP3    H236009   1.774   1.663   6.424  0.3296 -1.5397 -0.0383
 4840TIP3   OH236010   4.404   0.974   4.628  0.2892 -0.6396  0.1499
 4840TIP3    H136011   4.402   0.880   4.610 -3.5987 -0.0942 -3.0530
 4840TIP3    H236012   4.312   1.001   4.624  1.5755  3.8256 -2.3071
 4841TIP3   OH236013   6.293   4.187  16.506 -0.4724  0.6997  0.7213
 4841TIP3    H136014   6.352   4.216  16.437 -0.2686 -0.9035  0.2007
 4841TIP3    H236015   6.346   4.190  16.586  0.5503 -1.3061  0.1674
 4842TIP3   OH236016   4.802   6.494  13.186 -0.6440 -0.6275  0.0590
 4842TIP3    H136017   4.763   6.578  13.208  1.4413  0.6082 -0.7546
 4842TIP3    H236018   4.815   6.450  13.270 -1.1080  0.1574  0.5429
 4843TIP3   OH236019   6.031   0.961   2.450 -0.2693  0.2095  0.5751
 4843TIP3    H136020   5.957   0.907   2.475 -1.2903  1.5821  0.5651
 4843TIP3    H236021   6.017   0.981   2.357 -0.2464  1.0037  0.7327
 4844TIP3   OH236022   5.103   1.343  17.090 -0.1182 -0.4518 -0.0311
 4844TIP3    H136023   5.025   1.355  17.145  0.6995  0.2313  1.0032
 4844TIP3    H236024   5.071   1.294  17.014 -1.8775  1.1718 -0.3838
 4845TIP3   OH236025   4.204   2.047  15.493  0.4783 -0.5519 -0.2524
 4845TIP3    H136026   4.207   1.972  15.552 -1.2811 -1.0432 -0.7568
 4845TIP3    H236027   4.172   2.119  15.547  2.3667 -0.0893  0.2846
 4846TIP3   OH236028   1.666   5.441   3.024  0.0128 -0.2983 -1.1820
 4846TIP3    H136029   1.655   5.536   3.017  1.9080  0.0466  0.3903
 4846TIP3    H236030   1.753   5.424   2.987  0.7897 -1.0877  0.9483
 4847TIP3   OH236031   0.208   5.766   5.708  0.2188 -0.2208  0.3278
 4847TIP3    H136032   0.143   5.729   5.768 -0.0258 -1.0355 -0.4388
 4847TIP3    H236033   0.243   5.691   5.660 -0.3046  0.5087 -1.2444
 4848TIP3   OH236034   2.955   5.149  17.170 -0.0258  0.1326  0.1694
 4848TIP3    H136035   2.911   5.145  17.085  0.3963 -0.0428 -0.0424
 4848TIP3    H236036   2.997   5.235  17.171 -1.2712  0.7384  0.8198
 4849TIP3   OH236037   1.101   4.251  14.927 -0.6256 -0.4741  0.3208
 4849TIP3    H136038   1.168   4.305  14.968  0.3149 -1.1716 -0.2708
 4849TIP3    H236039   1.096   4.172  14.982 -0.4206 -0.7578 -0.0634
 4850TIP3   OH236040   5.516   2.078   4.648  0.1083 -0.1217 -0.5071
 4850TIP3    H136041   5.530   2.068   4.742  2.6076  1.5528 -0.6385
 4850TIP3    H236042   5.564   2.158   4.625 -1.3860  0.1174 -3.0206
 4851TIP3   OH236043   2.724   2.535   4.989  0.1315  0.2210 -0.3099
 4851TIP3    H136044   2.730   2.627   4.963  1.4551 -0.0663 -1.0577
 4851TIP3    H236045   2.813   2.511   5.014 -0.1516 -0.9266 -0.3806
 4852TIP3   OH236046   6.397   2.636  14.928 -0.0989  0.0634 -0.0389
 4852TIP3    H136047   6.465   2.671  14.870 -0.0986 -0.5190 -0.3829
 4852TIP3    H236048   6.345   2.713  14.952 -0.0860  0.3082 -0.7834
 4853TIP3   OH236049   3.289   1.184   5.819 -0.6535 -0.1230  0.2926
 4853TIP3    H136050   3.375   1.204   5.857 -0.1149 -0.1337 -0.8933
 4853TIP3    H236051   3.240   1.267   5.826  0.2921  0.5832 -1.2260
 4854TIP3   OH236052   4.507   5.734  13.020 -0.2504  0.2130 -0.1789
 4854TIP3    H136053   4.528   5.721  13.112 -0.5840  1.5720  0.1052
 4854TIP3    H236054   4.591   5.724  12.975  0.2436  1.2616  0.4720
 4855TIP3   OH236055   2.053   3.936  15.098  0.4043 -0.2553  0.3575
 4855TIP3    H136056   2.047   3.932  15.194  1.0632 -2.3062  0.3424
 4855TIP3    H236057   1.968   3.902  15.068  0.4025 -0.1295  0.2243
 4856TIP3   OH236058   0.505   1.378   2.630  0.0870 -0.3777  0.1120
 4856TIP3    H136059   0.487   1.320   2.556 -1.0924 -0.3205  0.3508
 4856TIP3    H236060   0.467   1.463   2.604 -0.3841 -0.3751  0.8064
 4857TIP3   OH236061   3.450   5.859   1.814  0.1369  0.4117 -0.5078
 4857TIP3    H136062   3.400   5.937   1.838 -0.8020 -0.2173 -0.4298
 4857TIP3    H236063   3.450   5.859   1.718 -2.0111 -0.8709 -0.5135
 4858TIP3   OH236064   3.993   4.120   2.957  0.2588 -0.2102 -0.1095
 4858TIP3    H136065   4.051   4.070   2.899 -2.0400  0.1073 -2.7758
 4858TIP3    H236066   4.034   4.206   2.962  1.2250 -0.6567 -0.0778
 4859TIP3   OH236067   0.752   4.445   5.598  0.0477  0.2720  0.1246
 4859TIP3    H136068   0.747   4.396   5.680  0.3279 -0.5635 -0.3528
 4859TIP3    H236069   0.840   4.482   5.597 -0.4245  1.4216  0.8443
 4860TIP3   OH236070   1.184   2.037  13.133  0.3830  0.6473  0.5243
 4860TIP3    H136071   1.090   2.020  13.140  0.3808  0.5240  0.1812
 4860TIP3    H236072   1.190   2.122  13.090  0.4754 -0.9715 -2.8207
 4861TIP3   OH236073   3.075   6.329   5.083  0.2421  0.2296 -0.2728
 4861TIP3    H136074   3.084   6.236   5.105 -1.9255  0.1221  0.2989
 4861TIP3    H236075   3.046   6.370   5.164 -2.6197  0.7151 -1.4634
 4862TIP3   OH236076   4.886   2.622   0.959  0.0386  0.0249 -0.1730
 4862TIP3    H136077   4.958   2.656   1.013  0.8621  1.1005 -1.9158
 4862TIP3    H236078   4.924   2.611   0.872 -1.7020 -0.1729 -0.9346
 4863TIP3   OH236079   5.658   2.321  15.882  0.5653  0.3555 -0.2615
 4863TIP3    H136080   5.598   2.366  15.822 -0.4326 -1.5899 -0.7852
 4863TIP3    H236081   5.638   2.228  15.870  1.8220 -0.1797  1.5580
 4864TIP3   OH236082   1.710   2.413   2.259 -0.5645  0.5447  0.1902
 4864TIP3    H136083   1.659   2.408   2.178  1.1852  0.4440 -0.9389
 4864TIP3    H236084   1.721   2.322   2.287 -1.5783  0.6112  0.8050
 4865TIP3   OH236085   4.034   3.919  11.139 -0.7019  0.3529 -0.3705
 4865TIP3    H136086   4.104   3.983  11.153  1.4216 -2.2311  1.2492
 4865TIP3    H236087   3.960   3.971  11.107  1.9132  3.1734 -2.0714
 4866TIP3   OH236088   6.184   5.177  13.242  0.6060  0.5241 -0.3749
 4866TIP3    H136089   6.107   5.123  13.222  1.6681 -1.2056  0.0553
 4866TIP3    H236090   6.211   5.213  13.158  0.5358 -0.5398 -0.8576
 4867TIP3   OH236091   4.362   4.543  14.502 -0.0974 -0.6964  0.3487
 4867TIP3    H136092   4.392   4.614  14.446  2.7538 -1.7763  0.4083
 4867TIP3    H236093   4.423   4.543  14.576 -0.5542 -2.6915  0.7576
 4868TIP3   OH236094   6.783   1.430  12.146  0.6469 -0.0978  0.1039
 4868TIP3    H136095   6.693   1.458  12.127  0.3332 -0.7430  0.6467
 4868TIP3    H236096   6.807   1.481  12.223 -0.0356 -1.5359  1.2803
 4869TIP3   OH236097   5.262   0.020  12.952  0.4205  0.4552 -0.3098
 4869TIP3    H136098   5.343   0.047  12.994  0.9640 -1.4377 -0.1110
 4869TIP3    H236099   5.194   0.069  12.998  1.2223  0.1332  1.2676
 4870TIP3   OH236100   1.622   5.155  14.896 -0.2387  0.2787 -0.3271
 4870TIP3    H136101   1.540   5.106  14.903  0.9122 -1.7516 -0.6998
 4870TIP3    H236102   1.648   5.171  14.986 -0.5914  0.1775 -0.2047
 4871TIP3   OH236103   3.401   5.813  13.141 -0.8450 -0.0730 -0.3894
 4871TIP3    H136104   3.474   5.875  13.135  0.6456 -1.8521 -1.1692
 4871TIP3    H236105   3.333   5.860  13.189  0.9977  1.4580  0.7859
 4872TIP3   OH236106   4.855   4.151  14.858 -0.0223 -0.0153 -0.2165
 4872TIP3    H136107   4.863   4.056  14.865 -0.9664 -0.3049 -2.7295
 4872TIP3    H236108   4.919   4.185  14.921  1.4020 -2.2943 -0.3793
 4873TIP3   OH236109   0.415   4.998  15.446 -0.8442 -0.1218  0.1307
 4873TIP3    H136110   0.388   4.921  15.395 -0.1217 -0.4375  0.2110
 4873TIP3    H236111   0.400   4.972  15.537  0.1992 -0.4934  0.2047
 4874TIP3   OH236112   4.365   6.684  15.138 -0.0586  0.3130  0.6121
 4874TIP3    H136113   4.432   6.658  15.074  0.9081 -1.4667  2.2717
 4874TIP3    H236114   4.321   6.602  15.161 -0.6860  0.9923  1.8979
 4875TIP3   OH236115   6.596   6.657   6.023  0.2094  0.3607 -0.2387
 4875TIP3    H136116   6.615   6.619   5.937  0.9579  0.8738 -0.2992
 4875TIP3    H236117   6.551   6.739   6.003 -0.3704  0.0800 -0.1200
 4876TIP3   OH236118   5.930   6.416  13.466 -0.4403 -0.2733 -0.0501
 4876TIP3    H136119   5.844   6.457  13.474  0.3040  1.5414 -0.9451
 4876TIP3    H236120   5.976   6.442  13.546 -0.5380 -0.7898  0.1752
 4877TIP3   OH236121   1.101   2.141   0.313  0.2208  0.8181  0.5739
 4877TIP3    H136122   1.099   2.232   0.340 -2.0851  1.4562 -1.6031
 4877TIP3    H236123   1.170   2.138   0.246 -1.7134  1.6253 -1.4938
 4878TIP3   OH236124   0.919   1.535  11.665  0.5882  0.2226  0.1837
 4878TIP3    H136125   0.861   1.532  11.589 -0.1822  0.8364  0.7415
 4878TIP3    H236126   0.875   1.480  11.731  0.9003  0.2632  0.4291
 4879TIP3   OH236127   5.561   2.783  11.654 -0.4540 -0.0332 -0.7476
 4879TIP3    H136128   5.494   2.715  11.646 -0.3658 -0.1180 -0.7754
 4879TIP3    H236129   5.584   2.804  11.563  0.3587 -0.8051 -0.7298
 4880TIP3   OH236130   4.990   6.081  12.354 -0.7583 -0.1968 -0.1372
 4880TIP3    H136131   4.968   6.132  12.432  0.2710 -0.0710  0.0815
 4880TIP3    H236132   5.034   6.142  12.296  0.7895 -0.8966  0.2724
 4881TIP3   OH236133   2.844   5.879  12.400 -0.2114  0.8447  0.2627
 4881TIP3    H136134   2.901   5.941  12.355 -1.4065  2.1344  0.4867
 4881TIP3    H236135   2.755   5.903  12.374 -0.8652  0.9781  2.4772
 4882TIP3   OH236136   6.565   0.796  12.959 -0.2842 -0.0062 -0.1541
 4882TIP3    H136137   6.623   0.720  12.962 -0.5159 -0.1678  0.4178
 4882TIP3    H236138   6.478   0.759  12.946 -0.1271  0.3079 -2.1633
 4883TIP3   OH236139   5.879   5.988   2.123  0.1762  0.2745 -0.2060
 4883TIP3    H136140   5.913   6.017   2.208  0.3644 -1.3521  0.2969
 4883TIP3    H236141   5.956   5.958   2.075 -0.2617 -1.4860  0.1525
 4884TIP3   OH236142   4.804   0.017  12.454  0.3877  0.3158  1.0388
 4884TIP3    H136143   4.714   0.044  12.433  0.8169  0.3261 -0.9565
 4884TIP3    H236144   4.795  -0.041  12.529 -1.4313 -0.6676  0.1021
 4885TIP3   OH236145   3.571   6.772  14.603  0.1250  0.1135 -0.4699
 4885TIP3    H136146   3.637   6.812  14.660  0.7036 -0.6596 -0.5940
 4885TIP3    H236147   3.526   6.846  14.563  0.0609  0.6589  0.6007
 4886TIP3   OH236148   5.811   1.424  10.812  0.1367 -0.3509  0.4315
 4886TIP3    H136149   5.718   1.433  10.791 -0.0944  0.4590  1.6854
 4886TIP3    H236150   5.849   1.509  10.788  0.2031 -0.0595  1.4978
 4887TIP3   OH236151   4.901   5.368  13.060 -0.0315 -0.0703  0.1240
 4887TIP3    H136152   4.821   5.375  13.112 -0.2510 -0.5954 -0.1442
 4887TIP3    H236153   4.972   5.379  13.123 -0.3118  0.5178  0.3444
 4888TIP3   OH236154   2.389   2.013   4.262  0.1835  0.2398  0.1107
 4888TIP3    H136155   2.347   2.025   4.176 -0.0604 -0.4932  0.1235
 4888TIP3    H236156   2.425   2.099   4.283  1.4976  0.0767 -1.3774
 4889TIP3   OH236157   1.585   5.160   4.753 -0.0866  0.7594  0.3168
 4889TIP3    H136158   1.531   5.133   4.827 -1.8018  0.8340 -0.8859
 4889TIP3    H236159   1.522   5.182   4.684  1.4929  0.3006 -1.2977
 4890TIP3   OH236160   2.827   0.772  13.828 -0.0662 -0.0427  0.2834
 4890TIP3    H136161   2.778   0.833  13.774 -0.2191  0.4592  1.0005
 4890TIP3    H236162   2.919   0.796  13.814 -0.0260 -0.8052 -0.8386
 4891TIP3   OH236163   4.265   0.094  14.381 -0.0254  0.4109  0.3226
 4891TIP3    H136164   4.317   0.027  14.426  1.4197  1.0576 -0.3280
 4891TIP3    H236165   4.190   0.046  14.346  0.3757 -0.6524  0.8796
 4892TIP3   OH236166   5.369   0.151   4.474 -0.6895  0.7594 -0.1527
 4892TIP3    H136167   5.372   0.246   4.478 -2.0339  0.8903 -2.0074
 4892TIP3    H236168   5.410   0.123   4.556  0.3668  2.9029  0.0876
 4893TIP3   OH236169   3.924   3.533   4.136  0.5835  0.1952  0.0765
 4893TIP3    H136170   3.849   3.561   4.189  1.6236  0.1197  1.6270
 4893TIP3    H236171   4.000   3.553   4.190  1.6362 -0.5679 -1.0976
 4894TIP3   OH236172   2.922   4.028   3.227 -0.2082  0.7089  0.5957
 4894TIP3    H136173   2.866   4.037   3.304 -0.8003 -1.9446  0.5071
 4894TIP3    H236174   2.886   4.090   3.164 -2.3393 -0.1628  0.9357
 4895TIP3   OH236175   6.313   2.570  14.348 -0.1340  0.3915 -0.5308
 4895TIP3    H136176   6.287   2.655  14.314  2.0535  0.6847 -1.5677
 4895TIP3    H236177   6.280   2.507  14.283 -2.0961  0.3914  0.4387
 4896TIP3   OH236178   1.077   0.422   1.436  0.3342 -0.2471  0.7683
 4896TIP3    H136179   1.038   0.470   1.509  1.1675  1.0431  0.3761
 4896TIP3    H236180   1.047   0.470   1.358  1.1329 -0.3956  0.3712
 4897TIP3   OH236181   0.999   2.700   5.683 -0.5085  1.2224 -0.2002
 4897TIP3    H136182   0.967   2.743   5.603 -0.6861  0.0258 -0.7780
 4897TIP3    H236183   1.008   2.772   5.746 -2.5677  1.8619 -0.5810
 4898TIP3   OH236184   4.520   4.212  15.537 -0.0673  0.0558  0.2794
 4898TIP3    H136185   4.519   4.299  15.575  0.3558  0.6909 -1.1243
 4898TIP3    H236186   4.458   4.216  15.465 -0.4069 -0.9443  0.5154
 4899TIP3   OH236187   1.813   6.358  12.844  0.4818 -0.1152  0.5546
 4899TIP3    H136188   1.859   6.425  12.894  0.4181  0.6527 -0.4146
 4899TIP3    H236189   1.831   6.277  12.892 -0.4761  0.7500  2.4525
 4900TIP3   OH236190   0.496   3.716  13.504  0.6627 -0.1151 -0.2088
 4900TIP3    H136191   0.485   3.635  13.555 -0.2323  0.2470  0.1826
 4900TIP3    H236192   0.435   3.707  13.431  0.9655 -0.0349 -0.4733
 4901TIP3   OH236193   1.561   1.088  15.230  0.0727 -0.5517 -0.7479
 4901TIP3    H136194   1.564   1.133  15.146  2.1291  0.5803 -0.1182
 4901TIP3    H236195   1.475   1.109  15.266  0.1088  0.9416 -1.4990
 4902TIP3   OH236196   5.401   3.574   4.701 -0.1077 -0.2866 -0.2148
 4902TIP3    H136197   5.429   3.616   4.619  0.1237  0.3019  0.1651
 4902TIP3    H236198   5.351   3.641   4.747 -2.1595 -1.3219 -0.8673
 4903TIP3   OH236199   4.563   1.992  14.636  0.5894  0.2653  0.0721
 4903TIP3    H136200   4.520   1.909  14.656 -0.1459  0.2256 -1.6462
 4903TIP3    H236201   4.565   1.997  14.541  3.4281  0.7963  0.1206
 4904TIP3   OH236202   3.824   1.720  13.276  0.1546 -0.2779  0.2626
 4904TIP3    H136203   3.912   1.735  13.309 -0.0018  0.4895  0.3618
 4904TIP3    H236204   3.836   1.700  13.183  0.3643  0.8280  0.0453
 4905TIP3   OH236205   2.514   4.462  15.219 -0.4296  0.3308 -0.0678
 4905TIP3    H136206   2.431   4.511  15.218 -1.0696 -0.7646 -1.5344
 4905TIP3    H236207   2.544   4.462  15.129  0.6449 -0.1930  0.2787
 4906TIP3   OH236208   6.438   5.461  14.025 -0.7632 -0.1227 -0.3583
 4906TIP3    H136209   6.406   5.532  13.969 -0.5026 -0.5589 -1.0666
 4906TIP3    H236210   6.487   5.505  14.094  0.7768  0.2985 -1.6970
 4907TIP3   OH236211   3.476   6.205  14.372 -0.2971 -0.0400 -0.4107
 4907TIP3    H136212   3.556   6.234  14.328 -0.3210 -0.3833 -0.6823
 4907TIP3    H236213   3.485   6.110  14.378  0.1115  0.0816  1.1148
 4908TIP3   OH236214   6.810   4.348  13.419 -0.2767 -0.0707  0.0043
 4908TIP3    H136215   6.789   4.428  13.466 -1.2145 -0.2871 -0.0394
 4908TIP3    H236216   6.725   4.309  13.398  0.1166  0.2042 -2.1851
 4909TIP3   OH236217   2.918   1.987  12.757 -0.7134 -0.0241  0.1216
 4909TIP3    H136218   2.848   2.017  12.815 -1.1419  0.0918 -0.4427
 4909TIP3    H236219   2.876   1.920  12.703 -0.3530 -0.0433 -0.1355
 4910TIP3   OH236220   2.910   6.815  14.303 -0.1724  0.3205  0.4825
 4910TIP3    H136221   2.936   6.879  14.237 -0.2639 -0.6192 -0.4771
 4910TIP3    H236222   2.887   6.868  14.379 -1.1980  1.4989 -0.6109
 4911TIP3   OH236223   5.571   4.119   1.646 -0.0825  1.3428 -0.5295
 4911TIP3    H136224   5.608   4.177   1.580  2.2262  0.9856  0.3996
 4911TIP3    H236225   5.613   4.034   1.631  0.1908  1.1587  1.1479
 4912TIP3   OH236226   2.616   1.270   5.652  0.1368  0.1613 -0.0305
 4912TIP3    H136227   2.606   1.185   5.610 -1.6278  1.6441 -2.8530
 4912TIP3    H236228   2.576   1.259   5.738 -1.3257 -1.5029 -0.8859
 4913TIP3   OH236229   6.437   0.746  14.228 -0.4899  0.0574  0.8046
 4913TIP3    H136230   6.347   0.736  14.198  0.0981 -0.1278 -0.9478
 4913TIP3    H236231   6.429   0.775  14.319 -2.3074 -0.2848  0.7701
 4914TIP3   OH236232   3.085   5.615  16.317  0.1157  0.0549  0.0348
 4914TIP3    H136233   3.047   5.684  16.263 -0.5394 -1.2069 -1.1719
 4914TIP3    H236234   3.010   5.570  16.355  0.5004 -0.5106  0.1394
 4915TIP3   OH236235   1.657   0.663  11.303 -0.1172  0.3608  0.1314
 4915TIP3    H136236   1.697   0.614  11.374 -1.3810  1.3854  1.5962
 4915TIP3    H236237   1.669   0.755  11.327  0.3482  0.7512 -1.5022
 4916TIP3   OH236238   5.189   3.081   3.064 -0.2519 -0.1171  0.0388
 4916TIP3    H136239   5.135   3.157   3.087 -0.1113  0.2855 -0.9393
 4916TIP3    H236240   5.274   3.118   3.040 -0.8559 -0.3618 -2.6554
 4917TIP3   OH236241   2.908   0.593  12.469  0.8012  0.6224  0.1559
 4917TIP3    H136242   2.850   0.667  12.487  1.8210  1.1078  1.5821
 4917TIP3    H236243   2.884   0.528  12.535 -0.5580 -0.6030 -1.5257
 4918TIP3   OH236244   5.080   1.249   5.917  0.0370  0.0516 -0.5515
 4918TIP3    H136245   5.052   1.340   5.906 -0.2271 -0.0430 -0.6627
 4918TIP3    H236246   5.108   1.244   6.009  0.4287  0.3449 -0.6517
 4919TIP3   OH236247   0.702   3.258  15.306  0.0228 -0.1988 -0.2897
 4919TIP3    H136248   0.632   3.192  15.302 -0.9470  0.8063 -0.2600
 4919TIP3    H236249   0.719   3.280  15.214 -1.1060  0.9963 -0.2285
 4920TIP3   OH236250   4.232   6.348   5.446  0.1448 -0.1820  0.2303
 4920TIP3    H136251   4.160   6.383   5.498  2.1450  1.7770  1.7644
 4920TIP3    H236252   4.226   6.393   5.362 -0.3384  0.0638  0.3955
 4921TIP3   OH236253   2.220   4.199  16.585 -0.5850 -0.1508  0.3445
 4921TIP3    H136254   2.273   4.121  16.567 -0.0720  0.2662 -0.0003
 4921TIP3    H236255   2.280   4.272  16.569 -1.1743  0.3203  0.2792
 4922TIP3   OH236256   5.638   0.386   4.572  0.5611  0.2623 -0.1103
 4922TIP3    H136257   5.687   0.317   4.617 -0.9630 -0.5332  0.3763
 4922TIP3    H236258   5.703   0.430   4.518  1.7834 -0.8482  0.4224
 4923TIP3   OH236259   0.131   6.464   1.634  0.1354 -0.6431 -0.4286
 4923TIP3    H136260   0.213   6.468   1.585 -0.9082  1.0695 -2.0687
 4923TIP3    H236261   0.148   6.515   1.713  0.6192 -0.2310 -0.7979
 4924TIP3   OH236262   3.057   1.087  14.625  0.3757 -0.4835 -0.0595
 4924TIP3    H136263   3.022   1.080  14.714 -0.6526  1.2279 -0.3140
 4924TIP3    H236264   3.075   0.996  14.599 -2.2778 -1.2666  0.7147
 4925TIP3   OH236265   5.103   3.317   0.873  0.2054  0.0271  0.2944
 4925TIP3    H136266   5.112   3.241   0.815 -0.0604 -0.9842  1.5437
 4925TIP3    H236267   5.022   3.360   0.844  1.7023  1.3261 -2.0884
 4926TIP3   OH236268   4.454   2.711   4.091 -0.0095 -0.4168  0.0361
 4926TIP3    H136269   4.528   2.730   4.149  1.1280 -1.9363 -0.8769
 4926TIP3    H236270   4.483   2.637   4.038 -1.2666  0.5062 -2.0341
 4927TIP3   OH236271   6.270   5.889   4.952 -0.1401 -0.3660  0.4367
 4927TIP3    H136272   6.354   5.934   4.955  0.9640 -2.2742 -1.0481
 4927TIP3    H236273   6.273   5.828   5.026 -0.8800  0.6223  1.3109
 4928TIP3   OH236274   2.815   6.359  15.451 -0.7405  0.0307  0.2097
 4928TIP3    H136275   2.863   6.316  15.381  0.6882  1.9544 -0.0144
 4928TIP3    H236276   2.816   6.295  15.523  0.0008 -0.9217 -0.6309
 4929TIP3   OH236277   4.915   0.673  15.331  0.2166  0.3959  0.4947
 4929TIP3    H136278   5.004   0.706  15.333 -0.0332  1.0579  0.9894
 4929TIP3    H236279   4.922   0.585  15.295  0.7153  1.5923 -2.4895
 4930TIP3   OH236280   4.635   1.773  11.016 -0.4553 -0.1732  0.0868
 4930TIP3    H136281   4.625   1.853  10.964  1.6296  1.2335  1.7722
 4930TIP3    H236282   4.582   1.788  11.094 -0.2192 -0.5309  0.3209
 4931TIP3   OH236283   4.791   6.010   0.385  0.2412 -0.5345  0.5879
 4931TIP3    H136284   4.802   5.948   0.457 -1.0068 -1.5745 -0.0897
 4931TIP3    H236285   4.756   5.957   0.313 -0.0799  0.8009 -0.2528
 4932TIP3   OH236286   5.472   6.811   4.257  0.5679 -0.0884 -0.4387
 4932TIP3    H136287   5.434   6.855   4.333  0.8926 -1.5169  0.5608
 4932TIP3    H236288   5.515   6.734   4.293 -0.0025 -1.2393 -2.1842
 4933TIP3   OH236289   6.115   3.818  16.193  0.6156 -0.3415  0.2057
 4933TIP3    H136290   6.197   3.867  16.188  1.0511 -1.1525 -0.7547
 4933TIP3    H236291   6.139   3.736  16.235  0.1085 -0.1985  0.7740
 4934TIP3   OH236292   3.688   3.635   4.313 -0.1486 -0.3350  0.0169
 4934TIP3    H136293   3.701   3.673   4.400  0.4183  0.1530 -0.2767
 4934TIP3    H236294   3.637   3.556   4.329 -0.2965 -0.0952  0.7653
 4935TIP3   OH236295   2.416   6.694  15.526 -0.6431 -0.2975 -0.3283
 4935TIP3    H136296   2.448   6.604  15.515  0.4702 -0.2071  1.8717
 4935TIP3    H236297   2.476   6.747  15.473  0.4282 -0.5719  0.5771
 4936TIP3   OH236298   1.846   6.459   5.208 -0.1212 -0.0048  0.0180
 4936TIP3    H136299   1.941   6.449   5.208 -0.1387 -0.1724  0.3331
 4936TIP3    H236300   1.826   6.494   5.122  0.3455  1.1641  0.3768
 4937TIP3   OH236301   0.788   5.674  12.977  0.0587 -0.6164 -0.1266
 4937TIP3    H136302   0.735   5.719  13.043 -1.9533 -1.7201 -0.9364
 4937TIP3    H236303   0.821   5.596  13.021 -0.9824 -1.1641 -0.2945
 4938TIP3   OH236304   1.191   4.756  14.190  0.2901 -0.1354 -0.1594
 4938TIP3    H136305   1.155   4.732  14.105 -0.3952  0.8455 -0.1418
 4938TIP3    H236306   1.176   4.850  14.198  0.0270 -0.2793  1.2020
 4939TIP3   OH236307   4.779   5.001  13.074 -0.6925 -0.6711  0.7737
 4939TIP3    H136308   4.807   5.023  12.985 -1.6880 -0.1331  0.5900
 4939TIP3    H236309   4.860   4.973  13.118 -0.0989 -0.4040 -0.1313
 4940TIP3   OH236310   6.614   0.844  14.851  0.0320  0.4159  0.0018
 4940TIP3    H136311   6.617   0.887  14.765  0.1201 -1.2672 -0.8692
 4940TIP3    H236312   6.691   0.877  14.896  0.2456  0.9796 -0.7582
 4941TIP3   OH236313   0.905   2.043  13.150 -0.1237 -0.1549 -0.3951
 4941TIP3    H136314   0.843   2.115  13.143 -0.0018 -0.1383 -1.3011
 4941TIP3    H236315   0.851   1.964  13.148 -0.3707 -0.0691  1.9022
 4942TIP3   OH236316   4.716   3.415   0.710 -0.9863  0.0305 -0.2306
 4942TIP3    H136317   4.715   3.344   0.774 -0.2171 -0.4677 -0.7669
 4942TIP3    H236318   4.786   3.473   0.740 -0.5642 -0.2501 -0.6687
 4943TIP3   OH236319   4.069   2.229   5.002  0.1186 -0.6277 -0.1613
 4943TIP3    H136320   4.105   2.306   4.958  0.7754 -0.5973  0.4264
 4943TIP3    H236321   3.976   2.230   4.979  0.2952 -0.1582 -0.8839
 4944TIP3   OH236322   1.210   2.059  14.539  0.3681 -0.5998 -0.2633
 4944TIP3    H136323   1.158   2.139  14.549  1.5983  0.4828 -2.3083
 4944TIP3    H236324   1.158   1.992  14.584  0.0609  1.6057  2.8544
 4945TIP3   OH236325   0.651   3.107  13.898  0.2879 -0.8463  0.5838
 4945TIP3    H136326   0.628   3.059  13.819 -1.4534  0.6406  0.1631
 4945TIP3    H236327   0.628   3.047  13.970 -0.5832 -1.1799  0.0348
 4946TIP3   OH236328   2.558   1.339   1.872 -0.1307  0.3380 -0.3508
 4946TIP3    H136329   2.492   1.305   1.932  0.2777 -1.4862 -0.8999
 4946TIP3    H236330   2.513   1.348   1.788  0.1854 -0.5150 -0.6237
 4947TIP3   OH236331   6.599   2.321   3.035  0.3313 -0.0133 -0.3790
 4947TIP3    H136332   6.667   2.270   3.079 -0.0208 -0.0871  0.0833
 4947TIP3    H236333   6.626   2.322   2.943 -0.7235 -2.8122 -0.7824
 4948TIP3   OH236334   1.022   1.160  12.025 -0.1952  0.4462 -0.3724
 4948TIP3    H136335   0.936   1.135  12.058 -0.6825  0.9820 -1.2101
 4948TIP3    H236336   1.076   1.169  12.103 -0.6564 -0.7674  0.1091
 4949TIP3   OH236337   4.119   5.537  12.965  0.2666 -0.0709  0.4903
 4949TIP3    H136338   4.062   5.475  12.920 -0.3507 -0.1611  1.3921
 4949TIP3    H236339   4.175   5.483  13.021  0.3064  0.1246  0.6401
 4950TIP3   OH236340   5.491   2.484  11.591  0.3493  0.5685 -0.4661
 4950TIP3    H136341   5.525   2.410  11.541  0.1775  0.5795 -0.5981
 4950TIP3    H236342   5.418   2.517  11.539  1.2409  1.6457 -1.0836
 4951TIP3   OH236343   3.708   2.414  16.905 -0.4009  0.0938  0.4249
 4951TIP3    H136344   3.705   2.322  16.929 -1.7188  0.0299  0.0804
 4951TIP3    H236345   3.684   2.415  16.812 -0.0070  0.7454  0.3252
 4952TIP3   OH236346   5.121   0.964  12.272  0.2641 -0.7765  0.1175
 4952TIP3    H136347   5.186   1.016  12.225  0.4895  0.3335  1.6295
 4952TIP3    H236348   5.171   0.897  12.318  0.0863 -1.5431 -0.7761
 4953TIP3   OH236349   1.287   0.573  12.751  0.2909 -0.2366 -0.2594
 4953TIP3    H136350   1.253   0.598  12.665 -2.8709  1.1841  1.3497
 4953TIP3    H236351   1.262   0.481  12.761  1.5766 -0.7164 -1.2374
 4954TIP3   OH236352   4.801   4.508  13.552  0.1073 -0.3665  0.4148
 4954TIP3    H136353   4.809   4.533  13.460 -0.0038 -1.0570  0.2091
 4954TIP3    H236354   4.713   4.471  13.559  0.3964 -1.0297  0.6162
 4955TIP3   OH236355   0.318   1.616   3.735 -0.0938  0.3155  0.0471
 4955TIP3    H136356   0.277   1.665   3.665 -0.0901 -2.7387 -2.1989
 4955TIP3    H236357   0.411   1.637   3.728 -0.1582  0.3961 -0.5265
 4956TIP3   OH236358   0.020   1.909  14.508 -0.4678  0.5984 -0.1646
 4956TIP3    H136359  -0.071   1.927  14.532 -0.9778 -2.3305  0.2125
 4956TIP3    H236360   0.016   1.837  14.446  1.5930  0.5131 -0.2482
 4957TIP3   OH236361   6.510   6.025  14.766 -0.6552  0.0645  0.1888
 4957TIP3    H136362   6.487   6.088  14.698 -0.6330 -0.8972 -0.7242
 4957TIP3    H236363   6.454   5.949  14.749 -0.9180 -0.0530  1.4739
 4958TIP3   OH236364   6.523   2.834   2.281  0.2891 -0.0169 -0.1935
 4958TIP3    H136365   6.446   2.844   2.336  0.0699 -1.1814 -0.2841
 4958TIP3    H236366   6.504   2.886   2.203  0.3906  1.2231  0.5968
 4959TIP3   OH236367   5.267   5.441  11.541 -0.1095 -0.4650 -0.3353
 4959TIP3    H136368   5.223   5.431  11.456 -0.5510 -3.4794  0.1897
 4959TIP3    H236369   5.205   5.404  11.604  0.7400  0.6199  1.1670
 4960TIP3   OH236370   5.734   1.900   3.045  0.5449 -0.1974  0.2104
 4960TIP3    H136371   5.815   1.877   3.090 -0.1677  0.0251  1.6338
 4960TIP3    H236372   5.706   1.818   3.003  1.0801 -0.4664  0.3703
 4961TIP3   OH236373   0.553   3.344  13.080 -0.3576 -0.1394 -0.3577
 4961TIP3    H136374   0.594   3.353  13.166 -1.3670  0.4199  0.0696
 4961TIP3    H236375   0.604   3.276  13.036  2.0317  1.6323 -0.4364
 4962TIP3   OH236376   2.350   1.259  14.511  0.0584  0.4217  0.2437
 4962TIP3    H136377   2.427   1.220  14.552  0.3357  0.8742  0.1483
 4962TIP3    H236378   2.337   1.341  14.557  0.4517  0.9996 -0.6627
 4963TIP3   OH236379   4.979   4.954  13.874 -0.0967  0.3505  0.4431
 4963TIP3    H136380   4.927   4.945  13.794  0.7750 -0.3472 -0.0676
 4963TIP3    H236381   4.940   4.892  13.935 -1.0133  1.1725  0.6963
 4964TIP3   OH236382   6.770   4.142   0.880 -0.0525 -0.0002  0.8109
 4964TIP3    H136383   6.793   4.196   0.956  1.7882 -0.3506  0.5268
 4964TIP3    H236384   6.848   4.143   0.825 -1.7699  1.2188 -1.6849
 4965TIP3   OH236385   0.092   3.844   0.061 -0.2869 -0.4058 -0.0001
 4965TIP3    H136386   0.049   3.848   0.146  0.2646 -0.1577  0.2757
 4965TIP3    H236387   0.057   3.765   0.019 -0.3643 -0.6744  0.5657
 4966TIP3   OH236388   6.505   3.029   2.091 -0.0540  0.0412 -0.7878
 4966TIP3    H136389   6.426   3.056   2.138  0.7625 -0.1834  0.7582
 4966TIP3    H236390   6.566   3.102   2.103  0.6747 -0.6456 -0.2198
 4967TIP3   OH236391   1.430   6.733   3.580 -0.0443  0.8794  0.2479
 4967TIP3    H136392   1.447   6.778   3.498  0.4386 -0.1861 -0.2499
 4967TIP3    H236393   1.473   6.648   3.570 -0.2926  0.5997  1.4579
 4968TIP3   OH236394   4.349   6.098   1.246 -0.5915 -0.2157  0.8324
 4968TIP3    H136395   4.296   6.177   1.240 -0.6135 -0.3408 -0.7531
 4968TIP3    H236396   4.422   6.123   1.303 -0.2523  1.1394 -0.1688
 4969TIP3   OH236397   5.800   0.107  15.064  0.3505 -0.0172  0.0998
 4969TIP3    H136398   5.862   0.094  14.993  0.8774 -1.0882  0.7348
 4969TIP3    H236399   5.734   0.039  15.051 -0.3901  0.7646 -0.2497
 4970TIP3   OH236400   4.350   0.092  11.647  0.0608 -0.2304 -0.2961
 4970TIP3    H136401   4.365   0.184  11.666  0.2492 -0.3925  0.3571
 4970TIP3    H236402   4.363   0.084  11.553  1.4084  0.1387 -0.1471
 4971TIP3   OH236403   2.368   0.956  14.159  0.4047  0.5091 -0.4846
 4971TIP3    H136404   2.331   1.029  14.109  0.1516  0.6778 -0.0509
 4971TIP3    H236405   2.353   0.879  14.103  0.1491  0.7017 -0.6820
 4972TIP3   OH236406   0.663   1.850  15.259  0.2246  0.0029 -0.1587
 4972TIP3    H136407   0.754   1.880  15.264  0.5871 -1.0513 -0.4159
 4972TIP3    H236408   0.643   1.849  15.166 -0.3968  1.2487 -0.0459
 4973TIP3   OH236409   1.300   5.726  17.089 -0.3866 -0.1360 -0.6002
 4973TIP3    H136410   1.278   5.638  17.061  1.5008 -1.2057  1.1228
 4973TIP3    H236411   1.394   5.734  17.072 -0.4011  1.2738 -0.0841
 4974TIP3   OH236412   4.185   1.064   0.516 -0.3147 -0.2317  0.2537
 4974TIP3    H136413   4.260   1.032   0.567  0.7072  0.9575 -0.4707
 4974TIP3    H236414   4.110   1.049   0.573  0.5894 -0.5268  1.4099
 4975TIP3   OH236415   2.700   1.242  11.622 -0.2025  0.4304 -0.5536
 4975TIP3    H136416   2.689   1.147  11.624 -1.6708  0.5613 -2.0163
 4975TIP3    H236417   2.753   1.258  11.544  1.5436  0.6879  0.6561
 4976TIP3   OH236418   5.058   3.628  16.596  0.4637  0.5532  1.1843
 4976TIP3    H136419   5.061   3.624  16.501  1.4252 -0.7419  1.2627
 4976TIP3    H236420   5.016   3.547  16.623  2.3069 -0.1939  1.9376
 4977TIP3   OH236421   1.483   6.447  14.713  0.4317 -0.0316 -0.3696
 4977TIP3    H136422   1.561   6.501  14.704  0.2090  0.3425 -0.0391
 4977TIP3    H236423   1.516   6.360  14.738  0.7229  0.1739 -0.0518
 4978TIP3   OH236424   4.595   1.562  17.253  0.0224  0.3656  0.0374
 4978TIP3    H136425   4.634   1.474  17.246 -2.0070 -0.5617  0.2158
 4978TIP3    H236426   4.671   1.620  17.259  1.4075 -1.3770  0.0645
 4979TIP3   OH236427   1.482   5.174  11.031  0.1423 -0.1510  0.1644
 4979TIP3    H136428   1.423   5.165  10.956  1.1018  0.0266 -0.6295
 4979TIP3    H236429   1.466   5.263  11.063 -1.0725 -0.6078  0.8829
 4980TIP3   OH236430   2.822   2.617  15.737 -0.4444  0.3433 -0.4596
 4980TIP3    H136431   2.849   2.529  15.711 -2.1879 -0.3682  0.0994
 4980TIP3    H236432   2.803   2.609  15.830 -3.8575  0.4859 -1.0976
 4981TIP3   OH236433   4.749   2.966   5.603  0.6418 -0.0342 -0.2617
 4981TIP3    H136434   4.793   3.019   5.537  0.6719 -1.8567 -1.7717
 4981TIP3    H236435   4.808   2.891   5.617  1.0780  0.7684  2.5461
 4982TIP3   OH236436   0.583   2.290  12.798  0.1153  0.5365  0.3786
 4982TIP3    H136437   0.554   2.206  12.761  0.9406  1.0602 -1.4443
 4982TIP3    H236438   0.674   2.298  12.772  1.3068  0.0762  4.0561
 4983TIP3   OH236439   4.549   0.472   3.464 -0.0748 -0.5160 -0.4588
 4983TIP3    H136440   4.566   0.538   3.397  0.9879  0.0251  0.3507
 4983TIP3    H236441   4.463   0.436   3.440 -0.5782  1.0237 -0.9996
 4984TIP3   OH236442   6.344   6.470   5.210  0.3092 -0.3784 -0.4948
 4984TIP3    H136443   6.385   6.419   5.280  1.2561 -1.2608 -1.6631
 4984TIP3    H236444   6.333   6.407   5.138  0.6950  0.8500 -1.6535
 4985TIP3   OH236445   0.039   3.707  16.247  0.6441 -0.5674  0.0875
 4985TIP3    H136446   0.098   3.632  16.255  0.1283 -0.9396  0.4694
 4985TIP3    H236447   0.019   3.712  16.153  0.0128 -1.4382  0.1643
 4986TIP3   OH236448   5.736   4.757  11.003  0.3521 -0.4082 -0.0530
 4986TIP3    H136449   5.811   4.730  10.950  0.0210 -0.7145 -0.3709
 4986TIP3    H236450   5.663   4.760  10.941  0.3188  0.8972  0.0420
 4987TIP3   OH236451   4.645   5.574   5.079 -0.3031  0.0514 -0.2531
 4987TIP3    H136452   4.610   5.512   5.143  2.9518 -0.7782  0.8628
 4987TIP3    H236453   4.630   5.532   4.994 -2.9628  0.2787  0.0827
 4988TIP3   OH236454   0.906   0.885  14.845 -0.2072  0.3843  0.2199
 4988TIP3    H136455   0.855   0.895  14.925  0.8245 -0.0349  0.9385
 4988TIP3    H236456   0.993   0.857  14.874  0.8724  2.3884 -0.8791
 4989TIP3   OH236457   5.048   0.826   3.175  0.5815  0.1588  0.0735
 4989TIP3    H136458   5.120   0.887   3.189  1.8426 -0.7005 -2.4656
 4989TIP3    H236459   5.036   0.823   3.081 -1.3755 -1.3378  0.3303
 4990TIP3   OH236460   2.116   4.676  14.462  0.0662 -0.1575 -0.0836
 4990TIP3    H136461   2.067   4.593  14.459 -0.2394  0.0625 -2.3739
 4990TIP3    H236462   2.066   4.731  14.522 -1.7762 -0.4182 -1.3346
 4991TIP3   OH236463   2.220   1.499  16.398 -0.6557  0.0814  0.0610
 4991TIP3    H136464   2.254   1.587  16.408  1.1614 -0.5754 -0.1977
 4991TIP3    H236465   2.125   1.509  16.406 -0.3917  1.8772  1.2369
 4992TIP3   OH236466   1.926   0.117  14.470 -0.0517  0.4719 -0.8552
 4992TIP3    H136467   1.961   0.106  14.558 -2.2053  0.9444  0.1011
 4992TIP3    H236468   1.965   0.046  14.419 -0.2467 -0.9553  0.9383
 4993TIP3   OH236469   6.664   5.117  15.940 -0.0151  0.2464  0.0622
 4993TIP3    H136470   6.616   5.059  15.880 -0.2852 -0.4254  0.9174
 4993TIP3    H236471   6.638   5.089  16.027  1.2725  0.4411  0.5297
 4994TIP3   OH236472   5.854   5.064  14.259  0.2285  0.1353  0.5107
 4994TIP3    H136473   5.939   5.027  14.234  0.7170 -0.6237  3.1892
 4994TIP3    H236474   5.844   5.141  14.203  3.3477  1.0870  1.1874
 4995TIP3   OH236475   5.729   2.911   4.674 -0.6154 -0.0535  0.5906
 4995TIP3    H136476   5.677   2.864   4.739 -1.7220 -0.1599 -0.3449
 4995TIP3    H236477   5.722   3.003   4.700 -2.6819  0.1281 -0.4440
 4996TIP3   OH236478   1.358   3.399   2.398 -0.4421 -0.3097 -0.2593
 4996TIP3    H136479   1.451   3.411   2.419 -0.5481 -2.8084  1.9266
 4996TIP3    H236480   1.357   3.337   2.325 -0.3883 -1.5872  0.7961
 4997TIP3   OH236481   1.161   3.709  16.839 -0.1041 -0.3398  0.4594
 4997TIP3    H136482   1.235   3.693  16.897 -0.1341 -1.5839  0.1705
 4997TIP3    H236483   1.198   3.700  16.751  0.0390  1.9636  0.2510
 4998TIP3   OH236484   3.598   1.186  12.273 -0.5071 -0.7844 -0.1274
 4998TIP3    H136485   3.670   1.125  12.255  1.1937  0.7531  1.2640
 4998TIP3    H236486   3.608   1.255  12.207 -0.9126 -0.7431 -0.1467
 4999TIP3   OH236487   2.571   0.347  10.382  0.4397 -0.4621 -0.0842
 4999TIP3    H136488   2.617   0.426  10.411  1.1037 -1.1086  0.6482
 4999TIP3    H236489   2.479   0.366  10.396  0.4648  0.8676 -1.6095
 5000TIP3   OH236490   1.818   1.199   5.003 -0.3232  0.5681  0.5936
 5000TIP3    H136491   1.776   1.219   5.087  1.1058  2.1707  0.9403
 5000TIP3    H236492   1.766   1.247   4.938 -1.1107 -0.2514  0.6041
 5001TIP3   OH236493   6.679   6.368  12.376 -0.0610  0.2760 -0.3521
 5001TIP3    H136494   6.762   6.406  12.405 -0.0733  0.7548 -0.9215
 5001TIP3    H236495   6.701   6.278  12.351  0.2431  0.3312 -0.2806
 5002TIP3   OH236496   3.567   6.076  13.222  0.5806 -0.3612  0.1618
 5002TIP3    H136497   3.615   6.041  13.298 -1.6826 -0.2771  1.6616
 5002TIP3    H236498   3.636   6.107  13.163  2.3669  0.4410  2.5784
 5003TIP3   OH236499   3.671   5.957  14.826 -0.6862 -0.4778 -0.2878
 5003TIP3    H136500   3.675   6.000  14.911 -2.3766 -2.8944  1.0755
 5003TIP3    H236501   3.623   6.018  14.770 -1.7116  0.0667  1.1681
 5004TIP3   OH236502   5.830   0.503   4.431 -0.3871 -0.2986 -0.7655
 5004TIP3    H136503   5.833   0.531   4.340 -0.3368  1.1423 -0.3388
 5004TIP3    H236504   5.921   0.505   4.460 -0.3470 -1.2472 -0.8312
 5005TIP3   OH236505   3.548   5.506  16.535  0.1947  0.3149  0.3275
 5005TIP3    H136506   3.566   5.597  16.561 -1.1934  0.2233  1.6802
 5005TIP3    H236507   3.633   5.464  16.538  1.2587  2.1201 -2.6378
 5006TIP3   OH236508   1.594   4.350   4.330 -0.0121 -0.2561  0.2160
 5006TIP3    H136509   1.565   4.409   4.260  0.3199 -1.2216 -0.7533
 5006TIP3    H236510   1.648   4.405   4.387 -0.0079  0.4683 -0.4832
 5007TIP3   OH236511   5.116   6.434  11.325 -0.2000  0.1277  0.5456
 5007TIP3    H136512   5.157   6.360  11.280 -3.3023 -1.8239  0.7596
 5007TIP3    H236513   5.107   6.405  11.416  0.6767  1.7379  1.1681
 5008TIP3   OH236514   4.328   4.458   0.983 -0.0021 -0.1912 -0.3511
 5008TIP3    H136515   4.392   4.396   0.949  0.9605  0.1348  0.7974
 5008TIP3    H236516   4.312   4.429   1.073 -1.5066 -0.2845 -0.6373
 5009TIP3   OH236517   3.785   0.785  13.930 -0.8142 -0.0397 -0.1807
 5009TIP3    H136518   3.873   0.757  13.906 -0.8579  0.7914 -1.3805
 5009TIP3    H236519   3.746   0.709  13.972  0.8865 -0.0438  1.4542
 5010TIP3   OH236520   4.993   2.225  16.690 -0.1464 -0.1758 -0.2266
 5010TIP3    H136521   5.033   2.285  16.627 -0.5186 -0.2567 -0.5429
 5010TIP3    H236522   4.955   2.156  16.636  0.6296 -0.9033  0.1697
 5011TIP3   OH236523   1.861   0.548   0.381 -0.2418 -0.2301  0.3136
 5011TIP3    H136524   1.807   0.616   0.339  0.1249  0.6959  1.3281
 5011TIP3    H236525   1.910   0.510   0.308 -1.8370 -0.7189 -0.5521
 5012TIP3   OH236526   6.313   5.840  15.814 -0.2151 -0.5345 -0.1886
 5012TIP3    H136527   6.380   5.852  15.746  1.2568  0.7210  1.4602
 5012TIP3    H236528   6.240   5.895  15.786  0.5700  0.3549 -0.4878
 5013TIP3   OH236529   6.231   1.488  10.889  0.1528  0.1985 -0.5232
 5013TIP3    H136530   6.166   1.510  10.822 -1.4393  0.2186  0.9851
 5013TIP3    H236531   6.179   1.459  10.964  1.9378 -1.0196  0.2835
 5014TIP3   OH236532   2.831   6.706  17.097 -0.0391 -0.0327 -0.2578
 5014TIP3    H136533   2.888   6.655  17.040  0.0937 -2.4095  1.9336
 5014TIP3    H236534   2.752   6.721  17.045  0.3137 -1.6509 -1.2887
 5015TIP3   OH236535   6.159   0.972  13.386  0.0865 -0.3679 -0.1176
 5015TIP3    H136536   6.216   0.914  13.335  1.1959 -0.0187  0.7025
 5015TIP3    H236537   6.169   1.057  13.344 -2.8639 -1.0429 -2.4004
 5016TIP3   OH236538   3.499   6.398   4.854  0.0964  0.6073 -0.6927
 5016TIP3    H136539   3.405   6.418   4.853 -0.0111  0.0868 -1.4733
 5016TIP3    H236540   3.510   6.331   4.787  1.4729  2.5970 -2.4926
 5017TIP3   OH236541   0.075   5.909   4.168 -0.6327 -0.5172  0.0258
 5017TIP3    H136542   0.136   5.843   4.137  0.0610 -0.8668  2.0946
 5017TIP3    H236543   0.123   5.957   4.236 -1.6211  1.1729 -0.4327
 5018TIP3   OH236544   0.129   0.059  11.164  0.0804  0.1022 -0.0515
 5018TIP3    H136545   0.120   0.152  11.143  0.7502  0.5605  1.6350
 5018TIP3    H236546   0.218   0.050  11.197 -0.1342 -1.0623  0.2453
 5019TIP3   OH236547   2.471   5.203  14.211 -0.1656 -0.2535 -0.2891
 5019TIP3    H136548   2.558   5.216  14.248 -0.2688  0.3912 -0.2544
 5019TIP3    H236549   2.411   5.223  14.284 -0.3981  2.2432 -1.1108
 5020TIP3   OH236550   0.344   0.365   0.846 -0.0827 -0.3720  0.0976
 5020TIP3    H136551   0.353   0.452   0.885  1.5739 -0.8925  0.9464
 5020TIP3    H236552   0.394   0.371   0.764 -0.2219 -0.4367  0.0087
 5021TIP3   OH236553   1.206   2.653   6.140  0.4834  0.1225  0.5868
 5021TIP3    H136554   1.149   2.728   6.122  1.3145  0.8508  0.9136
 5021TIP3    H236555   1.293   2.683   6.114  1.3058  0.3004  3.3422
 5022TIP3   OH236556   3.069   0.223   1.794  0.1875  0.2878  0.6073
 5022TIP3    H136557   3.086   0.220   1.700  3.3785  1.4694  1.1115
 5022TIP3    H236558   2.989   0.276   1.801  1.1755  2.1284 -1.3040
 5023TIP3   OH236559   3.262   3.675   3.581 -0.1389  0.1177 -0.2227
 5023TIP3    H136560   3.317   3.716   3.648  0.0149  0.6618 -0.6716
 5023TIP3    H236561   3.302   3.589   3.566  0.6633  0.5467 -0.6229
 5024TIP3   OH236562   2.419   2.801  12.604 -0.4340  0.4378 -0.2628
 5024TIP3    H136563   2.429   2.887  12.563 -0.5490  0.1852 -0.8204
 5024TIP3    H236564   2.329   2.775  12.583 -0.3899  0.1638 -0.1150
 5025TIP3   OH236565   6.688   1.357  15.994  0.6816  0.1905 -0.8568
 5025TIP3    H136566   6.725   1.398  15.916 -0.5756 -0.4502 -1.8216
 5025TIP3    H236567   6.596   1.342  15.971  0.5260 -0.8646  0.4146
 5026TIP3   OH236568   2.827   3.119   2.702  0.5291  0.2140 -0.3836
 5026TIP3    H136569   2.792   3.208   2.708  0.2320  0.1093 -0.5680
 5026TIP3    H236570   2.920   3.129   2.722  0.3545  0.4584  0.3301
 5027TIP3   OH236571   3.918   0.374  15.801  0.1187 -0.3966  0.6588
 5027TIP3    H136572   3.865   0.295  15.807  0.4190 -0.6811 -0.3035
 5027TIP3    H236573   3.923   0.392  15.707  0.6912  0.3270  0.8266
 5028TIP3   OH236574   5.893   4.953  14.736  0.3603 -0.0753 -0.4776
 5028TIP3    H136575   5.865   4.998  14.657  2.8205  0.4874 -1.0760
 5028TIP3    H236576   5.897   5.022  14.802  2.8090  0.3866 -1.0570
 5029TIP3   OH236577   2.972   4.617   4.700 -0.4179 -0.2509 -0.5538
 5029TIP3    H136578   2.911   4.665   4.644  1.4175  2.4878 -0.2709
 5029TIP3    H236579   2.968   4.661   4.784 -0.2217 -1.9077  0.3478
 5030TIP3   OH236580   4.674   6.316  15.679  0.0106 -0.2538  0.3830
 5030TIP3    H136581   4.602   6.253  15.686  0.5476 -1.0759 -1.1258
 5030TIP3    H236582   4.706   6.325  15.769 -1.1774 -0.8327  0.8811
 5031TIP3   OH236583   4.618   4.508  10.753  0.4522 -0.2980 -0.7563
 5031TIP3    H136584   4.608   4.554  10.836  1.0373 -1.7460  0.1316
 5031TIP3    H236585   4.681   4.561  10.704 -0.0636  0.6807 -0.3747
 5032TIP3   OH236586   3.692   5.294   1.470  0.0664  0.2224 -0.1133
 5032TIP3    H136587   3.636   5.258   1.539 -1.1976  0.0060 -1.2368
 5032TIP3    H236588   3.738   5.366   1.512 -0.9619  0.3193  0.8639
 5033TIP3   OH236589   4.440   0.168   5.234  0.4251 -0.3025 -0.1740
 5033TIP3    H136590   4.500   0.221   5.180  2.1071 -1.3462  0.6343
 5033TIP3    H236591   4.410   0.228   5.302  0.2729  0.3195 -0.7783
 5034TIP3   OH236592   0.663   6.763  15.745  0.0030  0.0680  0.0166
 5034TIP3    H136593   0.661   6.823  15.672 -1.5646  0.3555  0.2708
 5034TIP3    H236594   0.622   6.683  15.712  0.6013 -0.3042  0.1590
 5035TIP3   OH236595   0.443   4.324   6.107  0.2764 -0.2907 -0.0618
 5035TIP3    H136596   0.513   4.260   6.098  0.8648  0.1669  1.2784
 5035TIP3    H236597   0.482   4.398   6.153 -1.0313  0.0480  0.5473
 5036TIP3   OH236598   4.729   2.789  13.599 -0.2837 -0.2937  0.3875
 5036TIP3    H136599   4.697   2.699  13.603 -0.3673 -0.3073 -0.5835
 5036TIP3    H236600   4.658   2.842  13.634 -0.7325 -0.4785 -0.2457
 5037TIP3   OH236601   0.859   5.194   1.299 -0.2732  0.3679  0.4389
 5037TIP3    H136602   0.871   5.100   1.313 -0.0662  0.3779  0.3149
 5037TIP3    H236603   0.816   5.225   1.380 -3.3138 -0.4225 -0.7818
 5038TIP3   OH236604   0.205   4.608  12.270 -0.3169 -0.4897 -0.2416
 5038TIP3    H136605   0.252   4.571  12.344 -1.3162 -1.1678  0.0607
 5038TIP3    H236606   0.273   4.644  12.214  0.4948 -0.6395  0.6416
 5039TIP3   OH236607   0.071   1.152  14.762 -0.0831 -0.0023  0.1309
 5039TIP3    H136608   0.060   1.244  14.789  1.1398  0.6295 -1.4399
 5039TIP3    H236609   0.157   1.150  14.719  0.3775 -2.1174  1.0798
 5040TIP3   OH236610   5.156   1.758   6.331 -0.0559 -0.0071 -0.4784
 5040TIP3    H136611   5.106   1.813   6.271  0.3811 -0.3527 -1.1583
 5040TIP3    H236612   5.161   1.810   6.412 -3.0617 -0.6954  0.2277
 5041TIP3   OH236613   4.505   3.505   5.885  0.4127  0.3528  0.0970
 5041TIP3    H136614   4.503   3.539   5.796 -1.0302  0.1778  0.0479
 5041TIP3    H236615   4.543   3.575   5.937 -1.3487  1.5741 -0.2082
 5042TIP3   OH236616   1.946   3.614   0.483 -0.6144  0.3311 -0.3576
 5042TIP3    H136617   1.915   3.557   0.412 -1.3059  0.3144 -0.0463
 5042TIP3    H236618   2.029   3.574   0.510 -0.7067 -0.0835 -0.6627
 5043TIP3   OH236619   5.870   3.938   0.342 -0.0034  0.2999  0.5849
 5043TIP3    H136620   5.919   3.958   0.262  0.3809 -0.9898  0.4770
 5043TIP3    H236621   5.868   4.020   0.391  2.6460  0.2734  0.7923
 5044TIP3   OH236622   2.296   5.088  11.981 -0.5199  0.0334  0.0310
 5044TIP3    H136623   2.342   5.004  11.970  1.5486  1.1539 -0.0862
 5044TIP3    H236624   2.300   5.106  12.075  1.2582  1.2034 -0.2488
 5045TIP3   OH236625   0.322   5.201  14.523  0.4774 -0.3235 -0.3456
 5045TIP3    H136626   0.244   5.147  14.529 -0.3944  0.7523 -1.7642
 5045TIP3    H236627   0.395   5.139  14.526 -0.4517 -1.3993  0.0728
 5046TIP3   OH236628   3.276   4.437  13.859  0.6991 -0.2760 -0.2393
 5046TIP3    H136629   3.224   4.474  13.787  0.0847  1.7471  1.2209
 5046TIP3    H236630   3.349   4.497  13.870  0.5709 -0.3600  1.0994
 5047TIP3   OH236631   1.721   5.428  15.181 -0.0911 -0.0183 -0.8889
 5047TIP3    H136632   1.711   5.405  15.089  1.2684  0.9130 -1.2880
 5047TIP3    H236633   1.721   5.524  15.182 -0.6020 -0.0243  0.1283
 5048TIP3   OH236634   2.353   2.403   5.582 -0.1109 -0.0892  0.5875
 5048TIP3    H136635   2.404   2.442   5.510 -0.3586 -4.5667 -2.2310
 5048TIP3    H236636   2.419   2.373   5.644  0.1942  2.2249  1.4269
 5049TIP3   OH236637   5.304   0.099  13.250 -0.2803  0.5270 -0.2112
 5049TIP3    H136638   5.260   0.017  13.273 -1.0986  0.2379 -2.6339
 5049TIP3    H236639   5.369   0.073  13.185 -0.4753  1.7849 -0.9257
 5050TIP3   OH236640   4.357   3.580   2.074  0.7735  0.0074  0.4112
 5050TIP3    H136641   4.386   3.578   2.165 -0.1195 -1.5538  0.6910
 5050TIP3    H236642   4.325   3.669   2.060  1.7539  0.5142  1.3481
 5051TIP3   OH236643   5.553   5.381   5.040 -0.2725  0.5874  0.3025
 5051TIP3    H136644   5.478   5.322   5.043 -0.8858  1.3942  1.0991
 5051TIP3    H236645   5.610   5.353   5.111  0.1648  0.0144 -0.2624
 5052TIP3   OH236646   4.379   6.053  14.693  0.3376  0.2652 -0.3706
 5052TIP3    H136647   4.450   6.077  14.753 -2.5790  0.5253  3.1791
 5052TIP3    H236648   4.333   6.136  14.677 -1.4054 -0.4968  0.5432
 5053TIP3   OH236649   6.077   6.672  14.243 -1.0773  0.1592  0.1438
 5053TIP3    H136650   6.034   6.674  14.157 -0.3635 -0.7404 -0.2529
 5053TIP3    H236651   6.113   6.760  14.254 -0.2617 -0.0117 -0.9786
 5054TIP3   OH236652   4.181   1.577  11.750  0.0961 -0.4071  0.8088
 5054TIP3    H136653   4.172   1.653  11.692  0.7028 -0.4253  0.6866
 5054TIP3    H236654   4.239   1.607  11.820  0.6212 -0.8568  0.5744
 5055TIP3   OH236655   2.899   4.090  16.586  0.3965  0.1421  0.2319
 5055TIP3    H136656   2.947   4.017  16.625 -0.8476  0.0086  1.5043
 5055TIP3    H236657   2.846   4.125  16.657  0.5223  1.9111 -0.5281
 5056TIP3   OH236658   2.299   3.210  12.799  0.9002 -0.1951 -0.0510
 5056TIP3    H136659   2.241   3.286  12.800  0.2222 -0.7141  0.7670
 5056TIP3    H236660   2.335   3.206  12.888 -0.5872 -1.9638  0.5042
 5057TIP3   OH236661   1.399   4.752  13.252 -0.4599 -0.1399 -0.2968
 5057TIP3    H136662   1.397   4.660  13.278  0.5760  0.0612  0.5486
 5057TIP3    H236663   1.311   4.784  13.268 -0.1981 -0.3615  1.7628
 5058TIP3   OH236664   1.386   2.727   4.945 -0.4364 -0.1762 -0.0296
 5058TIP3    H136665   1.455   2.739   4.880  0.4973 -0.6914  0.8429
 5058TIP3    H236666   1.389   2.807   4.997  0.5033 -0.8088  0.9146
 5059TIP3   OH236667   4.248   0.858  15.969 -0.0181 -0.1908 -0.2599
 5059TIP3    H136668   4.292   0.937  15.999  0.6422 -0.6452 -0.0384
 5059TIP3    H236669   4.173   0.848  16.029 -0.7363  0.8752 -0.9747
 5060TIP3   OH236670   2.898   3.860   2.252 -0.1827 -0.3011  0.2040
 5060TIP3    H136671   2.816   3.847   2.205 -1.3346  2.5294  1.3081
 5060TIP3    H236672   2.895   3.798   2.324 -1.1151 -0.5512 -0.0441
 5061TIP3   OH236673   0.853   3.190   4.643 -0.7010 -0.3147 -0.1898
 5061TIP3    H136674   0.841   3.273   4.598  0.6747 -0.1857 -0.3303
 5061TIP3    H236675   0.947   3.171   4.635 -0.5004 -0.5233  2.2125
 5062TIP3   OH236676   2.538   2.648  12.383  0.3848  0.2208 -0.2160
 5062TIP3    H136677   2.633   2.648  12.396  0.4916  2.0027 -0.8609
 5062TIP3    H236678   2.502   2.677  12.466  0.5708  2.1499 -0.7726
 5063TIP3   OH236679   6.686   5.505  14.481 -0.2698  0.0657 -0.2697
 5063TIP3    H136680   6.687   5.415  14.515 -2.4240  0.5072  1.0792
 5063TIP3    H236681   6.653   5.496  14.392  1.0353 -0.6350 -0.6941
 5064TIP3   OH236682   0.107   1.323   5.220  0.1685  0.5871 -0.6956
 5064TIP3    H136683   0.186   1.343   5.271 -0.0407 -1.5574  0.4880
 5064TIP3    H236684   0.057   1.405   5.221  1.8408  1.6392 -0.5269
 5065TIP3   OH236685   6.230   3.154  15.754 -0.0894 -0.0780 -0.5126
 5065TIP3    H136686   6.163   3.087  15.769  0.8137 -0.8229  0.2873
 5065TIP3    H236687   6.287   3.149  15.831 -0.7501  2.5317  0.1692
 5066TIP3   OH236688   0.188   1.307  14.022  0.2957 -0.5101  0.1281
 5066TIP3    H136689   0.094   1.296  14.034  0.6200 -3.0862  0.4365
 5066TIP3    H236690   0.203   1.290  13.929 -0.0098  3.7766 -0.8429
 5067TIP3   OH236691   1.747   2.509   4.712  0.3634 -0.0999  0.3338
 5067TIP3    H136692   1.838   2.493   4.684  0.5213  0.5863  0.4397
 5067TIP3    H236693   1.699   2.433   4.681  0.8177 -0.0605 -0.4810
 5068TIP3   OH236694   0.090   5.000  11.879  0.0487  0.6012  0.4537
 5068TIP3    H136695   0.172   5.048  11.867  0.7508 -0.6755  0.1490
 5068TIP3    H236696   0.090   4.977  11.972  0.1119  0.4517  0.4161
 5069TIP3   OH236697   3.513   5.993  11.887 -0.3830 -0.2175 -0.2556
 5069TIP3    H136698   3.546   5.903  11.885  0.0448 -0.1304  1.8424
 5069TIP3    H236699   3.419   5.984  11.904 -0.6873 -0.3186 -1.9309
 5070TIP3   OH236700   2.672   6.499   5.845 -0.5450  0.0323  0.6696
 5070TIP3    H136701   2.749   6.444   5.832 -0.6707  0.0394 -0.1314
 5070TIP3    H236702   2.707   6.586   5.862 -0.3589 -0.1719  1.3654
 5071TIP3   OH236703   4.185   6.353  16.119  0.0371 -0.0755  0.0207
 5071TIP3    H136704   4.125   6.283  16.093  0.0593 -0.2287  0.3878
 5071TIP3    H236705   4.271   6.324  16.088 -0.0204 -0.0112 -0.2041
 5072TIP3   OH236706   1.819   0.024  11.925  0.3256 -0.6554  0.3656
 5072TIP3    H136707   1.769   0.088  11.976  1.8839  2.1396 -1.4803
 5072TIP3    H236708   1.902   0.016  11.972  0.4438 -0.7002  0.1476
 5073TIP3   OH236709   4.109   1.822  16.396  0.7907 -0.1152 -0.5321
 5073TIP3    H136710   4.107   1.890  16.463 -1.3815 -0.0305 -0.6408
 5073TIP3    H236711   4.187   1.842  16.344 -0.0272  2.6023 -0.8287
 5074TIP3   OH236712   1.735   2.589   5.414 -0.1656  0.5525 -0.3486
 5074TIP3    H136713   1.806   2.647   5.443 -0.0247  0.4560 -0.4964
 5074TIP3    H236714   1.709   2.624   5.329 -1.0451  1.2433  0.2018
 5075TIP3   OH236715   0.458   6.641   4.401  0.5333 -0.6067 -0.6482
 5075TIP3    H136716   0.467   6.598   4.316  3.2679  0.0361 -0.7499
 5075TIP3    H236717   0.476   6.733   4.382  0.2136 -0.3142  0.4603
 5076TIP3   OH236718   3.862   5.675   0.591 -0.1637  0.2112  0.5630
 5076TIP3    H136719   3.789   5.618   0.568 -0.2872  0.5678  0.0925
 5076TIP3    H236720   3.845   5.757   0.546  1.9676 -0.6222 -1.8850
 5077TIP3   OH236721   2.359   2.617   2.191 -0.0016 -0.0618  0.1822
 5077TIP3    H136722   2.411   2.616   2.272 -0.4199 -1.5884  0.4594
 5077TIP3    H236723   2.420   2.645   2.123  0.6331  0.2169  0.8631
 5078TIP3   OH236724   5.221   2.572   4.306 -0.3753 -0.7744  0.0301
 5078TIP3    H136725   5.216   2.667   4.321 -1.9070 -0.7438 -0.6069
 5078TIP3    H236726   5.230   2.535   4.394  0.6829 -0.0282  0.2565
 5079TIP3   OH236727   2.820   2.631  16.368  0.0249 -0.2454 -0.4016
 5079TIP3    H136728   2.889   2.585  16.416 -0.3180 -1.3786 -0.9823
 5079TIP3    H236729   2.866   2.700  16.319  0.5392  0.0486  0.4715
 5080TIP3   OH236730   6.328   0.625  11.458  0.4087  0.0852 -0.3242
 5080TIP3    H136731   6.264   0.557  11.439 -0.7184  0.8630  0.6051
 5080TIP3    H236732   6.296   0.702  11.411 -0.2181  0.9118  1.4382
 5081TIP3   OH236733   4.177   4.969  16.922 -0.1513  0.2067 -0.7962
 5081TIP3    H136734   4.214   5.047  16.880  0.5399  0.2854 -0.0614
 5081TIP3    H236735   4.246   4.940  16.981 -0.4198 -0.9488 -1.0439
 5082TIP3   OH236736   3.873   1.752   1.085  0.4738 -0.8220 -0.2203
 5082TIP3    H136737   3.906   1.772   1.173 -0.1658 -0.1956 -0.1179
 5082TIP3    H236738   3.895   1.830   1.033  0.6571 -1.1016 -0.5625
 5083TIP3   OH236739   0.305   4.805   6.553 -0.0103  0.4779 -0.0986
 5083TIP3    H136740   0.261   4.724   6.578  0.2384 -0.7578 -3.3583
 5083TIP3    H236741   0.250   4.874   6.589 -1.6296 -1.0906  0.5583
 5084TIP3   OH236742   4.710   1.020  17.191 -0.6295 -0.6375  0.2251
 5084TIP3    H136743   4.687   1.070  17.113 -0.6702 -1.0752 -0.0422
 5084TIP3    H236744   4.748   0.939  17.157  1.7188  0.2463  0.6323
 5085TIP3   OH236745   4.614   6.411   5.256  0.3209  0.0699 -0.1720
 5085TIP3    H136746   4.623   6.338   5.317  0.0777  1.5489  1.6901
 5085TIP3    H236747   4.530   6.396   5.212  0.2276 -0.7129  0.2602
 5086TIP3   OH236748   4.506   3.085   2.612  0.7107  0.3231 -0.7671
 5086TIP3    H136749   4.486   3.112   2.522  1.7370  0.8887 -0.8251
 5086TIP3    H236750   4.426   3.042   2.642 -0.5273  2.3541 -1.0794
 5087TIP3   OH236751   3.253   4.904   1.499 -0.2716  0.3111 -0.4299
 5087TIP3    H136752   3.214   4.984   1.536 -0.4611  0.3421 -0.6898
 5087TIP3    H236753   3.275   4.928   1.409  0.9694  0.4959 -0.0823
 5088TIP3   OH236754   5.572   0.951  14.645  0.1919  0.1833 -0.2665
 5088TIP3    H136755   5.614   0.864  14.644  2.2494  1.1522 -0.4753
 5088TIP3    H236756   5.506   0.944  14.714  0.6990 -1.3807  0.0972
 5089TIP3   OH236757   4.622   6.227   3.991  0.0745 -0.1546 -0.3291
 5089TIP3    H136758   4.625   6.320   4.012  1.9437  0.1709 -1.9184
 5089TIP3    H236759   4.668   6.219   3.908  1.2815 -2.7161  0.5350
 5090TIP3   OH236760   6.491   6.017  12.806 -0.1866 -0.3459 -0.4794
 5090TIP3    H136761   6.407   6.050  12.775 -0.5068  0.2723  0.9949
 5090TIP3    H236762   6.512   5.944  12.747 -1.8082 -0.5780 -0.7825
 5091TIP3   OH236763   6.742   4.810  12.706 -0.1072 -0.1236 -0.5796
 5091TIP3    H136764   6.727   4.782  12.796  0.6606  0.7889 -0.1613
 5091TIP3    H236765   6.827   4.855  12.709 -1.5023  2.6523 -1.1281
 5092TIP3   OH236766   3.225   2.920  14.241  0.2215 -0.3032 -0.6634
 5092TIP3    H136767   3.310   2.928  14.283  0.0909 -1.0286 -0.2450
 5092TIP3    H236768   3.162   2.921  14.312 -0.0774 -0.3429 -0.9246
 5093TIP3   OH236769   1.280   0.413  13.882  0.9256  0.1020  0.3962
 5093TIP3    H136770   1.301   0.325  13.849  0.0659  0.1723 -0.3634
 5093TIP3    H236771   1.190   0.406  13.914  0.1887  1.1399 -1.3390
 5094TIP3   OH236772   1.660   2.637  12.757  0.2735 -0.4095 -0.0307
 5094TIP3    H136773   1.696   2.594  12.834  1.6012 -1.0492 -0.9871
 5094TIP3    H236774   1.599   2.572  12.720  2.1450 -1.4697 -1.3747
 5095TIP3   OH236775   4.455   4.307   4.372 -0.4088  0.1105 -0.2386
 5095TIP3    H136776   4.548   4.299   4.394 -0.2934 -0.0291 -0.7819
 5095TIP3    H236777   4.433   4.224   4.330 -1.0884 -0.3698  1.0121
 5096TIP3   OH236778   2.227   0.451   6.006 -0.1726  0.4579 -0.0636
 5096TIP3    H136779   2.176   0.382   5.964  1.1884 -0.3819 -0.3605
 5096TIP3    H236780   2.285   0.483   5.936 -0.8624  1.9840  0.0360
 5097TIP3   OH236781   4.516   4.880  13.644  0.1431  0.3058 -0.1029
 5097TIP3    H136782   4.432   4.909  13.681  0.6353 -0.1422  1.4086
 5097TIP3    H236783   4.581   4.929  13.694  0.8619 -1.0465  0.2937
 5098TIP3   OH236784   1.980   2.337   1.267 -0.1198 -0.2557 -0.1429
 5098TIP3    H136785   2.074   2.350   1.257 -0.1706  0.7090  0.5534
 5098TIP3    H236786   1.967   2.243   1.261  1.0294 -0.4877  0.8831
 5099TIP3   OH236787   3.304   3.921   1.836 -0.0100 -0.2889  0.0919
 5099TIP3    H136788   3.238   3.868   1.793  0.2659 -1.0510  0.6055
 5099TIP3    H236789   3.262   4.007   1.847 -0.3266 -0.2822 -1.0541
 5100TIP3   OH236790   4.750   1.971  15.480  0.1795  0.2427 -0.8295
 5100TIP3    H136791   4.801   1.959  15.560 -1.8564  0.5708  0.5639
 5100TIP3    H236792   4.740   2.066  15.471  1.5192  0.2753 -2.2357
 5101TIP3   OH236793   3.181   5.128   3.208 -0.0317  0.1457 -0.0463
 5101TIP3    H136794   3.246   5.160   3.270  0.2570  2.0348 -1.2874
 5101TIP3    H236795   3.096   5.149   3.248  0.1479  0.4228  0.1891
 5102TIP3   OH236796   4.893   5.163   2.622 -0.2292  0.0056 -0.0614
 5102TIP3    H136797   4.920   5.104   2.692  0.3738 -0.7158 -0.8838
 5102TIP3    H236798   4.956   5.235   2.625 -0.6116  0.3138  0.5680
 5103TIP3   OH236799   3.249   3.307  14.165 -0.4265  0.3226 -0.0926
 5103TIP3    H136800   3.302   3.380  14.195  0.6315  0.4698 -2.2279
 5103TIP3    H236801   3.161   3.326  14.198  0.7399  0.1618  3.3261
 5104TIP3   OH236802   4.753   6.567   4.433 -0.0230 -0.5137  0.0494
 5104TIP3    H136803   4.720   6.564   4.343 -2.1568 -2.3649  0.8636
 5104TIP3    H236804   4.698   6.632   4.477  1.8543  1.3451 -0.2577
 5105TIP3   OH236805   0.416   2.731   1.288 -0.1603 -0.6902 -0.4533
 5105TIP3    H136806   0.449   2.668   1.224  1.9502  1.0943 -1.1585
 5105TIP3    H236807   0.380   2.802   1.235  0.9652  0.4708  0.3265
 5106TIP3   OH236808   1.882   5.834  13.013  0.2752 -1.1435  0.0050
 5106TIP3    H136809   1.963   5.784  13.008  0.2715 -1.0568 -1.0952
 5106TIP3    H236810   1.840   5.804  13.093  2.6184  0.7135  1.9742
 5107TIP3   OH236811   0.611   2.959  14.476 -0.2144  0.5224 -0.0061
 5107TIP3    H136812   0.585   2.976  14.567  0.0487  0.2922  0.1124
 5107TIP3    H236813   0.688   3.015  14.463  0.2462 -0.0664  0.1747
 5108TIP3   OH236814   2.850   5.443   4.147  0.3436 -0.2911 -0.2091
 5108TIP3    H136815   2.811   5.368   4.101  0.5634 -1.2119  1.0884
 5108TIP3    H236816   2.802   5.448   4.229  1.0456  0.3539  0.1621
 5109TIP3   OH236817   3.063   6.447   2.966 -0.9504  0.1898 -0.1895
 5109TIP3    H136818   3.046   6.528   2.918 -0.6950  0.5639  0.3489
 5109TIP3    H236819   3.081   6.382   2.898  1.2222  1.1235 -0.5396
 5110TIP3   OH236820   4.885   1.688   2.306 -0.0283  0.0016 -0.1746
 5110TIP3    H136821   4.955   1.692   2.371 -0.6702  0.9230  0.4696
 5110TIP3    H236822   4.873   1.594   2.289 -0.5508 -0.3146  1.7954
 5111TIP3   OH236823   0.532   0.535   3.085  0.5798 -0.4384 -0.2629
 5111TIP3    H136824   0.621   0.500   3.073  1.1230  0.3203  1.3107
 5111TIP3    H236825   0.475   0.458   3.082  1.5435 -1.2235  1.0610
 5112TIP3   OH236826   3.614   1.080  13.669  0.5129 -0.8282 -0.0259
 5112TIP3    H136827   3.536   1.135  13.680  1.3834  0.2588  0.7356
 5112TIP3    H236828   3.579   0.991  13.665 -0.7140 -0.4226  1.0833
 5113TIP3   OH236829   3.673   1.213   4.209 -0.5251  0.5228 -0.6499
 5113TIP3    H136830   3.698   1.133   4.255 -1.1688  0.6964  0.0038
 5113TIP3    H236831   3.581   1.225   4.231  0.2402  2.9032  1.3956
 5114TIP3   OH236832   0.293   4.503  15.080  0.4288 -0.5624 -0.4680
 5114TIP3    H136833   0.316   4.485  15.171 -1.1451 -2.6442 -0.4389
 5114TIP3    H236834   0.225   4.438  15.059  0.7900 -0.1416 -3.1298
 5115TIP3   OH236835   0.203   2.534  13.083 -0.5703  0.4621  0.2525
 5115TIP3    H136836   0.289   2.513  13.120 -0.3140  0.4395 -0.3479
 5115TIP3    H236837   0.220   2.549  12.990 -1.0940  1.2364  0.2753
 5116TIP3   OH236838   2.825   3.982   3.474 -0.4126  0.3422  0.3205
 5116TIP3    H136839   2.739   4.019   3.497 -0.4719  0.5277 -0.2046
 5116TIP3    H236840   2.815   3.888   3.486 -0.7227  0.3547  0.1572
 5117TIP3   OH236841   5.841   1.771  13.726 -0.1976 -0.6390  0.5135
 5117TIP3    H136842   5.805   1.845  13.677 -1.2609 -0.4312  1.5925
 5117TIP3    H236843   5.878   1.713  13.658  0.1910  0.6258 -0.3686
 5118TIP3   OH236844   0.239   4.974   2.468  0.4360  0.0434 -0.2851
 5118TIP3    H136845   0.204   4.986   2.556 -0.1771  0.2050 -0.5441
 5118TIP3    H236846   0.203   4.890   2.439 -0.0333  0.3834 -0.6916
 5119TIP3   OH236847   0.546   6.405   0.390  0.4485 -0.2273 -0.4724
 5119TIP3    H136848   0.485   6.381   0.460  0.5631 -1.3500 -0.7463
 5119TIP3    H236849   0.591   6.482   0.423  0.7506 -0.9523  0.8485
 5120TIP3   OH236850   1.757   5.348  16.933 -0.6229 -0.4189 -0.1946
 5120TIP3    H136851   1.673   5.395  16.933 -0.6673 -0.4993 -0.2688
 5120TIP3    H236852   1.744   5.275  16.873 -0.0447  0.3857 -1.3179
 5121TIP3   OH236853   1.981   1.491  14.243 -0.2746 -0.2293  0.1797
 5121TIP3    H136854   1.946   1.577  14.265 -2.0545 -0.7694 -0.4532
 5121TIP3    H236855   2.067   1.488  14.284  0.7977  2.7605 -1.7342
 5122TIP3   OH236856   1.397   0.342  13.203 -0.6339  0.2054 -0.0672
 5122TIP3    H136857   1.346   0.328  13.122  1.9637  0.5070 -1.8040
 5122TIP3    H236858   1.444   0.424  13.188  0.9703 -0.4705  1.1584
 5123TIP3   OH236859   3.982   3.817  10.306 -0.3062  0.2544  0.2479
 5123TIP3    H136860   3.946   3.896  10.266  0.2262 -0.1619 -1.0852
 5123TIP3    H236861   4.071   3.810  10.271 -0.5182 -1.1987 -0.0280
 5124TIP3   OH236862   1.849   1.457  12.434 -0.0671  0.1174 -0.5548
 5124TIP3    H136863   1.941   1.431  12.438 -0.0913  0.2172  3.7696
 5124TIP3    H236864   1.850   1.551  12.455 -1.3322 -0.6377  3.2259
 5125TIP3   OH236865   3.000   5.822   1.370  0.4099  0.1122  0.0388
 5125TIP3    H136866   3.015   5.739   1.416  1.1375  0.1354 -0.1494
 5125TIP3    H236867   3.075   5.877   1.394 -1.5192  1.7473  2.4470
 5126TIP3   OH236868   5.805   4.378   4.715 -0.1933 -1.0183  0.5615
 5126TIP3    H136869   5.832   4.377   4.623 -0.2008 -0.4092  0.5517
 5126TIP3    H236870   5.732   4.315   4.718 -1.6681  0.5992 -0.3165
 5127TIP3   OH236871   0.575   6.297   5.859  0.9123 -0.1288  0.1660
 5127TIP3    H136872   0.601   6.365   5.921  0.4817 -0.1060  0.3182
 5127TIP3    H236873   0.533   6.230   5.913 -0.5216  0.4189 -0.2444
 5128TIP3   OH236874   2.700   1.460  13.866 -0.3786  0.6290 -0.0931
 5128TIP3    H136875   2.709   1.407  13.945 -0.8581 -0.6650 -0.8927
 5128TIP3    H236876   2.716   1.550  13.895 -2.6529  0.4233  1.8940
 5129TIP3   OH236877   1.937   5.455  11.322  0.0366  0.0828  0.4309
 5129TIP3    H136878   2.004   5.521  11.341 -0.7177  0.6583  1.1027
 5129TIP3    H236879   1.971   5.407  11.247  0.3404  1.5635 -0.3795
 5130TIP3   OH236880   2.063   1.600  11.351  0.3686  0.1358  0.0806
 5130TIP3    H136881   2.126   1.672  11.348 -1.5052  1.7937 -0.1584
 5130TIP3    H236882   2.104   1.530  11.299  2.1064  1.0678  0.1491
 5131TIP3   OH236883   2.874   3.045   6.037  0.0492  0.3416  0.0883
 5131TIP3    H136884   2.935   2.990   6.086 -0.3648 -1.2457 -1.1457
 5131TIP3    H236885   2.821   3.087   6.105  0.5626 -0.5551  1.0721
 5132TIP3   OH236886   2.665   0.806   1.955 -0.1100 -0.3031  0.5812
 5132TIP3    H136887   2.722   0.747   2.004  1.1285 -0.1426 -0.6182
 5132TIP3    H236888   2.700   0.893   1.973  0.9939 -0.3160 -1.3347
 5133TIP3   OH236889   1.321   2.013   2.694 -0.0633 -0.1883 -0.3246
 5133TIP3    H136890   1.282   1.931   2.666  0.2128 -0.7445  0.8996
 5133TIP3    H236891   1.414   2.004   2.670 -0.0871 -0.1212 -0.4414
 5134TIP3   OH236892   3.127   2.520   3.729 -0.0690  0.1200 -0.6139
 5134TIP3    H136893   3.222   2.527   3.720  0.1080 -1.5993 -0.1786
 5134TIP3    H236894   3.092   2.565   3.652  1.0720  1.4486 -0.3672
 5135TIP3   OH236895   1.979   5.642  14.833  0.5753 -0.1396  0.9607
 5135TIP3    H136896   1.926   5.600  14.900 -0.0513  0.2606  0.7222
 5135TIP3    H236897   1.925   5.715  14.802  0.9692 -0.1551  0.2163
 5136TIP3   OH236898   0.396   5.399   3.147 -0.4399 -0.4201  0.0887
 5136TIP3    H136899   0.320   5.349   3.176 -0.2174 -0.6678  0.2420
 5136TIP3    H236900   0.418   5.363   3.061  0.1767 -1.0960  0.5206
 5137TIP3   OH236901   4.810   0.723   5.014  0.1567  0.4496  0.0853
 5137TIP3    H136902   4.833   0.689   4.928  0.3258  0.1820  0.2377
 5137TIP3    H236903   4.883   0.699   5.070 -1.3445 -2.0781  1.0170
 5138TIP3   OH236904   6.754   4.176   5.472  0.2178  0.4300  0.3061
 5138TIP3    H136905   6.750   4.092   5.518 -0.1038  0.7987  0.9570
 5138TIP3    H236906   6.704   4.236   5.526 -0.5051  0.7819 -0.7362
 5139TIP3   OH236907   0.185   4.123   0.726 -0.4739  0.1280  0.0161
 5139TIP3    H136908   0.225   4.168   0.652 -1.7722  1.0769 -0.1187
 5139TIP3    H236909   0.255   4.120   0.793  0.6013 -0.4773 -1.1139
 5140TIP3   OH236910   4.766   4.061   3.026 -0.1263 -0.4190 -0.2890
 5140TIP3    H136911   4.753   4.122   2.953 -1.0962 -2.9203 -2.2755
 5140TIP3    H236912   4.679   4.024   3.042  0.4876 -1.4677  0.7077
 5141TIP3   OH236913   3.846   2.810   4.728 -0.3563  0.1334  0.2122
 5141TIP3    H136914   3.881   2.738   4.675  0.8995  0.0589  1.1278
 5141TIP3    H236915   3.768   2.773   4.770  0.8665 -1.0070  1.4845
 5142TIP3   OH236916   5.371   2.207   3.626  0.4666 -0.1999  0.2813
 5142TIP3    H136917   5.464   2.195   3.646 -0.1327 -2.4276  1.8212
 5142TIP3    H236918   5.346   2.284   3.678  1.5851  0.9027 -0.7478
 5143TIP3   OH236919   2.334   1.994  12.329  0.4100  0.2942  0.4955
 5143TIP3    H136920   2.332   2.067  12.267 -1.4527 -0.9557 -0.9735
 5143TIP3    H236921   2.410   1.943  12.304  0.7905  0.8432  0.5097
 5144TIP3   OH236922   2.413   6.471   5.097  0.1194  0.3249  1.0000
 5144TIP3    H136923   2.479   6.410   5.131  0.3092  0.9618  1.7875
 5144TIP3    H236924   2.352   6.416   5.049  1.8416 -0.1654 -0.7205
 5145TIP3   OH236925   3.189   6.443  16.460 -0.1041  0.2953 -0.0851
 5145TIP3    H136926   3.136   6.507  16.412 -0.2804  0.8631  0.8435
 5145TIP3    H236927   3.279   6.477  16.452 -0.1506  0.4644  0.0907
 5146TIP3   OH236928   2.897   6.232  10.520 -0.2941  0.2539  0.1557
 5146TIP3    H136929   2.947   6.282  10.455 -0.4373  1.7531  1.1733
 5146TIP3    H236930   2.885   6.293  10.593 -1.2373 -0.9927  1.0623
 5147TIP3   OH236931   3.072   1.632   3.345 -0.7988 -0.1284  0.5459
 5147TIP3    H136932   2.983   1.662   3.363 -2.0864 -3.8387  0.8539
 5147TIP3    H236933   3.071   1.540   3.371  3.1687 -0.2229  0.6065
 5148TIP3   OH236934   3.266   5.863   2.449  0.6690  0.5977  0.4074
 5148TIP3    H136935   3.283   5.797   2.516  2.7373 -1.0951 -1.7151
 5148TIP3    H236936   3.264   5.946   2.497  0.5502 -0.7279  2.7668
 5149TIP3   OH236937   4.201   6.144  12.603  0.2040 -0.2257 -0.1257
 5149TIP3    H136938   4.229   6.216  12.546  0.0515 -1.8716 -2.3303
 5149TIP3    H236939   4.112   6.168  12.629  0.4896  0.8215 -0.0814
 5150TIP3   OH236940   0.376   0.202  16.960 -0.2253 -0.3420  0.3041
 5150TIP3    H136941   0.448   0.252  16.998  1.8882 -1.1801 -2.3512
 5150TIP3    H236942   0.304   0.264  16.952  0.5944  0.8379  1.9111
 5151TIP3   OH236943   2.825   3.562  11.991  0.8465  0.8097  0.1912
 5151TIP3    H136944   2.782   3.627  12.047  1.8847 -0.1125  2.1066
 5151TIP3    H236945   2.753   3.513  11.953  0.0777  2.4290 -0.4996
 5152TIP3   OH236946   3.188   1.872  16.608  0.2155 -0.3262 -0.0752
 5152TIP3    H136947   3.268   1.818  16.602 -0.2834 -1.0368 -0.4607
 5152TIP3    H236948   3.204   1.945  16.548  0.9923  0.0872  0.6174
 5153TIP3   OH236949   3.122   1.759   2.624  0.1538  0.2800  0.4335
 5153TIP3    H136950   3.101   1.821   2.694  1.4341  0.2160  0.8692
 5153TIP3    H236951   3.201   1.795   2.583  0.8062 -0.9848  0.5808
 5154TIP3   OH236952   4.155   6.218   4.339  0.1270 -0.2049  0.1921
 5154TIP3    H136953   4.146   6.133   4.383  0.9792 -0.6856 -0.5159
 5154TIP3    H236954   4.223   6.202   4.273 -1.5332  0.3195 -1.6758
 5155TIP3   OH236955   1.308   4.666  17.119  0.0264 -0.2774 -0.9490
 5155TIP3    H136956   1.402   4.683  17.119  0.2999 -1.7149  0.7224
 5155TIP3    H236957   1.300   4.575  17.147 -1.9689  0.5627  1.3411
 5156TIP3   OH236958   6.802   4.063   3.016 -0.0782 -0.3749  0.3011
 5156TIP3    H136959   6.897   4.076   3.017 -0.0958 -0.2101  0.0966
 5156TIP3    H236960   6.780   4.031   3.103  0.1003  0.0872  0.5155
 5157TIP3   OH236961   3.605   3.914  13.866 -0.0478  0.5250  0.5861
 5157TIP3    H136962   3.572   3.825  13.874 -0.5701  0.5376 -1.1138
 5157TIP3    H236963   3.576   3.942  13.779  1.2282  1.8771  0.5723
 5158TIP3   OH236964   0.513   4.521   4.369 -0.5234 -0.3976 -0.4476
 5158TIP3    H136965   0.533   4.528   4.275  1.1600  0.3815 -0.0638
 5158TIP3    H236966   0.590   4.479   4.407 -0.4894  0.7542  0.8139
 5159TIP3   OH236967   3.418   5.540   5.464 -0.0710 -0.2441  0.1844
 5159TIP3    H136968   3.379   5.554   5.378 -1.1858  1.1519  0.8796
 5159TIP3    H236969   3.480   5.468   5.452 -1.5278 -1.2582 -1.3703
 5160TIP3   OH236970   2.365   5.745   1.456  0.8264  0.0899 -0.3851
 5160TIP3    H136971   2.340   5.838   1.456 -3.0776 -0.8950 -2.1371
 5160TIP3    H236972   2.403   5.730   1.369 -0.3652 -0.4006 -0.8252
 5161TIP3   OH236973   6.476   2.308  14.242  0.6691  0.1513  0.3755
 5161TIP3    H136974   6.539   2.327  14.312  0.2294  1.5650  0.3991
 5161TIP3    H236975   6.523   2.329  14.162  0.1121  1.5433  0.4118
 5162TIP3   OH236976   4.814   3.651   0.109  0.2629  0.0298 -0.1270
 5162TIP3    H136977   4.851   3.700   0.035 -1.2098  0.1557 -0.8005
 5162TIP3    H236978   4.772   3.717   0.163  0.3411 -0.1959  0.2067
 5163TIP3   OH236979   3.663   1.765   1.957 -1.0049 -0.4486 -0.4575
 5163TIP3    H136980   3.609   1.829   2.003  0.6243  0.7818 -0.2411
 5163TIP3    H236981   3.733   1.816   1.917  2.9175 -2.4944  3.3864
 5164TIP3   OH236982   4.257   4.707   3.863 -0.1267  0.1678  0.4242
 5164TIP3    H136983   4.233   4.691   3.954 -1.4727  1.0084  0.2303
 5164TIP3    H236984   4.186   4.668   3.812  1.2780 -1.4849 -0.3293
 5165TIP3   OH236985   1.136   3.646   2.210 -0.8171  0.2192 -0.3699
 5165TIP3    H136986   1.079   3.576   2.242 -1.1534  1.4932  1.9368
 5165TIP3    H236987   1.210   3.601   2.170 -1.5676 -1.4556  0.1023
 5166TIP3   OH236988   6.447   1.469   2.501  0.0608  0.1413  0.1941
 5166TIP3    H136989   6.471   1.377   2.493  1.6930  0.6079 -0.4889
 5166TIP3    H236990   6.526   1.517   2.474 -0.8760  1.7343  0.2218
 5167TIP3   OH236991   3.638   6.018  11.194  0.6011 -0.0300 -0.1679
 5167TIP3    H136992   3.656   6.106  11.162  0.7902 -0.1139 -0.2914
 5167TIP3    H236993   3.625   5.965  11.115  0.2088 -0.0569 -0.0892
 5168TIP3   OH236994   2.729   1.581  11.713 -0.1377 -0.3184 -0.3159
 5168TIP3    H136995   2.730   1.544  11.624 -1.1926 -1.5936  0.1826
 5168TIP3    H236996   2.641   1.616  11.723  0.4309  1.1124 -0.2804
 5169TIP3   OH236997   0.019   1.985  15.238  0.5744 -0.7789  0.3580
 5169TIP3    H136998  -0.040   2.033  15.295  0.7097 -0.1216 -0.0524
 5169TIP3    H236999  -0.029   1.975  15.155  0.5072 -1.4398  0.4676
 5170TIP3   OH237000   2.733   2.037  15.568 -0.5226  0.2590  0.5679
 5170TIP3    H137001   2.684   2.089  15.631 -0.8868  0.3772  0.1953
 5170TIP3    H237002   2.666   1.986  15.522 -0.2932  0.4033  0.0718
 5171TIP3   OH237003   2.943   5.044  10.862  0.4293  0.1844  0.0737
 5171TIP3    H137004   2.864   5.081  10.822  1.2533  1.6940 -0.1626
 5171TIP3    H237005   2.921   4.952  10.876 -1.2924  0.5334 -0.2156
 5172TIP3   OH237006   1.945   0.710   5.418  0.3917  0.0684 -0.2520
 5172TIP3    H137007   1.982   0.683   5.502 -0.1758 -1.5072 -0.4811
 5172TIP3    H237008   2.017   0.699   5.355  1.1724  2.3648  0.1782
 5173TIP3   OH237009   1.490   0.489   0.407 -0.0345  0.4053 -0.2743
 5173TIP3    H137010   1.419   0.435   0.441 -1.8270  2.2257 -1.0466
 5173TIP3    H237011   1.559   0.482   0.473 -1.6106  0.0456  1.3717
 5174TIP3   OH237012   3.904   4.474   5.131 -0.0601 -0.8380  0.0165
 5174TIP3    H137013   3.839   4.423   5.083 -0.9217 -0.1837  0.4812
 5174TIP3    H237014   3.915   4.429   5.214  2.2021 -2.5677 -1.1493
 5175TIP3   OH237015   3.149   5.827  14.570 -0.1426  0.2308  0.1907
 5175TIP3    H137016   3.143   5.909  14.618  2.0665 -0.3330  1.5204
 5175TIP3    H237017   3.203   5.849  14.494 -0.5648  0.2801 -0.0965
 5176TIP3   OH237018   4.203   4.809  16.675  0.4335  0.0710 -0.0274
 5176TIP3    H137019   4.187   4.854  16.758  0.3657 -0.4387  0.2319
 5176TIP3    H237020   4.297   4.791  16.675  0.5661  0.7290 -0.3914
 5177TIP3   OH237021   2.027   5.445   4.905 -0.5258 -0.4485 -0.5675
 5177TIP3    H137022   2.049   5.389   4.980 -1.2189 -0.0689 -0.0798
 5177TIP3    H237023   1.940   5.418   4.878 -1.6560  1.6565  0.8637
 5178TIP3   OH237024   6.134   2.049  15.576 -0.1104  0.1006  0.0394
 5178TIP3    H137025   6.062   2.065  15.515 -1.7928  0.6371  2.1118
 5178TIP3    H237026   6.195   2.121  15.560 -1.5640  1.4440  0.4783
 5179TIP3   OH237027   1.844   6.087  11.274 -0.0363 -0.1332 -0.2950
 5179TIP3    H137028   1.844   6.010  11.216  0.4145 -0.1921 -0.2135
 5179TIP3    H237029   1.913   6.070  11.337 -0.3472  0.0607  0.0973
 5180TIP3   OH237030   5.007   5.962   0.615 -0.1181 -0.4909 -0.3249
 5180TIP3    H137031   5.089   6.003   0.589 -0.2844 -0.8153 -1.3879
 5180TIP3    H237032   5.029   5.911   0.694  1.0543 -1.8066 -1.4632
 5181TIP3   OH237033   0.043   2.922  11.333  0.3527  0.2593  0.5975
 5181TIP3    H137034  -0.015   2.932  11.409 -1.1277 -1.6142 -0.2424
 5181TIP3    H237035  -0.013   2.940  11.258  0.7091 -1.9822 -0.2499
 5182TIP3   OH237036   2.054   5.341   5.524  0.6465  0.4083  0.2626
 5182TIP3    H137037   2.063   5.420   5.577 -0.4304  0.3511  0.5437
 5182TIP3    H237038   2.020   5.275   5.585  1.2529 -0.1888 -0.0412
 5183TIP3   OH237039   3.720   3.082   3.577  0.0535 -0.4104 -0.3815
 5183TIP3    H137040   3.691   3.023   3.507  2.8279  0.0134 -1.9740
 5183TIP3    H237041   3.815   3.067   3.582  0.6372  3.1308 -0.0713
 5184TIP3   OH237042   2.060   5.274  15.537  0.5871  0.2801  0.4842
 5184TIP3    H137043   2.015   5.332  15.476  1.3823  1.2646  0.8261
 5184TIP3    H237044   2.000   5.200  15.548  0.0946  0.4540 -0.8878
 5185TIP3   OH237045   5.833   1.148   4.219 -0.5623 -0.0545 -0.2105
 5185TIP3    H137046   5.879   1.157   4.135  0.7098 -0.7591  0.4039
 5185TIP3    H237047   5.794   1.235   4.234 -0.8184  0.0761 -1.5307
 5186TIP3   OH237048   6.618   3.036  15.792  0.4856 -0.4347 -0.2844
 5186TIP3    H137049   6.673   2.968  15.752  0.6872  0.7154 -1.9956
 5186TIP3    H237050   6.671   3.115  15.788 -0.6852  0.3528 -0.5390
 5187TIP3   OH237051   5.859   5.431   3.698  0.3776 -0.2855 -0.6977
 5187TIP3    H137052   5.870   5.433   3.793 -1.9066  0.5204 -0.4254
 5187TIP3    H237053   5.924   5.493   3.665  0.3040  0.3996  0.4223
 5188TIP3   OH237054   4.861   2.517  13.756 -0.3187 -1.4408  0.4976
 5188TIP3    H137055   4.884   2.425  13.746  0.8790 -1.1418  0.4772
 5188TIP3    H237056   4.771   2.522  13.724  0.1139 -2.3133 -0.9073
 5189TIP3   OH237057   5.276   3.697   0.214 -0.1931  0.3566  0.5901
 5189TIP3    H137058   5.203   3.704   0.153 -1.8894 -0.5194  2.4632
 5189TIP3    H237059   5.330   3.774   0.196 -0.1228 -0.4018 -2.6506
 5190TIP3   OH237060   5.611   3.000  12.723 -0.2764  0.4574  0.0745
 5190TIP3    H137061   5.547   3.018  12.654 -0.1732 -0.6470 -0.3013
 5190TIP3    H237062   5.694   3.032  12.688 -0.5743  1.7270  0.4911
 5191TIP3   OH237063   5.094   1.023  13.587 -0.1697 -0.2744 -0.3460
 5191TIP3    H137064   5.173   1.017  13.641 -0.7072 -0.2101  0.4671
 5191TIP3    H237065   5.067   0.932  13.576 -1.1459 -0.1929  1.1562
 5192TIP3   OH237066   0.686   2.740  13.740 -0.4096  0.1682 -0.5072
 5192TIP3    H137067   0.642   2.787  13.811  2.2073  1.1209  0.5408
 5192TIP3    H237068   0.742   2.806  13.698  3.5387 -1.9626  1.1514
 5193TIP3   OH237069   2.816   2.034   3.985  0.6888  0.5509  0.2639
 5193TIP3    H137070   2.804   2.044   3.891  0.9507 -0.9379  0.0594
 5193TIP3    H237071   2.732   2.004   4.018  1.5378 -2.2279 -0.0130
 5194TIP3   OH237072   5.039   3.168  15.038  0.6304  0.2647  0.3440
 5194TIP3    H137073   5.097   3.202  14.971 -1.4123  2.3013 -0.4760
 5194TIP3    H237074   5.049   3.228  15.112 -0.7391  0.9195  0.0199
 5195TIP3   OH237075   2.594   5.655   4.167  0.0729 -0.0321 -0.1977
 5195TIP3    H137076   2.631   5.646   4.080 -1.1701  1.7989 -0.9379
 5195TIP3    H237077   2.668   5.682   4.222 -0.0690  3.3429 -1.6047
 5196TIP3   OH237078   4.493   0.677   4.565 -0.2450  0.1091  0.0905
 5196TIP3    H137079   4.539   0.716   4.490 -1.1842  0.5131 -0.2896
 5196TIP3    H237080   4.531   0.589   4.573  0.8029  0.5483 -0.0171
 5197TIP3   OH237081   6.814   4.234   1.151  0.2927  0.5790  0.0063
 5197TIP3    H137082   6.853   4.318   1.174  1.1041  0.5807 -1.2984
 5197TIP3    H237083   6.878   4.169   1.180 -0.3846  0.3940  1.1127
 5198TIP3   OH237084   3.811   3.013  14.579  0.2531  0.1280 -0.4071
 5198TIP3    H137085   3.850   3.094  14.546 -0.8690  0.7556 -0.2162
 5198TIP3    H237086   3.755   2.982  14.508  0.7103 -0.5025 -0.4961
 5199TIP3   OH237087   0.135   0.832   4.942  0.0040  0.0875 -0.2897
 5199TIP3    H137088   0.052   0.877   4.956  0.5599  1.0527 -0.0849
 5199TIP3    H237089   0.167   0.811   5.030  0.1574  0.0488 -0.3537
 5200TIP3   OH237090   1.320   2.386  14.139  0.5349  0.3248  0.0477
 5200TIP3    H137091   1.332   2.329  14.215 -0.6343  0.9268  0.6918
 5200TIP3    H237092   1.404   2.429  14.128  0.6854  0.2964  1.0540
 5201TIP3   OH237093   5.514   0.409   1.129  0.1200  1.0298  0.6344
 5201TIP3    H137094   5.463   0.490   1.125  1.8032  2.1637  1.8115
 5201TIP3    H237095   5.484   0.359   1.053 -1.2693  2.5513  0.1497
 5202TIP3   OH237096   4.304   6.075   0.475 -0.1160  0.0309  0.1856
 5202TIP3    H137097   4.240   6.144   0.456  1.1233  1.2785  0.4364
 5202TIP3    H237098   4.368   6.082   0.404  0.1885 -0.6790  0.3831
 5203TIP3   OH237099   1.713   4.075  10.481  0.1050  0.0668  0.4119
 5203TIP3    H137100   1.786   4.055  10.423 -0.1875 -0.4305  0.2087
 5203TIP3    H237101   1.678   4.158  10.447  2.1554  1.6599  2.0798
 5204TIP3   OH237102   0.067   4.851   2.889  0.3085  0.5743 -0.3166
 5204TIP3    H137103   0.107   4.924   2.935  1.8629 -1.0396  1.0056
 5204TIP3    H237104   0.013   4.807   2.955  2.2311 -1.5139 -0.0591
 5205TIP3   OH237105   0.124   3.270  11.055 -0.4110  0.1826 -0.5753
 5205TIP3    H137106   0.092   3.341  11.000 -0.4720  0.5329 -0.0823
 5205TIP3    H237107   0.209   3.247  11.018  1.4588  3.1859  1.6759
 5206TIP3   OH237108   2.585   3.563   5.560 -0.6627  0.0037 -0.2722
 5206TIP3    H137109   2.500   3.543   5.601 -0.2742  0.0973  0.5924
 5206TIP3    H237110   2.599   3.492   5.498 -0.0473 -1.5864  1.6157
 5207TIP3   OH237111   2.501   2.480  13.363 -0.0442 -0.5316  0.0069
 5207TIP3    H137112   2.425   2.429  13.389 -0.0376 -0.0363  1.0225
 5207TIP3    H237113   2.471   2.534  13.290 -0.1487 -1.7026 -0.8252
 5208TIP3   OH237114   0.459   3.756  11.290  0.3171  0.3224  0.2015
 5208TIP3    H137115   0.452   3.661  11.301 -0.0158  0.4817  1.4495
 5208TIP3    H237116   0.368   3.786  11.290  0.4063  0.5928 -0.6413
 5209TIP3   OH237117   0.148   1.547  12.865 -0.5333 -0.0140 -0.9752
 5209TIP3    H137118   0.097   1.586  12.936  0.1868  1.2398 -1.1470
 5209TIP3    H237119   0.217   1.611  12.846 -0.5795 -0.4378 -2.6479
 5210TIP3   OH237120   0.067   3.944  16.423 -0.1464  0.8278  0.2717
 5210TIP3    H137121   0.124   3.959  16.498 -0.7846  2.3802  0.4815
 5210TIP3    H237122   0.099   3.864  16.383  3.4718  2.7063 -0.8065
 5211TIP3   OH237123   4.004   1.551   2.298  0.2594 -0.6221  0.0587
 5211TIP3    H137124   4.002   1.490   2.372  0.3376  0.7832  1.2655
 5211TIP3    H237125   3.931   1.611   2.315  1.0300  0.4504 -0.3415
 5212TIP3   OH237126   6.534   1.566  14.857 -0.0883  0.4639 -0.7352
 5212TIP3    H137127   6.557   1.658  14.871  0.6013  0.2078 -0.1732
 5212TIP3    H237128   6.448   1.557  14.899 -1.7660  1.6875 -3.7936
 5213TIP3   OH237129   5.613   5.383  14.693  0.5303  0.4684 -0.0488
 5213TIP3    H137130   5.560   5.355  14.618 -0.4555  1.6257  0.1907
 5213TIP3    H237131   5.670   5.452  14.657 -0.4351  1.5165  0.4023
 5214TIP3   OH237132   6.060   0.229  11.654  0.1835 -0.0520 -0.8620
 5214TIP3    H137133   6.140   0.179  11.635 -0.9327 -1.9550 -0.6643
 5214TIP3    H237134   6.058   0.235  11.750  0.2635  0.3045 -0.8814
 5215TIP3   OH237135   0.228   6.549   0.321 -0.0802  0.2090  0.6095
 5215TIP3    H137136   0.319   6.560   0.295  0.4957  1.4975  3.0209
 5215TIP3    H237137   0.178   6.597   0.254  1.0860  0.4641 -0.0945
 5216TIP3   OH237138   0.774   5.967   3.493 -0.0149  0.5590 -0.6225
 5216TIP3    H137139   0.775   6.038   3.557 -0.8912  1.8901 -2.0297
 5216TIP3    H237140   0.681   5.952   3.475  0.0998 -1.8242  0.5611
 5217TIP3   OH237141   2.638   3.815   1.420 -0.5094  0.1264  0.3305
 5217TIP3    H137142   2.720   3.807   1.372 -0.5685 -0.6888  0.3583
 5217TIP3    H237143   2.621   3.727   1.454 -1.7013  0.1390 -0.1896
 5218TIP3   OH237144   3.600   3.548   3.461 -0.6589 -0.4938 -0.2318
 5218TIP3    H137145   3.693   3.528   3.446 -0.4171  0.0968  0.4393
 5218TIP3    H237146   3.581   3.621   3.402 -0.3877  0.1394  0.4548
 5219TIP3   OH237147   5.946   1.355  15.741  0.0211  0.2846  0.3691
 5219TIP3    H137148   6.031   1.327  15.706 -0.0994  1.8804 -1.2787
 5219TIP3    H237149   5.905   1.274  15.771  1.1569 -0.8234 -0.9776
 5220TIP3   OH237150   1.621   1.049   4.747  0.4670  0.1217  0.2680
 5220TIP3    H137151   1.686   1.041   4.678 -0.5716  0.4349 -0.7694
 5220TIP3    H237152   1.600   1.143   4.750 -0.0243  0.0067  0.5063
 5221TIP3   OH237153   1.993   6.512   4.486 -0.0270  0.2142 -0.0223
 5221TIP3    H137154   1.984   6.585   4.424  0.3720  0.4026  0.1371
 5221TIP3    H237155   1.911   6.465   4.480 -0.4087  0.8532  0.0890
 5222TIP3   OH237156   0.844   2.611  11.811 -0.0471  0.3020  0.2339
 5222TIP3    H137157   0.916   2.667  11.781  0.7542  0.1241  1.7708
 5222TIP3    H237158   0.864   2.525  11.774  1.4682 -0.1512  2.0228
 5223TIP3   OH237159   2.955   5.758   5.974  0.1837 -0.0049  0.1457
 5223TIP3    H137160   2.965   5.847   6.006 -0.0933  0.8367 -2.0286
 5223TIP3    H237161   2.866   5.733   5.998 -0.0900  0.6951 -0.1274
 5224TIP3   OH237162   4.244   5.801  16.713 -0.5097 -0.3746 -0.0617
 5224TIP3    H137163   4.314   5.792  16.648  2.2679 -0.7837  2.8564
 5224TIP3    H237164   4.192   5.722  16.704 -0.3646 -0.2633 -2.0187
 5225TIP3   OH237165   3.556   4.588   2.067  0.0788  0.4189  0.0269
 5225TIP3    H137166   3.590   4.498   2.077  0.8054  0.6242 -0.5714
 5225TIP3    H237167   3.598   4.637   2.137 -0.8614  0.1454  0.7946
 5226TIP3   OH237168   4.142   6.177   0.004 -0.5484  0.0755 -0.1695
 5226TIP3    H137169   4.186   6.234   0.067 -1.8322  1.3022 -0.3523
 5226TIP3    H237170   4.073   6.232  -0.034 -0.2848 -0.8841 -2.0924
 5227TIP3   OH237171   4.266   0.113   2.401 -0.1907 -0.6241 -0.3142
 5227TIP3    H137172   4.266   0.180   2.470 -1.1175 -1.6181  0.6746
 5227TIP3    H237173   4.355   0.115   2.366  0.5865 -0.7785  1.5878
 5228TIP3   OH237174   5.587   5.742   3.142 -0.3051 -0.0740  0.2154
 5228TIP3    H137175   5.560   5.829   3.172  0.7543  0.1990  0.3919
 5228TIP3    H237176   5.526   5.722   3.071  0.4908  1.5487 -0.9622
 5229TIP3   OH237177   3.555   3.285  12.249  0.3774  0.5277  0.3888
 5229TIP3    H137178   3.545   3.200  12.293  1.7215  0.6478  0.9467
 5229TIP3    H237179   3.475   3.294  12.197  0.9392 -1.8120 -0.9430
 5230TIP3   OH237180   3.553   6.176   4.698  0.1242 -0.1157 -0.3090
 5230TIP3    H137181   3.544   6.083   4.679 -0.4036 -0.4630  1.5703
 5230TIP3    H237182   3.630   6.181   4.755 -0.3890  0.4916  0.3348
 5231TIP3   OH237183   5.338   1.928  11.928 -0.2466 -0.3132  0.4311
 5231TIP3    H137184   5.394   1.862  11.888 -2.3165 -2.1981  0.5506
 5231TIP3    H237185   5.355   1.920  12.022  1.0781  0.8249  0.3049
 5232TIP3   OH237186   3.447   4.255  10.697  0.6365 -0.1870 -0.3762
 5232TIP3    H137187   3.520   4.287  10.750  0.4328  0.6643 -0.6044
 5232TIP3    H237188   3.469   4.283  10.608 -1.3280  2.5728 -0.0516
 5233TIP3   OH237189   2.495   4.218  14.864 -0.0685 -0.2253  0.0085
 5233TIP3    H137190   2.519   4.196  14.954  0.8202 -0.7657 -0.3566
 5233TIP3    H237191   2.444   4.299  14.872  1.2531  0.5429  0.8543
 5234TIP3   OH237192   2.105   1.854  16.623 -0.5569 -0.5938  0.6564
 5234TIP3    H137193   2.162   1.931  16.624 -0.9559 -0.2492 -1.2434
 5234TIP3    H237194   2.097   1.831  16.530 -1.9492 -1.8015  1.0515
 5235TIP3   OH237195   6.738   3.562   0.438 -0.0714 -0.0592 -0.2797
 5235TIP3    H137196   6.657   3.560   0.490 -0.2572  0.2994 -0.5502
 5235TIP3    H237197   6.711   3.533   0.351  0.2660 -0.7816 -0.1463
 5236TIP3   OH237198   1.048   4.993  14.155  0.3760 -0.2812  0.5684
 5236TIP3    H137199   1.015   5.034  14.075  1.2683  0.2275  0.4520
 5236TIP3    H237200   1.007   5.042  14.226 -0.4044 -0.7214  0.4284
 5237TIP3   OH237201   4.914   5.690   0.770  0.3340 -0.5674  0.0559
 5237TIP3    H137202   4.855   5.689   0.845  0.9566 -0.6555  0.5453
 5237TIP3    H237203   4.967   5.611   0.780  1.0256 -0.1176  0.0097
 5238TIP3   OH237204   6.261   6.318   3.495  0.0939  0.0825  0.5991
 5238TIP3    H137205   6.181   6.346   3.541 -0.1184  1.5200 -0.5863
 5238TIP3    H237206   6.276   6.387   3.430  2.4955 -0.0138  1.0117
 5239TIP3   OH237207   6.406   0.007  16.445 -0.8497  0.2787  0.2670
 5239TIP3    H137208   6.350   0.008  16.368 -1.8778  0.0472  1.0018
 5239TIP3    H237209   6.420  -0.086  16.464 -1.1678  0.3325  0.7688
 5240TIP3   OH237210   4.802   2.726   0.390 -0.1412  0.2198  0.2149
 5240TIP3    H137211   4.864   2.664   0.352 -0.0361 -0.5879  1.6827
 5240TIP3    H237212   4.802   2.800   0.329  0.6756 -0.6789 -0.8932
 5241TIP3   OH237213   1.713   4.762   0.544  0.7004  0.3115  0.6714
 5241TIP3    H137214   1.756   4.748   0.459  0.5546 -0.0711  0.6620
 5241TIP3    H237215   1.767   4.828   0.587  1.0463  0.1591  0.4733
 5242TIP3   OH237216   0.398   4.228  14.285 -0.2386 -0.1297  0.4379
 5242TIP3    H137217   0.480   4.267  14.252  0.4929 -1.7376  0.3337
 5242TIP3    H237218   0.345   4.304  14.310  1.5445  0.9334  1.1395
 5243TIP3   OH237219   1.421   1.947  15.736  0.0783  0.6813 -0.3071
 5243TIP3    H137220   1.443   1.924  15.826 -0.3142  0.9537 -0.1442
 5243TIP3    H237221   1.491   1.906  15.684  0.5486  0.8859  0.1515
 5244TIP3   OH237222   3.950   2.463  15.203  0.2300  0.3879 -0.2380
 5244TIP3    H137223   3.867   2.505  15.179 -0.1296  0.0737  0.4394
 5244TIP3    H237224   4.000   2.461  15.122 -1.0286 -0.7773 -1.0103
 5245TIP3   OH237225   2.877   4.308   3.573 -0.3570 -0.6842  0.1263
 5245TIP3    H137226   2.901   4.398   3.597 -1.4156 -0.3742  0.0547
 5245TIP3    H237227   2.831   4.274   3.650 -0.8059 -0.8265 -0.1958
 5246TIP3   OH237228   0.972   5.526  15.021  0.0636 -0.0949  0.2420
 5246TIP3    H137229   0.960   5.617  14.995 -0.1370  0.0263  0.7583
 5246TIP3    H237230   0.887   5.485  15.007  0.8061 -0.8236 -2.4294
 5247TIP3   OH237231   4.230   0.692   4.420  0.3607 -0.3502 -0.6097
 5247TIP3    H137232   4.297   0.677   4.487  0.6421 -1.3930 -1.1004
 5247TIP3    H237233   4.277   0.733   4.347  1.0915 -3.5137 -2.0287
 5248TIP3   OH237234   3.150   3.072   6.372  0.3046  0.3954 -0.1683
 5248TIP3    H137235   3.065   3.112   6.393 -0.2565 -0.4643 -0.7704
 5248TIP3    H237236   3.213   3.143   6.382 -0.1991  0.5584  2.3972
 5249TIP3   OH237237   5.488   0.211  14.427 -0.0502  0.3374  0.0664
 5249TIP3    H137238   5.582   0.207  14.411 -0.3840 -1.0998 -1.7279
 5249TIP3    H237239   5.449   0.165  14.353 -2.2849  2.4708 -0.1382
 5250TIP3   OH237240   3.216   3.070   1.365  0.3778 -0.6807 -0.0202
 5250TIP3    H137241   3.305   3.036   1.364 -0.1183 -1.9796 -1.3938
 5250TIP3    H237242   3.168   3.015   1.303 -1.9113 -1.3989  2.3255
 5251TIP3   OH237243   4.036   3.018   0.570 -0.3382  0.4795 -0.5089
 5251TIP3    H137244   3.965   2.967   0.608  0.3575  0.1763  0.4101
 5251TIP3    H237245   4.104   3.018   0.637  0.8653  0.0533 -1.7071
 5252TIP3   OH237246   4.699   4.978   5.023  0.0125 -0.6380 -0.3851
 5252TIP3    H137247   4.735   5.066   5.010 -2.5202  0.1850 -2.2242
 5252TIP3    H237248   4.775   4.920   5.017  1.5636  1.3286 -0.3217
 5253TIP3   OH237249   4.299   5.811  16.418 -0.0044 -0.0402  0.3603
 5253TIP3    H137250   4.240   5.774  16.353  0.1516  0.3006  0.0137
 5253TIP3    H237251   4.301   5.905  16.397  1.8933 -0.2709 -0.6587
 5254TIP3   OH237252   3.127   3.939  15.583  0.0799 -0.0100 -0.8322
 5254TIP3    H137253   3.128   3.916  15.676 -1.3938 -1.1627 -1.0870
 5254TIP3    H237254   3.038   3.921  15.555  0.1512  1.6345 -2.1666
 5255TIP3   OH237255   6.358   1.117   6.115  0.2208  0.0670 -0.2920
 5255TIP3    H137256   6.405   1.156   6.041 -0.8493  2.2103  0.1147
 5255TIP3    H237257   6.422   1.118   6.186  0.8325 -0.7978 -0.8080
 5256TIP3   OH237258   0.652   6.184   0.744  0.6660  0.2518 -0.3374
 5256TIP3    H137259   0.583   6.193   0.809  0.8667  2.4618 -0.4154
 5256TIP3    H237260   0.612   6.210   0.661  1.1984  0.1768 -0.6280
 5257TIP3   OH237261   2.100   0.432   2.000  0.1150 -0.1038 -0.1154
 5257TIP3    H137262   2.042   0.465   2.069  0.5183  0.3200  0.0227
 5257TIP3    H237263   2.122   0.509   1.948 -1.4029 -0.6715 -1.6350
 5258TIP3   OH237264   0.226   3.733  16.026 -0.2021  0.0947 -0.9564
 5258TIP3    H137265   0.298   3.778  16.071 -0.0483 -0.2747 -0.8333
 5258TIP3    H237266   0.258   3.720  15.937 -0.4250  0.6407 -1.1122
 5259TIP3   OH237267   2.623   3.228   1.348  0.1013  0.2788  0.2980
 5259TIP3    H137268   2.691   3.232   1.416 -0.8392  1.3953  1.2040
 5259TIP3    H237269   2.584   3.142   1.358  0.8722 -0.0803  0.2737
 5260TIP3   OH237270   4.142   4.635  17.050 -0.7849  0.3487  0.7772
 5260TIP3    H137271   4.138   4.620  17.144 -0.4514 -2.7495  0.3607
 5260TIP3    H237272   4.235   4.644  17.030 -0.9195  2.1376  0.8703
 5261TIP3   OH237273   6.074   3.767   0.416 -0.2223  0.0285 -0.8601
 5261TIP3    H137274   6.005   3.823   0.379  1.0972  1.6424 -0.9437
 5261TIP3    H237275   6.114   3.821   0.484 -0.4057 -1.6783  0.5982
 5262TIP3   OH237276   4.385   1.398   5.087 -0.0476 -0.2961 -0.0288
 5262TIP3    H137277   4.399   1.358   5.001  0.1211 -0.9418  0.2929
 5262TIP3    H237278   4.472   1.425   5.116  0.4482 -3.2008  1.4339
 5263TIP3   OH237279   2.895   0.229  10.981  0.1699 -0.1113  0.6272
 5263TIP3    H137280   2.838   0.265  10.914  0.6646  0.2197  0.3844
 5263TIP3    H237281   2.983   0.235  10.944  0.2294 -1.9014  0.4320
 5264TIP3   OH237282   6.597   0.389  13.045 -0.6748  0.2415  0.1847
 5264TIP3    H137283   6.573   0.334  13.119 -1.2760 -1.0317 -0.9366
 5264TIP3    H237284   6.522   0.386  12.986  0.3013  0.1828 -1.0886
 5265TIP3   OH237285   3.503   4.209  13.447 -0.5933 -0.1046 -0.8577
 5265TIP3    H137286   3.576   4.191  13.506 -1.0571 -3.4584 -1.1864
 5265TIP3    H237287   3.518   4.298  13.416  1.8828  0.2271  1.1487
 5266TIP3   OH237288   2.453   0.105  12.696  0.3725  0.2946  0.0306
 5266TIP3    H137289   2.359   0.096  12.710  0.2092  0.3163 -0.9729
 5266TIP3    H237290   2.473   0.193  12.727  0.1971  0.0348  0.8978
 5267TIP3   OH237291   4.666   6.661   3.320 -0.0415  0.7688  0.6512
 5267TIP3    H137292   4.734   6.716   3.358  0.8906  0.2926 -0.2910
 5267TIP3    H237293   4.659   6.690   3.229 -1.2740  0.9800  0.8034
 5268TIP3   OH237294   2.035   6.371   2.928 -0.8276 -0.2193 -0.1101
 5268TIP3    H137295   1.946   6.349   2.900 -0.6649  0.1821 -0.9508
 5268TIP3    H237296   2.030   6.463   2.955 -0.7501 -0.3017  0.1855
 5269TIP3   OH237297   0.226   5.621  11.459  0.0206 -0.1531 -0.3877
 5269TIP3    H137298   0.291   5.587  11.397  2.1520  1.5586  0.8556
 5269TIP3    H237299   0.178   5.687  11.408 -1.1652 -1.8114 -1.4742
 5270TIP3   OH237300   2.195   1.248   5.700  0.1241  0.1180 -0.6096
 5270TIP3    H137301   2.202   1.155   5.681  0.7600  0.1392 -0.4943
 5270TIP3    H237302   2.132   1.254   5.771  1.2251 -0.3583  0.4287
 5271TIP3   OH237303   4.651   5.504   0.067 -0.0332 -0.1468  0.4329
 5271TIP3    H137304   4.633   5.533   0.156 -0.9439 -0.7369  0.4520
 5271TIP3    H237305   4.664   5.585   0.018 -3.3441  0.3944  0.3170
 5272TIP3   OH237306   2.021   4.163   0.726  0.1250 -0.0828 -0.0041
 5272TIP3    H137307   1.938   4.131   0.762 -0.5485  2.6510  0.9550
 5272TIP3    H237308   2.088   4.125   0.782 -0.8465  3.0672  3.4914
 5273TIP3   OH237309   2.891   2.633   0.105  0.3175  0.1345 -0.0775
 5273TIP3    H137310   2.919   2.720   0.132 -1.3273  0.2485  1.3664
 5273TIP3    H237311   2.929   2.621   0.018  1.9852  1.5897  0.4302
 5274TIP3   OH237312   0.210   0.784   1.565 -0.1474  0.3631  0.4190
 5274TIP3    H137313   0.241   0.705   1.609 -2.3320  0.3192  1.9520
 5274TIP3    H237314   0.214   0.763   1.472  0.8741 -0.9323  0.7384
 5275TIP3   OH237315   2.050   4.637   1.712  0.1732 -0.1794  0.1363
 5275TIP3    H137316   2.052   4.632   1.807 -0.6024  1.1473  0.2337
 5275TIP3    H237317   1.959   4.617   1.689  0.5617 -1.3988 -0.3957
 5276TIP3   OH237318   1.844   4.388   4.135  0.1235  0.2182 -0.2473
 5276TIP3    H137319   1.773   4.430   4.087 -2.2234 -1.6137  1.5059
 5276TIP3    H237320   1.800   4.331   4.199  3.1589 -0.6136  1.2070
 5277TIP3   OH237321   0.585   1.748  16.433 -0.3539  0.4434 -0.6054
 5277TIP3    H137322   0.640   1.669  16.432 -0.8504  0.0759  0.2547
 5277TIP3    H237323   0.499   1.718  16.403 -0.8177  0.4344  0.6931
 5278TIP3   OH237324   6.276   4.917  14.561 -0.6817  0.1401  0.7074
 5278TIP3    H137325   6.250   4.854  14.628  0.4176 -0.5062  0.5432
 5278TIP3    H237326   6.194   4.944  14.520 -1.3684  0.5260  2.2899
 5279TIP3   OH237327   2.593   4.278  12.155 -0.3817  0.4734  0.7136
 5279TIP3    H137328   2.519   4.300  12.212  0.2213 -1.7442  2.4360
 5279TIP3    H237329   2.670   4.288  12.211  0.2321 -1.6874  0.2863
 5280TIP3   OH237330   1.710   2.344  13.188  0.6806 -0.2127  0.4247
 5280TIP3    H137331   1.636   2.399  13.215 -0.2834 -1.5484  0.5748
 5280TIP3    H237332   1.698   2.263  13.236  1.5110 -0.9380 -0.5729
 5281TIP3   OH237333   0.872   6.417   5.791 -0.4807 -0.2055  0.5722
 5281TIP3    H137334   0.950   6.415   5.735 -1.0108 -0.7933 -0.1606
 5281TIP3    H237335   0.881   6.497   5.842 -0.5290  0.9281 -1.1458
 5282TIP3   OH237336   3.244   4.212   2.199 -0.0618 -0.5639  0.0911
 5282TIP3    H137337   3.188   4.224   2.276  1.7414  2.9361  0.9798
 5282TIP3    H237338   3.295   4.133   2.219 -0.3382 -0.2903  2.0418
 5283TIP3   OH237339   1.992   2.595  11.201 -0.3845 -0.1039 -0.5165
 5283TIP3    H137340   2.028   2.598  11.290 -0.0022  0.4553 -0.6865
 5283TIP3    H237341   2.064   2.561  11.147 -1.0936 -1.8512 -0.3851
 5284TIP3   OH237342   2.930   3.956   6.160  0.1112 -0.1979  0.0999
 5284TIP3    H137343   2.956   4.029   6.215 -1.5363  0.3131  0.2460
 5284TIP3    H237344   2.835   3.950   6.171  0.1368 -1.9766 -0.3742
 5285TIP3   OH237345   2.199   0.535  12.141  0.3656  0.3108  0.0467
 5285TIP3    H137346   2.242   0.469  12.195  1.0325  0.5658 -0.1666
 5285TIP3    H237347   2.234   0.618  12.172  0.7139  0.4628 -0.7506
 5286TIP3   OH237348   6.812   2.289  14.111 -0.1958  0.0392  0.4336
 5286TIP3    H137349   6.868   2.226  14.157  2.6631  1.8448 -0.4727
 5286TIP3    H237350   6.823   2.268  14.018 -1.4537  0.0925  0.2573
 5287TIP3   OH237351   3.480   0.108   2.051 -0.1500 -0.2558 -0.3941
 5287TIP3    H137352   3.495   0.013   2.046 -2.9364 -0.7350 -0.5472
 5287TIP3    H237353   3.422   0.127   1.977  0.1595  1.5254 -0.1936
 5288TIP3   OH237354   2.742   0.818  11.718 -0.1531 -0.6023  0.2489
 5288TIP3    H137355   2.679   0.869  11.668 -1.1661 -0.3465  1.7503
 5288TIP3    H237356   2.695   0.736  11.739 -0.0488 -0.3601  1.4720
 5289TIP3   OH237357   3.978   2.272   1.131  0.2835  0.5369  0.6785
 5289TIP3    H137358   3.939   2.234   1.053 -0.6594 -0.8018  1.7670
 5289TIP3    H237359   4.066   2.300   1.103  0.0447 -0.1408 -0.7804
 5290TIP3   OH237360   5.312   4.850   2.138 -0.4552 -0.0526  0.3056
 5290TIP3    H137361   5.243   4.882   2.196 -0.0515 -0.2173  0.8792
 5290TIP3    H237362   5.384   4.912   2.149 -0.1241 -0.4702  0.5040
 5291TIP3   OH237363   3.280   5.801   3.550  0.0748  0.2294 -0.0570
 5291TIP3    H137364   3.344   5.733   3.566  0.5412  0.4936 -0.7857
 5291TIP3    H237365   3.198   5.767   3.586 -0.0068 -1.2786 -1.6061
 5292TIP3   OH237366   5.248   4.490   3.783 -0.0056 -0.0645 -0.2018
 5292TIP3    H137367   5.170   4.475   3.836  0.0776  0.6428  0.1371
 5292TIP3    H237368   5.316   4.512   3.847  0.6859 -1.5175 -0.4310
 5293TIP3   OH237369   2.864   2.818  16.955 -0.1299 -0.0637 -0.0230
 5293TIP3    H137370   2.785   2.785  16.995 -0.3296  1.6865  1.0892
 5293TIP3    H237371   2.917   2.851  17.028  0.9835  0.1066 -0.8793
 5294TIP3   OH237372   3.823   6.790   4.153 -0.0676  0.6100 -0.4023
 5294TIP3    H137373   3.844   6.711   4.104  0.1345  1.3532 -1.5154
 5294TIP3    H237374   3.883   6.856   4.119 -1.0147  1.5368 -0.2888
 5295TIP3   OH237375   2.900   4.780  16.030  0.1212  0.6399  0.4011
 5295TIP3    H137376   2.969   4.721  16.061 -0.7216 -0.0352  0.9986
 5295TIP3    H237377   2.902   4.770  15.935  0.0162 -0.3234  0.4906
 5296TIP3   OH237378   4.684   1.757   2.703  0.2957 -0.2695  0.0593
 5296TIP3    H137379   4.682   1.850   2.729 -1.9344 -0.3789  0.3282
 5296TIP3    H237380   4.676   1.759   2.608  1.2982 -0.1675 -0.0348
 5297TIP3   OH237381   1.961   5.181  15.222 -0.1798 -0.3399 -0.4191
 5297TIP3    H137382   1.966   5.259  15.277  0.2912 -0.2471 -0.5973
 5297TIP3    H237383   1.871   5.150  15.233  0.0531 -0.6124  0.8245
 5298TIP3   OH237384   3.037   4.801   5.365  0.1813  0.3345 -0.6876
 5298TIP3    H137385   2.979   4.878   5.366  0.2147  0.3584 -0.4262
 5298TIP3    H237386   2.993   4.737   5.421  0.1287  0.1423 -0.9461
 5299TIP3   OH237387   0.468   0.889  12.872 -0.2225 -0.3767 -0.0352
 5299TIP3    H137388   0.537   0.908  12.809  0.6686  1.5266  1.4701
 5299TIP3    H237389   0.390   0.931  12.836 -0.2351 -1.1902 -0.9629
 5300TIP3   OH237390   3.122   0.207  13.409  0.4043 -0.2177 -0.0182
 5300TIP3    H137391   3.217   0.213  13.411  0.3674  0.4090  0.0373
 5300TIP3    H237392   3.098   0.214  13.317  0.3451  0.8274  0.0710
 5301TIP3   OH237393   4.420   0.043   1.433  0.0139  0.4141 -0.1939
 5301TIP3    H137394   4.373   0.110   1.483  1.1037  0.7712  0.3661
 5301TIP3    H237395   4.479   0.003   1.496  1.1913  0.6582 -1.1166
 5302TIP3   OH237396   2.630   5.054  11.571  0.3951 -0.5101  0.5170
 5302TIP3    H137397   2.637   5.097  11.656 -2.0701  0.7551  0.1249
 5302TIP3    H237398   2.543   5.077  11.539  0.2937 -3.0457 -1.2301
 5303TIP3   OH237399   2.346   3.953  11.190  0.1056 -0.2942 -0.2423
 5303TIP3    H137400   2.326   3.942  11.283 -2.5669 -0.2747 -0.7623
 5303TIP3    H237401   2.368   4.045  11.180 -0.5100 -0.0958  0.2166
 5304TIP3   OH237402   1.516   2.525  13.265  0.0149 -0.3468  0.5309
 5304TIP3    H137403   1.557   2.518  13.352  0.4773 -0.0127  0.3414
 5304TIP3    H237404   1.454   2.597  13.274  1.3200  0.8709  0.1011
 5305TIP3   OH237405   6.486   5.380  12.586 -0.5726  0.1715 -0.2942
 5305TIP3    H137406   6.580   5.364  12.596 -0.5175 -0.0924 -1.1813
 5305TIP3    H237407   6.445   5.315  12.642 -0.2552 -0.7051 -1.0541
 5306TIP3   OH237408   0.411   0.748  17.227  0.0726  0.4218 -0.2753
 5306TIP3    H137409   0.362   0.830  17.237  0.6189  0.8457 -0.9961
 5306TIP3    H237410   0.440   0.749  17.136  0.8571 -0.1446 -0.0372
 5307TIP3   OH237411   5.653   5.744   0.951 -0.2277  0.2615 -0.3142
 5307TIP3    H137412   5.728   5.769   0.897 -0.8791 -0.8612 -1.7644
 5307TIP3    H237413   5.666   5.792   1.033  1.3630  1.1238 -1.0413
 5308TIP3   OH237414   0.635   1.608   0.098  0.1519 -0.2563  0.0759
 5308TIP3    H137415   0.653   1.518   0.127  0.0801 -0.2691  0.0810
 5308TIP3    H237416   0.633   1.601   0.002 -1.8359 -0.6542  0.1098
 5309TIP3   OH237417   3.553   4.714  12.947  0.2935  0.8690 -0.2866
 5309TIP3    H137418   3.539   4.724  13.041  0.6329 -1.1927 -0.0125
 5309TIP3    H237419   3.648   4.704  12.938  0.0357 -1.6196 -0.5682
 5310TIP3   OH237420   2.828   1.207   0.616 -0.3869 -0.7054 -0.1169
 5310TIP3    H137421   2.750   1.254   0.646 -0.4645 -0.6198 -0.4492
 5310TIP3    H237422   2.828   1.126   0.666  1.3460  0.8900  2.6144
 5311TIP3   OH237423   6.714   6.619  12.002 -0.4180  0.2854  0.5287
 5311TIP3    H137424   6.742   6.711  12.007  0.5212  0.2324 -2.5767
 5311TIP3    H237425   6.787   6.569  12.038  0.8632  0.5551 -1.5864
 5312TIP3   OH237426   4.492   6.327   1.020  0.6805 -0.2466  0.0610
 5312TIP3    H137427   4.564   6.367   0.973  1.0121 -0.0904  0.7015
 5312TIP3    H237428   4.464   6.255   0.964  1.4437 -0.4112 -0.1148
 5313TIP3   OH237429   2.570   0.774  16.032 -0.2145  0.0525  0.5276
 5313TIP3    H137430   2.531   0.836  16.093 -0.8313 -0.2126  0.4116
 5313TIP3    H237431   2.650   0.816  16.001 -1.7811  1.7955 -1.2927
 5314TIP3   OH237432   5.040   4.738  14.429 -0.0593 -0.6220  0.5503
 5314TIP3    H137433   5.056   4.799  14.357  0.9891  0.8187  1.9615
 5314TIP3    H237434   5.059   4.652  14.392  1.9246  0.2341 -0.4896
 5315TIP3   OH237435   3.609   6.170  14.642  0.3488  0.2929 -0.1148
 5315TIP3    H137436   3.548   6.180  14.569  0.6715  1.7735 -0.2000
 5315TIP3    H237437   3.694   6.196  14.606  0.5886  0.6119  0.6677
 5316TIP3   OH237438   0.115   0.914   2.567 -0.1138  0.4004  0.2303
 5316TIP3    H137439   0.030   0.923   2.525 -0.5842 -0.0766  1.0687
 5316TIP3    H237440   0.097   0.923   2.660  0.7836  0.4965  0.4005
 5317TIP3   OH237441   3.202   0.955  10.699  0.0178 -0.5639 -0.0025
 5317TIP3    H137442   3.196   1.050  10.710 -1.8312 -0.5365 -1.1931
 5317TIP3    H237443   3.177   0.940  10.608 -1.3365 -2.3436  0.6522
 5318TIP3   OH237444   0.545   3.180   0.436 -0.1647 -0.2582 -0.3343
 5318TIP3    H137445   0.634   3.175   0.402 -0.0066 -0.4835  0.1045
 5318TIP3    H237446   0.504   3.098   0.410 -0.2979 -0.0858 -0.6769
 5319TIP3   OH237447   6.489   6.000  17.113  0.3095  0.2057 -0.1054
 5319TIP3    H137448   6.563   5.944  17.135  0.1971  0.3011  0.5495
 5319TIP3    H237449   6.416   5.963  17.163 -0.2533 -0.3069 -1.2807
 5320TIP3   OH237450   3.274   0.854   1.709 -0.3802 -0.1707 -0.0465
 5320TIP3    H137451   3.207   0.885   1.648 -1.0451 -0.9732  0.2674
 5320TIP3    H237452   3.233   0.862   1.796  0.8997  1.8852  0.4022
 5321TIP3   OH237453   0.403   1.390   2.932  0.0014  0.2288  0.3034
 5321TIP3    H137454   0.418   1.368   3.024  0.4109 -0.4085  0.0813
 5321TIP3    H237455   0.491   1.396   2.894 -0.1466  0.9469  0.0540
 5322TIP3   OH237456   2.579   3.461   1.688 -0.3091  0.2749 -0.1724
 5322TIP3    H137457   2.558   3.372   1.661  0.2043 -0.2542  1.1732
 5322TIP3    H237458   2.532   3.516   1.626 -0.5417 -0.9256 -1.0809
 5323TIP3   OH237459   3.141   0.940  11.919  0.4307 -0.8070  0.1222
 5323TIP3    H137460   3.154   0.926  11.825  0.7976  0.2508  0.0115
 5323TIP3    H237461   3.092   1.021  11.925 -1.7199 -2.1197  0.7633
 5324TIP3   OH237462   3.936   1.612   0.499 -0.3136 -0.2610  0.2443
 5324TIP3    H137463   3.946   1.620   0.594  0.5290  0.2235  0.1181
 5324TIP3    H237464   3.857   1.663   0.479 -0.2785 -0.0518  0.6337
 5325TIP3   OH237465   6.253   6.146  12.260 -0.1246 -0.5837  0.0501
 5325TIP3    H137466   6.220   6.196  12.186  0.0731  0.6915  0.8044
 5325TIP3    H237467   6.346   6.169  12.264 -0.6699  1.4851  2.3032
 5326TIP3   OH237468   4.709   0.728  16.287 -0.3146  0.1886  0.2328
 5326TIP3    H137469   4.618   0.737  16.259 -0.4261 -0.0215  0.5294
 5326TIP3    H237470   4.717   0.636  16.313 -0.1575  0.3340  0.7009
 5327TIP3   OH237471   1.355   2.782  11.856  0.5330  0.2781 -0.7428
 5327TIP3    H137472   1.348   2.699  11.810  1.8632  0.3883 -1.1749
 5327TIP3    H237473   1.336   2.848  11.790 -0.2559  0.3354 -0.4659
 5328TIP3   OH237474   4.420   4.488   5.236  0.0953  0.2186 -0.7677
 5328TIP3    H137475   4.380   4.408   5.272  1.5463 -0.1549  0.0787
 5328TIP3    H237476   4.505   4.494   5.281  0.8330  1.1822 -2.2528
 5329TIP3   OH237477   0.605   4.284  16.370 -0.0734  0.2441  0.2233
 5329TIP3    H137478   0.510   4.280  16.361  0.0022 -0.2080 -0.4611
 5329TIP3    H237479   0.620   4.324  16.455 -0.8858  2.1163 -0.4866
 5330TIP3   OH237480   3.912   5.744  13.314 -0.1913  0.3107 -0.0763
 5330TIP3    H137481   3.982   5.740  13.380  0.1995 -0.3941 -0.5316
 5330TIP3    H237482   3.856   5.815  13.345 -0.4776 -0.5579  1.4768
 5331TIP3   OH237483   6.264   5.978  13.350 -0.2208  0.5197 -0.3919
 5331TIP3    H137484   6.171   5.989  13.331  0.0477  1.1443 -1.3526
 5331TIP3    H237485   6.292   6.063  13.384 -0.1932  0.0731  0.7203
 5332TIP3   OH237486   6.097   2.952   2.334  0.5941  0.2352  0.3053
 5332TIP3    H137487   6.104   2.893   2.258  0.2570 -0.0781  0.5155
 5332TIP3    H237488   6.078   3.038   2.296  0.9516  0.1838  0.0037
 5333TIP3   OH237489   5.608   4.786   4.616 -0.0825  0.0223  0.5750
 5333TIP3    H137490   5.698   4.813   4.599  0.1048  0.2952  1.9049
 5333TIP3    H237491   5.556   4.826   4.547  0.4396  2.2945  1.4594
 5334TIP3   OH237492   3.979   5.661  17.212  0.2481 -0.4029  0.2492
 5334TIP3    H137493   3.931   5.682  17.292 -0.8596 -2.2133  0.0828
 5334TIP3    H237494   4.024   5.579  17.232  1.2125 -0.0618 -0.4741
 5335TIP3   OH237495   5.490   5.597   3.835  0.0524 -0.6886 -0.1018
 5335TIP3    H137496   5.534   5.662   3.779 -1.4488  1.3888  1.0508
 5335TIP3    H237497   5.551   5.582   3.907 -0.3135  0.8397  0.5623
 5336TIP3   OH237498   2.719   1.582   1.817  0.0186 -0.3428  0.4738
 5336TIP3    H137499   2.684   1.493   1.819 -1.2950  0.1285 -0.2774
 5336TIP3    H237500   2.734   1.600   1.724 -0.1657  0.3780  0.5741
 5337TIP3   OH237501   4.501   5.372   1.969 -0.4356 -0.1459 -0.1751
 5337TIP3    H137502   4.585   5.349   1.930 -0.0544 -1.0744  1.1493
 5337TIP3    H237503   4.437   5.354   1.901  0.4282  0.4332 -1.1431
 5338TIP3   OH237504   6.711   2.138   3.899 -0.1693 -0.3529 -0.6376
 5338TIP3    H137505   6.804   2.128   3.922 -0.1814  0.5104 -0.2259
 5338TIP3    H237506   6.708   2.213   3.840 -0.8591  0.8450  0.8964
 5339TIP3   OH237507   6.106   1.287   5.944  0.2316 -0.4338  0.2795
 5339TIP3    H137508   6.077   1.201   5.974  0.0318 -0.6109 -0.4260
 5339TIP3    H237509   6.117   1.278   5.849  0.4356  0.2494  0.2318
 5340TIP3   OH237510   2.307   1.321  15.914  0.1772 -0.0572  1.0052
 5340TIP3    H137511   2.298   1.339  15.820  1.0944  1.1802  1.1345
 5340TIP3    H237512   2.367   1.246  15.919  2.5653  1.7648  0.6681
 5341TIP3   OH237513   0.307   4.960   0.241 -0.4824 -0.2291 -0.4025
 5341TIP3    H137514   0.304   4.883   0.184 -0.2228 -0.4641 -0.1000
 5341TIP3    H237515   0.337   5.031   0.184  1.6711 -0.8661 -0.1298
 5342TIP3   OH237516   2.372   2.855   3.381 -0.0419  0.1044  0.6189
 5342TIP3    H137517   2.462   2.878   3.356 -0.0965  1.6632  1.7996
 5342TIP3    H237518   2.337   2.809   3.305  1.8609 -0.7973  0.2726
 5343TIP3   OH237519   5.203   5.782   6.386 -0.2957 -0.3504 -0.8884
 5343TIP3    H137520   5.204   5.863   6.438  1.2850 -1.0233  0.1658
 5343TIP3    H237521   5.112   5.751   6.393 -0.4617  0.3258  0.2883
 5344TIP3   OH237522   3.099   1.285   6.391  0.0370 -0.4547  0.1756
 5344TIP3    H137523   3.030   1.218   6.389 -0.5790  0.1647  0.2206
 5344TIP3    H237524   3.165   1.250   6.451 -0.3518 -0.9524  0.3173
 5345TIP3   OH237525   5.726   3.621   1.110 -0.2162  0.0116 -0.2055
 5345TIP3    H137526   5.783   3.579   1.046 -1.1918 -2.3862  0.4245
 5345TIP3    H237527   5.765   3.598   1.195 -0.8878  0.2135  0.1612
 5346TIP3   OH237528   2.552   0.607  12.262  0.6053 -0.5735  0.1978
 5346TIP3    H137529   2.548   0.681  12.202  0.7436 -0.8299 -0.1292
 5346TIP3    H237530   2.476   0.617  12.319 -0.6166 -1.3837 -1.2393
 5347TIP3   OH237531   5.593   6.196   6.030 -0.3594 -0.0594 -0.2328
 5347TIP3    H137532   5.571   6.278   5.985  1.5069  0.6631  0.1193
 5347TIP3    H237533   5.539   6.197   6.109 -0.6776  0.6120 -0.4535
 5348TIP3   OH237534   2.791   0.712   0.327 -0.3732  0.0263  0.5810
 5348TIP3    H137535   2.712   0.761   0.348 -0.5377  0.4246 -0.9178
 5348TIP3    H237536   2.759   0.624   0.303 -0.6259  0.8604 -2.3749
 5349TIP3   OH237537   4.636   6.803   4.505  0.7769 -0.1034 -0.2206
 5349TIP3    H137538   4.559   6.859   4.509 -0.2417 -1.5277  0.7645
 5349TIP3    H237539   4.674   6.808   4.593  1.4739  0.1309 -0.5336
 5350TIP3   OH237540   0.934   5.837  16.068  0.1312  0.2233 -0.3580
 5350TIP3    H137541   0.953   5.766  16.007 -1.1231 -0.0906 -0.3884
 5350TIP3    H237542   0.955   5.917  16.020 -0.1556 -0.0529 -0.9473
 5351TIP3   OH237543   2.443   1.363  11.961  0.3021 -0.0574 -0.2739
 5351TIP3    H137544   2.506   1.338  11.893  0.1482 -0.5131 -0.2506
 5351TIP3    H237545   2.368   1.397  11.912  0.4884  0.3061 -0.3093
 5352TIP3   OH237546   0.512   3.332  13.957 -0.4908  0.1562 -0.3901
 5352TIP3    H137547   0.534   3.244  13.926 -1.9693  0.1196 -1.3850
 5352TIP3    H237548   0.540   3.332  14.049 -1.8166 -1.8721  0.0558
 5353TIP3   OH237549   4.178   4.685   4.426 -0.0188 -0.3399  0.7719
 5353TIP3    H137550   4.208   4.726   4.345  0.4413 -0.1946  1.0139
 5353TIP3    H237551   4.168   4.592   4.404 -0.1207 -0.2628  0.4856
 5354TIP3   OH237552   6.786   1.318   0.724  0.6230 -0.4386  0.4950
 5354TIP3    H137553   6.738   1.275   0.795  1.5986 -1.9412  0.2629
 5354TIP3    H237554   6.797   1.408   0.754 -1.5145 -0.2955  0.9657
 5355TIP3   OH237555   4.860   2.043   6.244  0.1718  0.2023 -0.3289
 5355TIP3    H137556   4.778   2.080   6.209 -0.7053 -0.2957  1.1486
 5355TIP3    H237557   4.898   2.115   6.294  1.0379  0.6699 -1.6242
 5356TIP3   OH237558   3.879   4.982  13.578 -0.4848 -0.0535 -0.4422
 5356TIP3    H137559   3.961   4.973  13.530  0.2915  1.2396  0.5983
 5356TIP3    H237560   3.879   4.910  13.640  1.5571  1.9131  1.9401
 5357TIP3   OH237561   5.614   6.579   0.799  0.0354 -0.0520  0.2771
 5357TIP3    H137562   5.534   6.528   0.810 -0.9358  1.2252 -0.8625
 5357TIP3    H237563   5.585   6.665   0.769  1.7807  0.6573  0.5561
 5358TIP3   OH237564   2.536   6.701  11.741  0.5242  0.5666 -0.2175
 5358TIP3    H137565   2.573   6.698  11.653 -0.3891  2.3271 -0.6780
 5358TIP3    H237566   2.608   6.731  11.797  0.6399  1.0916 -0.6439
 5359TIP3   OH237567   5.158   6.409   2.442 -0.1392 -0.4414  0.0460
 5359TIP3    H137568   5.077   6.447   2.476 -1.4343 -2.1895 -0.9699
 5359TIP3    H237569   5.135   6.317   2.423  1.5610 -0.4986 -1.9160
 5360TIP3   OH237570   1.872   5.619  17.061  0.6164  0.5144  0.0664
 5360TIP3    H137571   1.872   5.537  17.013  0.3300 -0.0287  0.9823
 5360TIP3    H237572   1.965   5.643  17.069  0.6716  0.5094 -0.5859
 5361TIP3   OH237573   5.887   1.631   3.183  0.3404 -0.7583 -0.6008
 5361TIP3    H137574   5.924   1.619   3.271 -2.6289 -0.8694  0.6777
 5361TIP3    H237575   5.954   1.681   3.136  1.2932  0.7553  2.2342
 5362TIP3   OH237576   4.319   4.305   0.414 -0.3979 -0.5496  0.3792
 5362TIP3    H137577   4.265   4.280   0.489  0.0345 -1.1722  0.4793
 5362TIP3    H237578   4.280   4.259   0.340 -1.7311  1.2070 -0.0599
 5363TIP3   OH237579   3.019   2.554  17.175  0.4489 -0.1670 -0.2692
 5363TIP3    H137580   2.959   2.537  17.103 -0.3104  1.4640 -0.0447
 5363TIP3    H237581   3.075   2.624  17.142 -1.5380  2.3807  1.6112
 5364TIP3   OH237582   5.763   0.626   1.234  0.0666  0.2019 -0.0577
 5364TIP3    H137583   5.857   0.618   1.255 -0.0325  1.5354  0.9795
 5364TIP3    H237584   5.719   0.587   1.309 -0.2133 -1.0930 -0.8835
 5365TIP3   OH237585   5.399   0.489  14.712  0.1638  0.1736 -0.1330
 5365TIP3    H137586   5.338   0.557  14.741 -1.1957 -0.8994 -0.3928
 5365TIP3    H237587   5.398   0.425  14.783  0.8451  0.0569 -0.2262
 5366TIP3   OH237588   2.087   5.988  13.828  0.4274 -0.1028 -0.0110
 5366TIP3    H137589   2.098   6.023  13.916  0.5500 -0.6792  0.2027
 5366TIP3    H237590   2.160   5.926  13.817  1.8727  1.7626 -1.4138
 5367TIP3   OH237591   0.931   1.342  16.538 -0.0660 -0.1852  0.8688
 5367TIP3    H137592   0.979   1.425  16.541 -1.6441  0.8309 -1.5108
 5367TIP3    H237593   0.986   1.285  16.484 -0.1701  0.0962  0.4597
 5368TIP3   OH237594   5.666   1.675   2.828 -0.6898 -0.4128  0.0917
 5368TIP3    H137595   5.627   1.588   2.815 -0.5981 -0.4168 -0.1725
 5368TIP3    H237596   5.753   1.669   2.787 -0.7866 -0.1171 -0.1567
 5369TIP3   OH237597   5.328   4.134  11.724  0.3305  0.1515 -0.5907
 5369TIP3    H137598   5.366   4.097  11.804 -1.2994  0.4943  0.3704
 5369TIP3    H237599   5.308   4.058  11.670  0.8553 -0.1206 -0.4109
 5370TIP3   OH237600   6.155   3.106  14.497  0.3877  0.9011  0.0822
 5370TIP3    H137601   6.226   3.138  14.441 -0.0260  1.0389 -0.3671
 5370TIP3    H237602   6.140   3.016  14.466 -1.1360  1.6051 -1.3355
 5371TIP3   OH237603   6.573   1.539   5.850 -0.3437  0.2018 -0.0040
 5371TIP3    H137604   6.654   1.502   5.815 -0.1055  0.2360  0.5052
 5371TIP3    H237605   6.543   1.475   5.915  0.4036  1.1762  1.3375
 5372TIP3   OH237606   2.304   2.604  17.057 -0.0290  0.3617 -0.4686
 5372TIP3    H137607   2.250   2.597  16.978 -1.5896  1.8978  0.4130
 5372TIP3    H237608   2.334   2.515  17.074 -1.4971 -0.3670 -1.5569
 5373TIP3   OH237609   1.402   2.169   1.877  0.0732  0.1691  0.4572
 5373TIP3    H137610   1.470   2.147   1.941  0.8394  1.4438  0.1159
 5373TIP3    H237611   1.412   2.105   1.807  0.3495 -0.1807  0.8170
 5374TIP3   OH237612   4.671   5.772  17.220  0.6044  0.3656 -0.1310
 5374TIP3    H137613   4.612   5.795  17.149 -0.4718  1.4395  1.0757
 5374TIP3    H237614   4.756   5.759  17.178  0.1870  1.8424 -1.4809
 5375TIP3   OH237615   1.458   6.802   0.593 -0.1992  0.8737 -0.4854
 5375TIP3    H137616   1.372   6.803   0.550 -1.4279  0.0036  1.8718
 5375TIP3    H237617   1.467   6.890   0.630  0.6854  1.4970 -2.1354
 5376TIP3   OH237618   0.010   3.127  13.066 -0.1393 -0.2729  0.1060
 5376TIP3    H137619   0.047   3.057  13.013 -2.4003 -1.5066  0.0803
 5376TIP3    H237620   0.054   3.206  13.036 -0.1912 -1.1887 -2.4601
 5377TIP3   OH237621   3.476   1.218   0.145 -0.2441  0.2332 -0.1285
 5377TIP3    H137622   3.416   1.180   0.081  1.7833  0.0480 -2.0011
 5377TIP3    H237623   3.520   1.142   0.184  1.8214  0.4517 -1.8906
 5378TIP3   OH237624   5.272   3.128   4.750 -0.5510  0.2251 -0.2994
 5378TIP3    H137625   5.344   3.130   4.687  0.0746 -0.6300  0.3890
 5378TIP3    H237626   5.208   3.068   4.711 -0.2818 -0.0974 -0.2422
 5379TIP3   OH237627   3.561   0.287  14.830  0.0684 -1.2283 -0.1770
 5379TIP3    H137628   3.489   0.258  14.774  0.3373  0.2595 -1.3254
 5379TIP3    H237629   3.616   0.209  14.842 -2.0351 -2.5511  1.2511
 5380TIP3   OH237630   5.681   2.546  12.080 -0.4605 -0.4478  0.1834
 5380TIP3    H137631   5.631   2.621  12.113 -0.5977 -1.0768  1.4014
 5380TIP3    H237632   5.671   2.551  11.985 -1.0642  0.6696  0.2961
 5381TIP3   OH237633   3.178   2.107  10.909  0.6168 -0.3498 -0.4141
 5381TIP3    H137634   3.147   2.024  10.873  1.3869 -0.6169 -0.4630
 5381TIP3    H237635   3.186   2.164  10.833 -0.2559 -0.1179 -0.3352
 5382TIP3   OH237636   4.525   4.858  15.947  0.8041 -0.2065 -0.5177
 5382TIP3    H137637   4.474   4.900  16.017  2.3670  0.5552  0.1916
 5382TIP3    H237638   4.479   4.776  15.930 -1.1826  0.8672 -0.5460
 5383TIP3   OH237639   1.663   1.497   0.518 -0.5590  0.4661 -0.2361
 5383TIP3    H137640   1.666   1.523   0.426  2.0316  3.6678  0.6225
 5383TIP3    H237641   1.590   1.546   0.555  1.8605  3.6617  0.5237
 5384TIP3   OH237642   6.251   6.645   4.915 -0.4522  0.1059 -0.1525
 5384TIP3    H137643   6.290   6.693   4.842  0.2197 -0.7444 -0.3607
 5384TIP3    H237644   6.307   6.664   4.990  1.2865 -2.3160 -0.7801
 5385TIP3   OH237645   0.381   0.828  10.833  0.1805 -0.4479  0.4364
 5385TIP3    H137646   0.383   0.734  10.814 -1.1163 -0.5651  0.8532
 5385TIP3    H237647   0.288   0.850  10.834  0.4647  0.7424  0.8206
 5386TIP3   OH237648   1.146   4.216  11.366 -0.6510 -0.5480  0.0173
 5386TIP3    H137649   1.136   4.170  11.282  1.9001 -0.7555 -0.2088
 5386TIP3    H237650   1.199   4.157  11.420 -1.0498  0.2146  1.2683
 5387TIP3   OH237651   3.436   4.616   1.472 -0.1704  0.4524  0.3885
 5387TIP3    H137652   3.488   4.642   1.396  0.2388 -2.1952 -0.2915
 5387TIP3    H237653   3.352   4.588   1.436 -1.4751  2.9654  1.3248
 5388TIP3   OH237654   4.171   1.592   0.363  0.0890 -0.1362  0.0983
 5388TIP3    H137655   4.259   1.593   0.401 -0.9557 -0.1140  2.6212
 5388TIP3    H237656   4.124   1.661   0.410 -0.6282  1.5061 -2.9274
 5389TIP3   OH237657   5.004   5.903  16.221  0.2646 -0.0315 -0.1644
 5389TIP3    H137658   5.011   5.811  16.249  0.9305 -0.1029 -0.5528
 5389TIP3    H237659   4.910   5.918  16.212 -0.0548  0.3547  3.3103
 5390TIP3   OH237660   3.069   5.376  15.483  0.3167 -0.2094 -0.0296
 5390TIP3    H137661   2.975   5.379  15.503  0.1071  0.6450 -1.0571
 5390TIP3    H237662   3.111   5.351  15.565 -0.6862  0.9446  0.8540
 5391TIP3   OH237663   0.982   2.461   2.271 -0.4513  0.0536 -0.6062
 5391TIP3    H137664   1.004   2.483   2.180 -0.8017  0.2937 -0.6339
 5391TIP3    H237665   1.061   2.419   2.305 -0.5634 -0.6894 -1.2386
 5392TIP3   OH237666   0.351   0.761  11.869 -0.4734 -0.1477 -0.2164
 5392TIP3    H137667   0.265   0.748  11.829 -0.2953  0.2437 -0.7275
 5392TIP3    H237668   0.412   0.711  11.814  0.1239  2.3095 -1.8393
 5393TIP3   OH237669   2.110   3.513  13.439  0.3968  0.0876 -0.7112
 5393TIP3    H137670   2.122   3.515  13.534  2.0977  0.8317 -0.9242
 5393TIP3    H237671   2.085   3.423  13.420 -0.7257  0.1178  0.5264
 5394TIP3   OH237672   2.412   3.743   0.753 -0.2540 -0.4964  0.3696
 5394TIP3    H137673   2.390   3.653   0.730  0.3864 -0.1707 -1.6253
 5394TIP3    H237674   2.334   3.793   0.728 -0.5019 -0.4510  1.2162
 5395TIP3   OH237675   5.614   5.034   2.165  0.4098  0.1538  0.4433
 5395TIP3    H137676   5.603   4.995   2.252 -1.0633 -0.5576 -0.0377
 5395TIP3    H237677   5.705   5.062   2.162  0.7760 -0.8581  1.7969
 5396TIP3   OH237678   1.871   2.929   5.873 -0.1579  0.9366 -0.4240
 5396TIP3    H137679   1.860   2.839   5.843 -3.0304 -0.2142  3.7030
 5396TIP3    H237680   1.805   2.979   5.825 -0.0191  0.4567 -1.1261
 5397TIP3   OH237681   6.052   3.317   4.221  0.0321  0.2606 -0.0912
 5397TIP3    H137682   6.131   3.319   4.275  0.1561 -0.4973 -0.2347
 5397TIP3    H237683   6.073   3.369   4.144  1.0468 -1.4922 -1.0164
 5398TIP3   OH237684   0.940   5.157  11.308 -0.0578  0.3247 -0.4696
 5398TIP3    H137685   0.932   5.062  11.319 -0.8470  0.3547 -0.7465
 5398TIP3    H237686   1.009   5.167  11.242  1.9767  0.0400  1.5748
 5399TIP3   OH237687   6.620   6.660  16.139 -0.3003 -0.0687  0.0077
 5399TIP3    H137688   6.661   6.731  16.091  0.5744  0.9046  2.1420
 5399TIP3    H237689   6.570   6.612  16.073  0.1042  1.7789 -1.6765
 5400TIP3   OH237690   0.292   2.198  15.198  0.0957  0.4851 -0.0032
 5400TIP3    H137691   0.325   2.225  15.283 -0.6741 -1.2978  0.8946
 5400TIP3    H237692   0.201   2.226  15.197  0.3604  1.3471 -0.6370
 5401TIP3   OH237693   3.815   3.340  15.949 -0.2960  0.1411 -0.3191
 5401TIP3    H137694   3.911   3.339  15.946 -0.2946  0.2378 -0.3079
 5401TIP3    H237695   3.789   3.392  15.874 -0.3580 -0.3896 -0.6659
 5402TIP3   OH237696   6.194   6.611  14.728 -0.0753 -0.2933 -0.0100
 5402TIP3    H137697   6.158   6.688  14.772 -3.5061 -2.3621  1.0234
 5402TIP3    H237698   6.250   6.569  14.793  0.3286  0.3418  0.0492
 5403TIP3   OH237699   0.626   4.699   2.128 -0.6102 -0.6708 -0.0610
 5403TIP3    H137700   0.638   4.792   2.146  0.1698 -0.7935  0.0856
 5403TIP3    H237701   0.532   4.684   2.138 -0.6553 -0.0177  0.5027
 5404TIP3   OH237702   3.079   5.668   5.432  0.2352  0.2545  0.0963
 5404TIP3    H137703   3.092   5.574   5.445 -1.9205 -0.1425 -0.2922
 5404TIP3    H237704   3.022   5.673   5.355  0.5052  1.9032 -0.0176
 5405TIP3   OH237705   3.016   5.717  15.644  0.1107 -0.6414  0.5799
 5405TIP3    H137706   3.016   5.804  15.685  1.0163 -0.2103 -0.3178
 5405TIP3    H237707   2.975   5.660  15.709 -0.9064  0.5388  1.0048
 5406TIP3   OH237708   3.137   0.076  14.892 -0.6056  0.2688  0.2445
 5406TIP3    H137709   3.067   0.047  14.834 -0.2220 -2.2983  1.0160
 5406TIP3    H237710   3.215   0.079  14.837 -0.6441 -0.2010  0.1650
 5407TIP3   OH237711   4.227   3.209   1.249 -0.3986  0.0595 -0.4071
 5407TIP3    H137712   4.261   3.241   1.332 -3.1949 -1.5942  1.4418
 5407TIP3    H237713   4.138   3.246   1.243 -0.7201 -0.9015 -2.0040
 5408TIP3   OH237714   2.760   6.172  14.771  0.1430 -0.0591  0.2663
 5408TIP3    H137715   2.802   6.090  14.743 -0.4080 -1.2295  2.7204
 5408TIP3    H237716   2.828   6.218  14.820 -0.3348 -0.2621  1.1259
 5409TIP3   OH237717   6.276   2.180   6.219 -0.2336 -0.4009 -0.5000
 5409TIP3    H137718   6.301   2.166   6.310 -1.4158 -0.1025 -0.1237
 5409TIP3    H237719   6.194   2.230   6.224 -0.9817 -1.4753 -1.6994
 5410TIP3   OH237720   0.190   0.873   3.814 -0.0857  0.1464 -0.1642
 5410TIP3    H137721   0.245   0.846   3.740 -1.0163 -1.4193 -0.3068
 5410TIP3    H237722   0.146   0.952   3.783  0.0631 -0.1030 -1.0288
 5411TIP3   OH237723   2.797   2.804  13.276 -0.3736 -0.3494  0.1960
 5411TIP3    H137724   2.876   2.831  13.228 -0.6093  1.4750  0.8085
 5411TIP3    H237725   2.827   2.735  13.334  0.7614  0.2410  0.3288
 5412TIP3   OH237726   0.551   6.483  15.728  0.5775  0.0189 -0.5392
 5412TIP3    H137727   0.462   6.470  15.760  0.2194 -0.9510 -1.9183
 5412TIP3    H237728   0.598   6.405  15.756  0.3702 -0.6340 -1.9617
 5413TIP3   OH237729   5.074   5.328   5.033 -0.7671  0.0605 -0.5052
 5413TIP3    H137730   5.142   5.276   5.076  0.7094  2.2493 -0.0934
 5413TIP3    H237731   5.092   5.318   4.939  0.0960  0.5764 -0.3998
 5414TIP3   OH237732   5.637   4.000  11.691  0.2911  0.2216 -0.3582
 5414TIP3    H137733   5.674   4.087  11.677  1.1730 -0.0715  0.1359
 5414TIP3    H237734   5.605   3.973  11.605 -1.5293  1.7372 -0.1930
 5415TIP3   OH237735   5.217   5.738   5.620  0.3064  0.0489  0.6915
 5415TIP3    H137736   5.295   5.791   5.601  0.8464 -1.7840 -2.5234
 5415TIP3    H237737   5.144   5.798   5.607  0.9905  0.5016 -1.3263
 5416TIP3   OH237738   2.038   6.455  11.401 -0.0200  0.3093  0.2108
 5416TIP3    H137739   2.114   6.496  11.443  0.6902 -0.8165  0.0612
 5416TIP3    H237740   2.068   6.435  11.313 -0.7450  0.5322 -0.0869
 5417TIP3   OH237741   2.024   4.443   5.049  0.2304 -0.3931  0.1464
 5417TIP3    H137742   2.107   4.414   5.011  1.7756  1.5300  1.9142
 5417TIP3    H237743   2.042   4.448   5.143 -0.8661  3.1314  0.2527
 5418TIP3   OH237744   1.437   6.556   1.305  0.2505 -0.0250  0.2279
 5418TIP3    H137745   1.501   6.585   1.240 -0.2095  1.4818  0.4475
 5418TIP3    H237746   1.363   6.523   1.253 -0.5756  2.1846 -0.0319
 5419TIP3   OH237747   2.469   0.696   0.781  0.5877 -0.0208  0.3620
 5419TIP3    H137748   2.536   0.660   0.840 -0.5498  1.5537  2.6850
 5419TIP3    H237749   2.393   0.640   0.794  1.1062 -1.1873 -1.5147
 5420TIP3   OH237750   0.225   3.792   1.396 -0.0289 -0.1995 -0.1491
 5420TIP3    H137751   0.309   3.797   1.442  0.5904 -0.3118 -1.2564
 5420TIP3    H237752   0.247   3.758   1.309 -0.9114  1.9625 -1.2383
 5421TIP3   OH237753   3.197   3.067  14.521 -0.1428 -0.0461  0.8147
 5421TIP3    H137754   3.279   3.022  14.503 -0.4597 -0.1957 -0.2998
 5421TIP3    H237755   3.171   3.036  14.608 -1.2621 -3.4459 -0.6203
 5422TIP3   OH237756   2.533   2.177   0.005 -0.1902 -0.4805  0.0347
 5422TIP3    H137757   2.568   2.153  -0.081 -0.7312 -1.5998  0.1182
 5422TIP3    H237758   2.489   2.098   0.036 -1.9052  0.5788  0.3765
 5423TIP3   OH237759   0.388   4.327   3.887 -0.2782 -0.0647  0.3754
 5423TIP3    H137760   0.336   4.406   3.899  0.2461  0.0887  1.6415
 5423TIP3    H237761   0.457   4.353   3.826 -0.9869  0.0333 -0.4062
 5424TIP3   OH237762   0.265   1.050   5.335  0.0902  0.5224  0.7733
 5424TIP3    H137763   0.259   1.044   5.430 -0.6617  1.0750  0.7655
 5424TIP3    H237764   0.285   1.142   5.318 -0.4156  0.5579  0.3623
 5425TIP3   OH237765   5.216   0.443  16.569  0.6626 -0.2421 -0.0973
 5425TIP3    H137766   5.183   0.530  16.545 -0.7996 -0.2113  1.9168
 5425TIP3    H237767   5.243   0.452  16.660 -0.4648 -2.1456  0.4616
 5426TIP3   OH237768   0.494   5.572  13.019 -0.7533 -0.0158  0.4762
 5426TIP3    H137769   0.432   5.605  13.085 -1.3014  0.6440 -0.3522
 5426TIP3    H237770   0.528   5.651  12.977  1.3883 -0.3358  1.5702
 5427TIP3   OH237771   5.229   0.949  17.091  0.0877 -0.4899 -0.0610
 5427TIP3    H137772   5.159   0.915  17.035 -1.5642  0.6200  1.2902
 5427TIP3    H237773   5.184   1.004  17.155  2.2751  0.8238  0.3980
 5428TIP3   OH237774   2.377   5.018  10.684  0.2937 -0.0454 -0.3164
 5428TIP3    H137775   2.415   5.088  10.630  0.9181 -0.5010 -0.4740
 5428TIP3    H237776   2.288   5.048  10.703  0.5860  0.8294 -0.3165
 5429TIP3   OH237777   1.227   5.933  12.374 -0.7264 -0.4617 -0.2406
 5429TIP3    H137778   1.269   5.849  12.352  1.2803  0.5191 -0.2782
 5429TIP3    H237779   1.294   5.980  12.424 -1.1902  1.8255 -1.7233
 5430TIP3   OH237780   1.551   1.558   0.232  0.2835 -0.4130  0.3735
 5430TIP3    H137781   1.474   1.562   0.288 -0.8448  1.1907 -1.2076
 5430TIP3    H237782   1.533   1.487   0.171  0.2740 -0.3727  0.3289
 5431TIP3   OH237783   6.399   3.501  17.107  0.4750  1.0839 -0.2370
 5431TIP3    H137784   6.374   3.538  17.023 -0.6065 -0.9464 -0.8608
 5431TIP3    H237785   6.478   3.449  17.089  0.1039  0.4481 -0.0524
 5432TIP3   OH237786   0.755   3.207   2.394 -0.1327 -0.2613 -0.1978
 5432TIP3    H137787   0.717   3.280   2.345 -1.0400 -1.7406 -1.7713
 5432TIP3    H237788   0.679   3.157   2.425  0.4713 -0.1749  1.4255
 5433TIP3   OH237789   4.034   3.266  15.167 -0.2024  0.4591  0.1061
 5433TIP3    H137790   4.051   3.359  15.180  1.0131  0.6668 -2.6768
 5433TIP3    H237791   3.943   3.263  15.136  0.4300  0.9468 -1.8697
 5434TIP3   OH237792   4.846   0.002   3.435  0.1331 -0.2412  0.1002
 5434TIP3    H137793   4.766   0.052   3.446  0.0169 -0.0414 -1.5173
 5434TIP3    H237794   4.889   0.005   3.521 -0.1933  2.0649  0.1996
 5435TIP3   OH237795   0.045   6.341  17.057  0.0550  0.2255  0.1883
 5435TIP3    H137796   0.135   6.326  17.026  0.0772  0.0789  0.3217
 5435TIP3    H237797   0.037   6.436  17.058 -0.2047  0.2167 -0.9873
 5436TIP3   OH237798   2.916   3.451   4.556  0.3394 -0.9266 -0.4471
 5436TIP3    H137799   2.933   3.392   4.482 -0.0871  0.1714 -1.4427
 5436TIP3    H237800   2.851   3.512   4.523  0.8462  0.1705  0.5391
 5437TIP3   OH237801   0.227   0.708   1.019 -0.1117  0.1282  0.0025
 5437TIP3    H137802   0.171   0.632   1.002 -0.9100  0.5831  0.5955
 5437TIP3    H237803   0.312   0.682   0.984 -0.6450 -0.6266 -0.7737
 5438TIP3   OH237804   4.998   4.798   4.546 -0.2305 -0.1719  0.1155
 5438TIP3    H137805   4.908   4.821   4.520 -0.2270  0.9126  1.0254
 5438TIP3    H237806   5.049   4.803   4.466 -0.9028 -0.3781 -0.3283
 5439TIP3   OH237807   4.735   4.439   1.915 -0.2030 -0.4517  0.3753
 5439TIP3    H137808   4.676   4.401   1.850 -0.0545 -0.4194  0.2210
 5439TIP3    H237809   4.806   4.477   1.863  0.8385 -2.0019  0.6447
 5440TIP3   OH237810   2.891   0.385  12.628  0.3246  0.2774 -0.4756
 5440TIP3    H137811   2.952   0.402  12.701  1.7065 -2.2689 -0.9840
 5440TIP3    H237812   2.819   0.337  12.669  0.0180  0.8068 -0.3908
 5441TIP3   OH237813   1.938   0.830  15.474  0.1897  0.6942  0.1113
 5441TIP3    H137814   1.975   0.887  15.542 -0.0246 -0.1062  0.9112
 5441TIP3    H237815   1.877   0.774  15.521 -1.0792  1.1346 -1.0073
 5442TIP3   OH237816   2.288   0.332   3.415  0.7648  0.4814  0.1283
 5442TIP3    H137817   2.339   0.256   3.441 -0.3140 -1.1859 -2.4872
 5442TIP3    H237818   2.334   0.366   3.338  0.2172  1.4327  0.2139
 5443TIP3   OH237819   6.803   1.805  12.119 -0.8583 -0.4950  0.0701
 5443TIP3    H137820   6.787   1.885  12.168  0.1130  0.1900 -0.7132
 5443TIP3    H237821   6.771   1.823  12.031 -1.4215 -1.2727  0.1048
 5444TIP3   OH237822   5.138   5.082   0.252 -0.0653 -0.5651  0.6546
 5444TIP3    H137823   5.073   5.027   0.209 -0.2329  0.4408 -0.4222
 5444TIP3    H237824   5.110   5.085   0.343 -1.7173  0.0675  0.1603
 5445TIP3   OH237825   0.180   5.623   1.777  0.2396  0.0944 -0.4316
 5445TIP3    H137826   0.251   5.644   1.716 -0.3827  1.7014 -0.6411
 5445TIP3    H237827   0.137   5.707   1.793  0.1661 -0.3675  1.9542
 5446TIP3   OH237828   6.616   5.746   3.319 -0.6071 -0.0523 -0.3985
 5446TIP3    H137829   6.574   5.742   3.405 -1.8766 -0.3891 -1.0205
 5446TIP3    H237830   6.691   5.687   3.326 -0.2863  0.4833  0.6986
 5447TIP3   OH237831   5.760   5.398   4.723 -0.3515 -0.1982 -0.0086
 5447TIP3    H137832   5.809   5.350   4.656 -1.5339 -1.3326 -0.0906
 5447TIP3    H237833   5.738   5.481   4.681  1.1147  0.1453 -0.1180
 5448TIP3   OH237834   4.047   5.372  13.498  0.2568 -0.0425  0.0844
 5448TIP3    H137835   3.986   5.304  13.469 -0.3757  0.8517 -0.7128
 5448TIP3    H237836   4.100   5.392  13.421  0.8519 -0.0636  0.4829
 5449TIP3   OH237837   0.922   6.392  12.665  0.1436 -0.4217 -0.2182
 5449TIP3    H137838   0.833   6.368  12.637  0.1417 -0.2069 -0.4046
 5449TIP3    H237839   0.919   6.487  12.671 -0.2647 -0.5563  1.9353
 5450TIP3   OH237840   0.728   3.068  15.067 -0.4843  0.1878  0.2444
 5450TIP3    H137841   0.738   2.985  15.114 -1.9065  0.8425  1.7906
 5450TIP3    H237842   0.635   3.071  15.045 -0.1446  0.6809 -1.1341
 5451TIP3   OH237843   0.191   0.537  16.719 -0.2545  0.1617 -0.1542
 5451TIP3    H137844   0.127   0.474  16.753  0.1634  0.0475  0.4367
 5451TIP3    H237845   0.272   0.514  16.763 -0.1061  1.1384  0.0847
 5452TIP3   OH237846   3.619   3.265  14.936  0.1480 -0.1666  0.1694
 5452TIP3    H137847   3.588   3.343  14.890  2.4076  0.9068  0.4031
 5452TIP3    H237848   3.586   3.274  15.025 -0.3657  0.0666 -0.0457
 5453TIP3   OH237849   0.244   6.305   4.543 -0.5657  0.1930  0.0111
 5453TIP3    H137850   0.193   6.261   4.475  1.8035 -1.9099 -0.5153
 5453TIP3    H237851   0.254   6.238   4.611  1.5582  0.4692  0.0189
 5454TIP3   OH237852   2.175   3.161   0.640  0.1617  0.2823 -0.7530
 5454TIP3    H137853   2.089   3.195   0.614  0.3388  0.9235 -0.4926
 5454TIP3    H237854   2.238   3.222   0.602  0.5161 -0.2342 -1.0186
 5455TIP3   OH237855   4.296   1.929   0.564 -0.5839 -0.2357 -0.8075
 5455TIP3    H137856   4.290   1.923   0.469 -0.4678  0.8280 -0.8910
 5455TIP3    H237857   4.383   1.965   0.580 -0.3765 -0.9707 -0.2697
 5456TIP3   OH237858   2.623   2.586  16.794 -0.7025 -0.3553  0.2293
 5456TIP3    H137859   2.555   2.652  16.778  0.3419  0.2424 -1.9583
 5456TIP3    H237860   2.627   2.535  16.713 -0.5327 -2.2482  1.3886
 5457TIP3   OH237861   6.092   5.429   1.579  0.5564  0.0910  0.1876
 5457TIP3    H137862   6.184   5.456   1.572 -0.7666  4.7345 -0.2806
 5457TIP3    H237863   6.073   5.435   1.672 -0.2297  2.6015 -0.1157
 5458TIP3   OH237864   3.781   6.171   4.854 -0.1379  0.2203 -0.0158
 5458TIP3    H137865   3.817   6.259   4.865 -0.2148  0.2559 -0.0514
 5458TIP3    H237866   3.802   6.126   4.936  1.0226 -0.1300 -0.5020
 5459TIP3   OH237867   0.339   4.440   4.564  0.0447  0.5393  0.1967
 5459TIP3    H137868   0.396   4.489   4.504 -1.0622  0.3690 -0.9920
 5459TIP3    H237869   0.357   4.479   4.650 -0.6491  2.9224 -0.6876
 5460TIP3   OH237870   5.984   6.026   2.381 -0.1281  0.3784  0.2524
 5460TIP3    H137871   5.962   6.001   2.470  1.4708 -0.5699  0.3847
 5460TIP3    H237872   6.068   6.071   2.388  0.7289 -0.9869 -0.9443
 5461TIP3   OH237873   6.806   0.290   2.559 -0.3898 -0.6665 -0.2668
 5461TIP3    H137874   6.779   0.221   2.499 -0.2854  1.4038 -2.7978
 5461TIP3    H237875   6.898   0.307   2.537 -0.8244  1.2506 -0.7293
 5462TIP3   OH237876   1.690   6.700  13.300  0.0016  0.6068  0.0866
 5462TIP3    H137877   1.723   6.611  13.293 -0.1700  0.5016  0.5973
 5462TIP3    H237878   1.599   6.690  13.326 -0.2354  0.9145 -0.6054
 5463TIP3   OH237879   3.532   0.279   5.718 -0.0756 -0.1597 -0.1865
 5463TIP3    H137880   3.605   0.326   5.678 -1.4465  0.7845 -1.6642
 5463TIP3    H237881   3.512   0.208   5.656  1.1330 -1.9310  1.3998
 5464TIP3   OH237882   3.251   1.250   4.970 -0.7945  0.1346  0.7106
 5464TIP3    H137883   3.334   1.266   4.927 -1.1529  0.1525  0.0167
 5464TIP3    H237884   3.242   1.320   5.034 -0.1858  0.0174  0.9241
 5465TIP3   OH237885   0.571   4.068   2.274 -0.3875  0.0983  0.4658
 5465TIP3    H137886   0.578   4.016   2.354  0.5079 -0.7764 -0.1655
 5465TIP3    H237887   0.484   4.048   2.240  0.0527 -1.1961  0.0923
 5466TIP3   OH237888   0.616   2.380   3.855 -0.1725 -0.0247 -0.3381
 5466TIP3    H137889   0.639   2.288   3.847  0.1818  0.0948 -0.6659
 5466TIP3    H237890   0.628   2.417   3.768  2.7029  1.0242  0.4479
 5467TIP3   OH237891   2.203   3.153  14.417  0.1580 -0.0771  0.1082
 5467TIP3    H137892   2.289   3.111  14.419  0.8940  1.4126  0.4964
 5467TIP3    H237893   2.170   3.134  14.329  0.7619 -0.9051  0.0513
 5468TIP3   OH237894   3.950   5.039  15.404 -0.4725 -0.0048 -0.5264
 5468TIP3    H137895   3.872   5.091  15.422  1.6929  3.1229  0.3353
 5468TIP3    H237896   3.998   5.038  15.487  0.1313 -2.4380 -0.8486
 5469TIP3   OH237897   2.167   1.125   3.053  0.1653 -0.4174  0.4815
 5469TIP3    H137898   2.072   1.121   3.065  0.2326 -1.2847  0.8031
 5469TIP3    H237899   2.181   1.200   2.996 -0.8190 -1.0392 -0.6114
 5470TIP3   OH237900   1.770   6.639   2.082  0.5750  0.3355 -0.2082
 5470TIP3    H137901   1.789   6.559   2.132  0.6654  0.3002 -0.2988
 5470TIP3    H237902   1.854   6.664   2.044  0.6625  0.7903  0.2806
 5471TIP3   OH237903   0.464   1.727  14.745 -0.2985 -0.4806 -0.3268
 5471TIP3    H137904   0.384   1.680  14.723 -1.1941  1.2067 -0.7333
 5471TIP3    H237905   0.524   1.708  14.672 -1.1187  0.0804 -1.1574
 5472TIP3   OH237906   6.691   3.646  13.360  0.0228 -0.6373 -0.0393
 5472TIP3    H137907   6.752   3.709  13.322 -1.3970 -0.0559 -1.4188
 5472TIP3    H237908   6.605   3.685  13.347 -0.5630 -0.5391  3.6275
 5473TIP3   OH237909   2.872   1.019  13.480  0.0330  0.2551 -0.0062
 5473TIP3    H137910   2.830   1.086  13.426  0.4283 -1.1307 -2.0958
 5473TIP3    H237911   2.804   0.992  13.542 -0.7974  1.0762 -0.5473
 5474TIP3   OH237912   0.499   0.253  11.999  0.3140 -0.3283  0.1777
 5474TIP3    H137913   0.459   0.311  11.935  0.3797  1.2129  1.5035
 5474TIP3    H237914   0.591   0.281  12.003 -0.1118  0.8329  2.2835
 5475TIP3   OH237915   0.097   0.319   4.798 -0.3813  0.4748  0.8289
 5475TIP3    H137916   0.117   0.401   4.843 -0.1549  0.6683  0.3826
 5475TIP3    H237917   0.160   0.256   4.833 -0.3575  0.5689  0.9540
 5476TIP3   OH237918   2.671   5.823   4.613  0.1702  0.4483  0.8542
 5476TIP3    H137919   2.651   5.828   4.520  2.0202  2.8267  0.5634
 5476TIP3    H237920   2.585   5.834   4.656 -0.3614  1.8960 -0.5272
 5477TIP3   OH237921   5.814   1.335   0.894  0.3888 -0.3673 -0.0977
 5477TIP3    H137922   5.837   1.322   0.803  1.0031  3.0569 -0.5205
 5477TIP3    H237923   5.758   1.261   0.916  1.7474 -2.2386 -2.6690
 5478TIP3   OH237924   6.774   2.598  12.824 -0.0302 -0.2396 -0.1942
 5478TIP3    H137925   6.842   2.665  12.831 -1.0500  0.6205  2.1712
 5478TIP3    H237926   6.813   2.520  12.864  0.3723 -0.4143 -0.9261
 5479TIP3   OH237927   4.284   1.704  13.541 -0.1288 -0.1334 -0.5790
 5479TIP3    H137928   4.301   1.611  13.557 -0.6669 -0.2313 -0.5467
 5479TIP3    H237929   4.355   1.732  13.484  0.4357 -0.3918 -0.0225
 5480TIP3   OH237930   2.530   5.778  16.522 -0.1392  0.1311  0.5365
 5480TIP3    H137931   2.512   5.871  16.536 -3.4767 -0.4559  0.5896
 5480TIP3    H237932   2.621   5.767  16.549 -0.3461  2.9479  2.6219
 5481TIP3   OH237933   0.716   5.791   1.667 -0.0877  0.2652  0.3413
 5481TIP3    H137934   0.736   5.724   1.732  0.0159 -0.2544 -0.2252
 5481TIP3    H237935   0.757   5.870   1.701  0.5061 -0.1517  0.6008
 5482TIP3   OH237936   1.952   5.095   5.365  0.6538 -0.6687 -0.3710
 5482TIP3    H137937   1.933   5.081   5.458 -1.6457  0.3397 -0.6423
 5482TIP3    H237938   1.945   5.009   5.325 -1.8356 -0.6065 -0.1437
 5483TIP3   OH237939   6.728   0.987  14.617  0.0645 -0.5267 -0.5983
 5483TIP3    H137940   6.767   1.032  14.693  1.7285  1.9389 -2.8252
 5483TIP3    H237941   6.801   0.939  14.578 -1.0847 -2.8889  0.0620
 5484TIP3   OH237942   4.222   6.023   5.025 -0.0700  0.0372  0.5468
 5484TIP3    H137943   4.255   6.041   5.113  0.1225 -0.6569  0.6228
 5484TIP3    H237944   4.188   6.107   4.994  0.0126  0.3222  1.2193
 5485TIP3   OH237945   4.852   1.644   3.541  0.3822 -0.0528 -0.4262
 5485TIP3    H137946   4.829   1.614   3.453  0.3104 -2.6718  0.4455
 5485TIP3    H237947   4.877   1.736   3.529 -0.7365 -0.0334 -2.9844
 5486TIP3   OH237948   5.996   2.952   5.735  0.1142 -0.0320  0.0541
 5486TIP3    H137949   5.948   3.032   5.757 -0.2762 -0.2336 -0.0663
 5486TIP3    H237950   5.972   2.934   5.644  0.1545 -0.3194  0.1006
 5487TIP3   OH237951   4.783   1.588   5.772  0.5088 -0.0159 -0.0260
 5487TIP3    H137952   4.843   1.556   5.839 -0.2233  1.8316  1.5457
 5487TIP3    H237953   4.837   1.646   5.718  0.4752  0.6150  0.6049
 5488TIP3   OH237954   4.210   2.532  12.224 -0.5022  0.2595  0.2388
 5488TIP3    H137955   4.190   2.625  12.226 -1.7747  0.0039 -0.3032
 5488TIP3    H237956   4.281   2.525  12.159 -0.1940  0.8758  0.4998
 5489TIP3   OH237957   2.898   4.652   5.549 -0.4758  0.7334 -0.0775
 5489TIP3    H137958   2.907   4.602   5.630  0.1250 -1.3594 -1.3842
 5489TIP3    H237959   2.831   4.605   5.499  1.1104  0.3610 -1.9260
 5490TIP3   OH237960   2.482   3.740   4.354  0.3767  0.0596  0.0379
 5490TIP3    H137961   2.434   3.774   4.278  3.0469  3.4232 -0.3081
 5490TIP3    H237962   2.467   3.805   4.422  0.2030 -1.5429  1.5527
 5491TIP3   OH237963   0.389   6.469   1.550 -0.1547 -0.1225 -0.3316
 5491TIP3    H137964   0.432   6.545   1.512 -1.2541  0.2683 -0.8287
 5491TIP3    H237965   0.440   6.394   1.519  1.4391  0.4566  0.8638
 5492TIP3   OH237966   4.817   2.774   3.695  0.2252  0.5336  0.3736
 5492TIP3    H137967   4.814   2.692   3.744  2.6742 -0.3385 -0.8378
 5492TIP3    H237968   4.909   2.798   3.695  0.0807  1.2958 -2.4847
 5493TIP3   OH237969   2.874   5.534   2.268 -0.9006 -0.3736 -0.0042
 5493TIP3    H137970   2.927   5.610   2.247  0.3566 -1.0056  0.8251
 5493TIP3    H237971   2.850   5.497   2.183 -0.2302  0.0726 -0.3893
 5494TIP3   OH237972   3.477   1.562  15.839  0.4043  0.1396  0.0661
 5494TIP3    H137973   3.402   1.566  15.899  0.5433  1.1436  0.1813
 5494TIP3    H237974   3.455   1.491  15.778  0.0306 -0.5629  0.9940
 5495TIP3   OH237975   6.774   3.966   2.776  0.3455 -0.6644 -0.1983
 5495TIP3    H137976   6.806   4.038   2.722  0.0974  0.0228  0.5593
 5495TIP3    H237977   6.776   4.000   2.866 -1.6858 -0.8909 -0.0425
 5496TIP3   OH237978   3.233   6.367   4.342  0.0610 -0.2967  0.2555
 5496TIP3    H137979   3.255   6.277   4.315 -1.2275 -0.2690 -0.9113
 5496TIP3    H237980   3.187   6.404   4.267 -0.3523  0.9961  1.1350
 5497TIP3   OH237981   3.814   3.425   3.016  0.5116  0.3677 -0.0141
 5497TIP3    H137982   3.868   3.390   3.087  0.4226 -0.8178 -0.5093
 5497TIP3    H237983   3.740   3.467   3.060  1.0575  0.6690  0.6217
 5498TIP3   OH237984   6.803   0.070   2.371  0.5155 -0.0144 -0.0937
 5498TIP3    H137985   6.781   0.016   2.295 -0.4890 -0.8281  0.7670
 5498TIP3    H237986   6.819   0.007   2.441 -0.5471  0.7793  0.8858
 5499TIP3   OH237987   6.244   2.170   5.020 -0.1868  0.0375 -0.2395
 5499TIP3    H137988   6.323   2.131   5.058 -0.8024 -1.6588 -0.6874
 5499TIP3    H237989   6.173   2.143   5.079 -0.2627  2.8236  1.0253
 5500TIP3   OH237990   5.227   3.715   3.793  0.5058  0.2829 -0.3741
 5500TIP3    H137991   5.296   3.671   3.842  1.4113  0.3079 -1.6293
 5500TIP3    H237992   5.207   3.793   3.846  0.8141 -0.1827  0.4364
 5501TIP3   OH237993   0.983   5.151   3.145  0.6602 -0.0331 -0.3204
 5501TIP3    H137994   1.058   5.158   3.087  0.8877  1.8079  0.1698
 5501TIP3    H237995   0.917   5.207   3.105 -0.3167 -1.2852 -0.5074
 5502TIP3   OH237996   5.864   4.595   4.881 -0.1854 -0.3713  0.3210
 5502TIP3    H137997   5.827   4.532   4.818  2.1325 -0.4929 -0.9534
 5502TIP3    H237998   5.863   4.679   4.835 -3.2401  0.6282  2.0070
 5503TIP3   OH237999   0.434   4.790  12.174 -0.1129  0.4991 -0.5958
 5503TIP3    H138000   0.412   4.852  12.103  2.2777  0.7607 -1.1333
 5503TIP3    H238001   0.491   4.726  12.132  0.2059 -0.1268  0.7976
 5504TIP3   OH238002   0.300   3.737   4.844 -0.2070  0.1913 -0.7142
 5504TIP3    H138003   0.251   3.802   4.894 -0.3163  0.8631 -1.6802
 5504TIP3    H238004   0.251   3.728   4.762  2.0011  1.9126 -2.2831
 5505TIP3   OH238005   2.217   6.017   0.801 -0.1890  0.0181 -0.2970
 5505TIP3    H138006   2.159   6.081   0.760 -0.4686  0.5676  0.9483
 5505TIP3    H238007   2.297   6.066   0.821 -0.1445 -0.1835  0.0345
 5506TIP3   OH238008   4.717   1.083   0.168 -0.4031  0.8467 -0.7630
 5506TIP3    H138009   4.735   1.036   0.087  0.1648  0.0096 -0.1566
 5506TIP3    H238010   4.622   1.082   0.176 -0.3548 -1.1422 -0.2074
 5507TIP3   OH238011   1.480   6.236  13.553 -0.3019  0.2759 -0.2975
 5507TIP3    H138012   1.521   6.278  13.478 -0.2504  2.0000  0.6613
 5507TIP3    H238013   1.490   6.299  13.625  0.0994 -1.5447  1.2938
 5508TIP3   OH238014   2.138   5.871   1.003 -0.3489  0.1449  0.1414
 5508TIP3    H138015   2.168   5.917   0.925  0.7663 -0.4161  0.2207
 5508TIP3    H238016   2.199   5.898   1.071 -0.3989 -0.5328  0.4611
 5509TIP3   OH238017   1.736   2.427   3.044  0.1334  0.2686 -0.4160
 5509TIP3    H138018   1.764   2.387   2.962 -0.1590 -1.0248  0.0982
 5509TIP3    H238019   1.656   2.474   3.022  0.8359  1.1240 -1.1696
 5510TIP3   OH238020   2.683   3.166   6.233 -0.2181  0.0828  0.0915
 5510TIP3    H138021   2.734   3.137   6.308 -1.0402  0.6157  0.8666
 5510TIP3    H238022   2.606   3.208   6.271 -0.2775  1.0193 -1.0348
 5511TIP3   OH238023   2.754   0.330  17.081 -0.6268 -0.3753 -0.9326
 5511TIP3    H138024   2.784   0.420  17.093  0.2087 -0.5861 -1.3216
 5511TIP3    H238025   2.660   0.333  17.096 -0.4206  0.3374  0.2459
 5512TIP3   OH238026   4.167   0.051  15.115  0.1000 -0.0069  0.6667
 5512TIP3    H138027   4.231  -0.019  15.102  0.0395  0.3432 -1.7556
 5512TIP3    H238028   4.140   0.042  15.207  3.4058 -0.3250  1.6917
 5513TIP3   OH238029   0.861   1.781  14.403 -0.7858 -0.6236  0.1384
 5513TIP3    H138030   0.948   1.780  14.363 -1.2724 -1.7881 -0.9194
 5513TIP3    H238031   0.849   1.872  14.431 -0.1782  0.1165 -1.8678
 5514TIP3   OH238032   1.671   3.059   3.732 -0.3035  0.5658 -0.2803
 5514TIP3    H138033   1.731   3.084   3.802  0.9924 -0.6025 -0.9481
 5514TIP3    H238034   1.698   3.112   3.657  0.1675 -0.2397 -0.6912
 5515TIP3   OH238035   6.324   4.383  14.924 -0.3791  0.0743 -0.5697
 5515TIP3    H138036   6.405   4.375  14.874  0.6479  1.8261  0.7431
 5515TIP3    H238037   6.288   4.294  14.926  0.1299 -0.2302 -3.4005
 5516TIP3   OH238038   4.591   2.230  16.833 -0.0714  0.1755 -0.6190
 5516TIP3    H138039   4.621   2.253  16.745  0.7359  1.0448 -0.1265
 5516TIP3    H238040   4.498   2.254  16.834  0.4765  2.4139 -0.4865
 5517TIP3   OH238041   5.482   4.108  13.738 -0.1416  0.2311  0.1482
 5517TIP3    H138042   5.551   4.172  13.753 -0.0510  0.1579  0.0499
 5517TIP3    H238043   5.439   4.098  13.823 -1.0981  1.4980 -0.1813
 5518TIP3   OH238044   2.004   0.665  12.712  0.1125 -0.1372  0.0919
 5518TIP3    H138045   1.994   0.639  12.621 -1.9034  0.0760  0.2328
 5518TIP3    H238046   1.941   0.611  12.760  1.7325 -0.8484  1.4938
 5519TIP3   OH238047   5.713   4.050  15.208  0.1849  0.2177  0.0887
 5519TIP3    H138048   5.724   4.027  15.301 -0.3519 -0.8357 -0.1060
 5519TIP3    H238049   5.752   3.977  15.160 -0.5740  0.2073 -0.5198
 5520TIP3   OH238050   4.113   5.581   0.701  0.3678 -0.0038  0.0917
 5520TIP3    H138051   4.042   5.612   0.645  1.8101  1.2587 -1.0884
 5520TIP3    H238052   4.126   5.651   0.765 -0.1131 -0.6832  0.9536
 5521TIP3   OH238053   5.939   1.960   0.433 -0.1898  0.9903  0.7052
 5521TIP3    H138054   5.964   2.041   0.477 -0.4307  1.2751  0.3253
 5521TIP3    H238055   5.844   1.963   0.430 -0.2819 -0.1448  2.2426
 5522TIP3   OH238056   4.686   5.605   1.672  0.0670  0.2876  0.6371
 5522TIP3    H138057   4.775   5.594   1.706 -0.1015  0.8997  1.2885
 5522TIP3    H238058   4.636   5.637   1.747 -0.2110  2.0840 -0.3040
 5523TIP3   OH238059   3.863   3.943  17.207 -0.4688  0.0668 -0.2425
 5523TIP3    H138060   3.912   3.995  17.270 -0.7748  0.5641 -0.4171
 5523TIP3    H238061   3.898   3.855  17.217  0.1148  0.3227 -0.0147
 5524TIP3   OH238062   4.667   4.223   3.266 -0.0788  0.2703 -0.2404
 5524TIP3    H138063   4.693   4.290   3.330  1.4969  1.0978 -1.7265
 5524TIP3    H238064   4.745   4.210   3.212 -0.4384 -2.6263 -0.1129
 5525TIP3   OH238065   1.197   2.786   1.724 -0.1819  0.2282  0.0886
 5525TIP3    H138066   1.123   2.847   1.718 -1.2934 -1.0747  0.3975
 5525TIP3    H238067   1.162   2.702   1.694  0.9855 -0.5596  0.8848
 5526TIP3   OH238068   3.399   3.661   5.768 -0.3310  0.6888 -0.0089
 5526TIP3    H138069   3.358   3.699   5.845  0.8835  0.1943  0.8955
 5526TIP3    H238070   3.396   3.731   5.702 -1.0358  1.2320  0.5943
 5527TIP3   OH238071   0.522   3.101  11.284  0.5597 -0.0350 -0.7269
 5527TIP3    H138072   0.615   3.080  11.271  0.4272 -0.5343 -0.8677
 5527TIP3    H238073   0.511   3.101  11.379  1.0589  1.5920 -0.6507
 5528TIP3   OH238074   0.709   2.411   0.240 -0.2003 -0.6867 -0.4521
 5528TIP3    H138075   0.718   2.503   0.265 -0.9203 -0.4344 -1.1128
 5528TIP3    H238076   0.695   2.365   0.323  1.9939 -0.4480  0.0765
 5529TIP3   OH238077   2.604   4.025   5.640  0.3117 -0.1091 -0.0740
 5529TIP3    H138078   2.687   4.072   5.653  0.0720  0.1111  0.7389
 5529TIP3    H238079   2.552   4.084   5.585  1.0220 -0.6523 -1.3422
 5530TIP3   OH238080   5.101   0.293   5.755 -0.5113 -0.1706  0.0283
 5530TIP3    H138081   5.011   0.261   5.747 -0.8602  0.6656  0.5302
 5530TIP3    H238082   5.145   0.261   5.676 -1.8741  1.4495 -1.4129
 5531TIP3   OH238083   0.046   5.238   1.284  0.0443 -0.0166  0.6334
 5531TIP3    H138084   0.049   5.308   1.349  1.3092 -1.6192  2.3682
 5531TIP3    H238085  -0.047   5.220   1.273 -0.2308  0.9144  1.2938
 5532TIP3   OH238086   3.926   5.993  12.042 -0.5614 -0.6845 -0.5847
 5532TIP3    H138087   3.931   5.898  12.052  0.6210 -0.6283 -0.5681
 5532TIP3    H238088   3.995   6.014  11.980 -0.3571  0.2371 -0.0548
 5533TIP3   OH238089   0.123   5.273  12.117  0.0086  0.1619  0.3551
 5533TIP3    H138090   0.169   5.254  12.035 -0.9302 -1.9828  0.2956
 5533TIP3    H238091   0.039   5.308  12.090 -0.0071  0.1621  0.4040
 5534TIP3   OH238092   3.046   2.197   1.894 -0.2157 -0.1470 -0.6640
 5534TIP3    H138093   3.123   2.249   1.917  0.3992 -0.3991 -2.1222
 5534TIP3    H238094   2.971   2.251   1.923  0.4980  0.1573  0.6283
 5535TIP3   OH238095   4.392   1.496   1.654  0.3540 -0.0031 -0.4199
 5535TIP3    H138096   4.317   1.530   1.703 -0.2759 -1.9781  0.0764
 5535TIP3    H238097   4.355   1.423   1.603  1.1979  1.3644 -3.0730
 5536TIP3   OH238098   2.408   0.702   5.013 -0.7265 -0.0657  0.2751
 5536TIP3    H138099   2.337   0.748   5.056 -0.6971 -0.0216  0.2771
 5536TIP3    H238100   2.378   0.689   4.923  0.5204  2.7340 -0.6042
 5537TIP3   OH238101   5.647   3.248   1.485 -0.2289  0.4878  0.1359
 5537TIP3    H138102   5.641   3.340   1.511  0.8695  0.5023  0.3670
 5537TIP3    H238103   5.633   3.199   1.567 -0.3456  0.4595  0.0988
 5538TIP3   OH238104   0.542   4.959   5.359 -0.5517  0.1880 -0.1737
 5538TIP3    H138105   0.561   4.915   5.442 -0.6901  1.1882  0.4059
 5538TIP3    H238106   0.628   4.983   5.325 -0.2872 -2.9468 -1.8797
 5539TIP3   OH238107   2.200   4.734  11.761  0.3957 -0.6970 -0.3755
 5539TIP3    H138108   2.163   4.647  11.772 -1.6041  0.2529  0.5835
 5539TIP3    H238109   2.244   4.730  11.676  0.2855 -2.6113 -0.3676
 5540TIP3   OH238110   4.427   6.686  13.129 -0.7386 -0.2515 -0.1349
 5540TIP3    H138111   4.351   6.701  13.074  1.2941 -2.1395 -3.5870
 5540TIP3    H238112   4.479   6.766  13.120 -1.7076  0.5866  1.3622
 5541TIP3   OH238113   1.498   4.934  15.383  0.2756 -0.8408 -0.0097
 5541TIP3    H138114   1.439   4.972  15.448  0.4517  1.7344 -1.3051
 5541TIP3    H238115   1.579   4.915  15.432  0.4693  1.2280  0.5214
 5542TIP3   OH238116   6.778   5.749  13.573 -0.5749 -0.6488  0.5690
 5542TIP3    H138117   6.812   5.676  13.624 -0.6732  0.9207  3.0129
 5542TIP3    H238118   6.720   5.796  13.634 -0.5443  1.4236 -0.9195
 5543TIP3   OH238119   6.241   4.503  14.658  0.0347 -0.0332 -0.6097
 5543TIP3    H138120   6.249   4.464  14.745 -0.2109 -0.2582 -0.6901
 5543TIP3    H238121   6.211   4.593  14.674  1.3986  0.3974 -0.3752
 5544TIP3   OH238122   4.879   2.161   0.152  0.3931 -0.3531 -0.8949
 5544TIP3    H138123   4.857   2.252   0.174  2.7681  1.0268 -3.8981
 5544TIP3    H238124   4.795   2.122   0.125 -0.3141  1.5557 -1.5169
 5545TIP3   OH238125   2.744   0.302  16.042  0.2335 -0.1186 -0.1948
 5545TIP3    H138126   2.659   0.267  16.017 -0.4749  0.0323  1.8515
 5545TIP3    H238127   2.798   0.225  16.062 -0.5830 -0.1767  1.9947
 5546TIP3   OH238128   5.573   1.469   5.115 -0.1233  1.0306  0.8412
 5546TIP3    H138129   5.531   1.469   5.029  0.5352  0.8717  0.5149
 5546TIP3    H238130   5.652   1.523   5.103  0.2132  0.6262  1.2276
 5547TIP3   OH238131   4.693   4.237  11.850 -0.1523 -0.2026  0.2025
 5547TIP3    H138132   4.749   4.195  11.916 -1.4478 -1.9712  0.2061
 5547TIP3    H238133   4.623   4.277  11.901 -0.6269 -0.7406 -0.0268
 5548TIP3   OH238134   4.800   1.880  11.241  0.4367  0.0604 -0.4138
 5548TIP3    H138135   4.767   1.969  11.237 -0.3222 -0.0851  1.8060
 5548TIP3    H238136   4.736   1.828  11.192  0.6750  0.6629 -1.3765
 5549TIP3   OH238137   5.806   4.824  15.881 -0.1657  0.3285  0.0316
 5549TIP3    H138138   5.745   4.840  15.953  2.4730 -0.3358  2.5415
 5549TIP3    H238139   5.769   4.749  15.834 -1.6796  0.4457  1.0188
 5550TIP3   OH238140   3.701   3.034   5.803 -0.0597  0.1116 -0.1691
 5550TIP3    H138141   3.719   3.121   5.838 -1.4561  0.6675 -0.7922
 5550TIP3    H238142   3.761   3.026   5.728  0.9621  0.0203  0.6514
 5551TIP3   OH238143   4.116   2.269  11.814 -0.3573 -0.3733 -0.1186
 5551TIP3    H138144   4.145   2.227  11.733  2.4888 -0.2296  0.7736
 5551TIP3    H238145   4.196   2.307  11.851 -2.1342  2.0620  1.2932
 5552TIP3   OH238146   2.642   4.771  15.197 -0.2534 -0.0992 -0.1595
 5552TIP3    H138147   2.647   4.704  15.265 -0.7605 -2.0322 -1.9816
 5552TIP3    H238148   2.549   4.793  15.192  0.1126  2.0533  1.6231
 5553TIP3   OH238149   2.329   4.514   4.462  0.1451 -0.1609  0.0369
 5553TIP3    H138150   2.380   4.521   4.543  2.0822 -0.3515 -1.1206
 5553TIP3    H238151   2.293   4.425   4.465  1.2736 -0.6278  0.0932
 5554TIP3   OH238152   6.751   1.878  16.517 -0.4107 -0.6804  0.3002
 5554TIP3    H138153   6.664   1.914  16.498 -0.1491 -0.1163  0.1496
 5554TIP3    H238154   6.736   1.818  16.590 -0.5575  1.1788  1.8433
 5555TIP3   OH238155   5.381   3.265   3.054 -0.3690  0.4767  0.4427
 5555TIP3    H138156   5.361   3.349   3.095  1.7215  0.8358  0.7912
 5555TIP3    H238157   5.426   3.287   2.973 -0.8162 -0.2892 -0.0181
 5556TIP3   OH238158   2.293   2.124   5.400 -0.3795 -0.0294 -0.0717
 5556TIP3    H138159   2.260   2.175   5.474  0.3802  0.5338 -0.1222
 5556TIP3    H238160   2.383   2.104   5.422 -0.4398 -0.6967 -0.4082
 5557TIP3   OH238161   6.600   5.748   1.351  0.3437  0.3881 -0.3922
 5557TIP3    H138162   6.554   5.691   1.412  1.0789  0.3938  0.1745
 5557TIP3    H238163   6.692   5.736   1.372  0.4744  2.2190  0.1128
 5558TIP3   OH238164   4.122   4.810  14.164  0.1925 -0.3139 -0.3919
 5558TIP3    H138165   4.133   4.761  14.246  2.4522 -3.5089 -2.4911
 5558TIP3    H238166   4.210   4.840  14.142 -0.0037 -1.2419 -2.6294
 5559TIP3   OH238167   1.378   4.009  12.384  0.2228 -0.5082  0.1177
 5559TIP3    H138168   1.455   4.050  12.344 -0.5566 -0.1725 -1.0577
 5559TIP3    H238169   1.385   4.031  12.477  0.5332  1.1509 -0.2809
 5560TIP3   OH238170   2.022   2.946  11.474  0.0796 -0.2018 -0.1428
 5560TIP3    H138171   1.989   3.030  11.505 -1.0893 -0.7372  0.1118
 5560TIP3    H238172   1.989   2.939  11.384 -1.7934 -1.3892  0.5986
 5561TIP3   OH238173   3.009   1.249  16.854  0.1870 -0.3516 -0.0391
 5561TIP3    H138174   3.068   1.184  16.815 -0.5535 -1.0541  0.0014
 5561TIP3    H238175   2.922   1.214  16.839 -0.1268 -0.7192  2.3834
 5562TIP3   OH238176   4.789   1.529  12.460 -0.0297 -0.1445  0.3811
 5562TIP3    H138177   4.805   1.589  12.387  0.5186  0.5631  1.0625
 5562TIP3    H238178   4.795   1.585  12.538  2.0919 -1.3800  1.1444
 5563TIP3   OH238179   2.047   6.307  10.530  0.2321 -0.2009  1.1822
 5563TIP3    H138180   1.999   6.226  10.513 -1.6645  1.2304 -0.5613
 5563TIP3    H238181   2.131   6.295  10.486 -0.4057 -0.8651  0.1170
 5564TIP3   OH238182   1.630   0.826   6.474 -0.1473  0.1377 -0.2341
 5564TIP3    H138183   1.601   0.889   6.409 -1.1996  0.1211  0.2107
 5564TIP3    H238184   1.550   0.786   6.507  0.5057 -1.4243 -0.5003
 5565TIP3   OH238185   5.122   4.054   3.737 -0.0752 -0.1683 -0.2875
 5565TIP3    H138186   5.089   4.137   3.703 -2.0989 -0.8657 -0.1272
 5565TIP3    H238187   5.058   4.029   3.804  0.8603 -1.5378  0.1178
 5566TIP3   OH238188   3.192   2.635  13.657  0.4680 -0.0108 -0.1891
 5566TIP3    H138189   3.279   2.653  13.620  0.8737 -2.3235 -0.4683
 5566TIP3    H238190   3.185   2.695  13.731  1.6252  1.3492 -1.1447
 5567TIP3   OH238191   0.300   6.201   0.202 -0.3173 -0.3680  0.4238
 5567TIP3    H138192   0.293   6.242   0.288 -1.2282 -0.5354  0.4361
 5567TIP3    H238193   0.215   6.217   0.161 -0.9299 -2.8178  0.6842
 5568TIP3   OH238194   4.667   4.560  11.837 -0.1864  0.3863 -0.1293
 5568TIP3    H138195   4.582   4.517  11.841  0.5262 -1.0134  0.5163
 5568TIP3    H238196   4.722   4.509  11.897  1.1979  1.0516 -0.8102
 5569TIP3   OH238197   0.873   0.329  15.636  0.3745  0.8539 -0.2778
 5569TIP3    H138198   0.946   0.302  15.581  0.2665 -1.8005  0.8245
 5569TIP3    H238199   0.887   0.284  15.719 -2.0581  0.9892  0.2492
 5570TIP3   OH238200   1.046   6.148   5.593 -0.0712 -0.5170  0.8963
 5570TIP3    H138201   0.963   6.153   5.545  0.0105  0.6575  0.8733
 5570TIP3    H238202   1.080   6.061   5.573 -0.6093 -0.4688 -0.2401
 5571TIP3   OH238203   3.312   4.916  14.930 -0.1759 -0.1616 -0.4806
 5571TIP3    H138204   3.325   5.011  14.925  2.1334 -0.4681 -1.0079
 5571TIP3    H238205   3.217   4.904  14.935 -0.4158  2.2760  1.6793
 5572TIP3   OH238206   5.335   4.039   4.492 -0.4003 -0.3497 -0.0674
 5572TIP3    H138207   5.304   4.023   4.403 -1.6579  1.9423 -0.0686
 5572TIP3    H238208   5.404   4.104   4.482 -0.2484 -0.4021  0.6092
 5573TIP3   OH238209   0.999   2.286  12.643  0.5194  1.0670  0.1326
 5573TIP3    H138210   1.023   2.346  12.572  1.6216  0.7309  0.2076
 5573TIP3    H238211   1.083   2.259  12.681 -0.0065  0.2339  0.7297
 5574TIP3   OH238212   5.818   4.183   3.219 -0.0839  0.4019  0.0992
 5574TIP3    H138213   5.878   4.190   3.145 -0.3202  1.4276  0.0006
 5574TIP3    H238214   5.752   4.121   3.190  0.9737 -0.8175  0.2451
 5575TIP3   OH238215   1.753   1.797   0.023 -0.5579 -0.4747  0.2545
 5575TIP3    H138216   1.660   1.778   0.016 -0.6367  0.4293 -1.2347
 5575TIP3    H238217   1.767   1.872  -0.035  0.8490  0.2217  1.4553
 5576TIP3   OH238218   5.306   1.105   1.051 -0.6757  0.1443  0.0777
 5576TIP3    H138219   5.272   1.129   1.137 -2.0953 -0.5616 -0.2729
 5576TIP3    H238220   5.239   1.134   0.989  1.3973  2.8355 -1.0234
 5577TIP3   OH238221   2.188   4.225  13.744 -0.1890  0.0798  0.0390
 5577TIP3    H138222   2.124   4.279  13.698 -1.5225 -0.6499  1.0177
 5577TIP3    H238223   2.236   4.180  13.674  0.5683  2.0891 -0.7624
 5578TIP3   OH238224   6.274   2.269  15.141  0.3284  0.3244 -0.1174
 5578TIP3    H138225   6.216   2.196  15.117 -2.2787  1.8126  1.4540
 5578TIP3    H238226   6.334   2.277  15.067 -2.4191 -0.3388 -2.5102
 5579TIP3   OH238227   5.560   2.138  12.028  0.6599 -0.4136  0.0773
 5579TIP3    H138228   5.533   2.114  11.940  1.0610 -0.3857 -0.0510
 5579TIP3    H238229   5.655   2.144  12.024  0.5596  1.4133  0.0434
 5580TIP3   OH238230   4.523   0.814  13.029 -1.0256  0.4578  0.8349
 5580TIP3    H138231   4.576   0.893  13.024  0.5354 -0.6295 -0.1905
 5580TIP3    H238232   4.581   0.748  13.068 -2.2180 -0.2790  1.4273
 5581TIP3   OH238233   4.257   2.120  13.992 -0.2264  0.0947 -0.4432
 5581TIP3    H138234   4.214   2.141  14.075  0.8676  1.2178 -0.1360
 5581TIP3    H238235   4.277   2.205  13.953  1.5655 -0.3959 -0.6445
 5582TIP3   OH238236   2.643   3.781   2.140 -0.2695  0.4157 -0.4495
 5582TIP3    H138237   2.626   3.809   2.050 -0.3783  1.6441 -0.0529
 5582TIP3    H238238   2.558   3.787   2.183 -0.0861  0.4529 -0.0934
 5583TIP3   OH238239   1.043   6.310  12.170  0.4787  0.7952  0.5663
 5583TIP3    H138240   0.991   6.390  12.184 -0.4197  0.2666  0.2908
 5583TIP3    H238241   0.979   6.245  12.142  1.0851 -0.2516  1.5915
 5584TIP3   OH238242   3.755   6.299   6.744 -0.3094  0.0291  0.0794
 5584TIP3    H138243   3.734   6.207   6.762  2.0540 -0.5091  0.2787
 5584TIP3    H238244   3.708   6.319   6.664 -1.4965 -1.1141  0.4746
 5585TIP3   OH238245   1.581   5.348   0.834 -0.3892 -0.1783  0.8281
 5585TIP3    H138246   1.558   5.321   0.746 -0.7036 -2.4310  1.5654
 5585TIP3    H238247   1.498   5.378   0.872 -0.3461  0.3414  0.5103
 5586TIP3   OH238248   6.663   4.403   4.945  0.6857  0.0508 -0.0549
 5586TIP3    H138249   6.602   4.372   4.877 -0.7307  0.0191  1.2018
 5586TIP3    H238250   6.645   4.348   5.020  2.6285 -0.2612  0.2008
 5587TIP3   OH238251   5.571   1.056   4.125  0.9445  0.5456 -0.4007
 5587TIP3    H138252   5.537   0.969   4.147 -1.4641  1.4934 -0.1551
 5587TIP3    H238253   5.654   1.062   4.171  0.9441 -1.4583 -0.0871
 5588TIP3   OH238254   5.833   5.917   5.308  0.3874 -0.5849  0.1277
 5588TIP3    H138255   5.918   5.890   5.343 -0.5567 -1.8748  1.5435
 5588TIP3    H238256   5.840   6.011   5.298  1.8379 -0.6168  0.6780
 5589TIP3   OH238257   3.383   3.800   1.434  0.6104 -0.5552  0.0224
 5589TIP3    H138258   3.416   3.871   1.379  0.7149 -0.0348  0.7452
 5589TIP3    H238259   3.349   3.736   1.372 -1.6448  1.1804 -0.6173
 5590TIP3   OH238260   5.472   4.324  14.125  0.5734  0.4430 -0.1004
 5590TIP3    H138261   5.550   4.350  14.076 -1.5395  1.0222 -3.3133
 5590TIP3    H238262   5.452   4.236  14.094  0.6352 -0.2124  1.6482
 5591TIP3   OH238263   6.804   4.514  12.712 -0.9047  0.1933  0.7501
 5591TIP3    H138264   6.824   4.567  12.789  0.8476 -0.5860  0.8444
 5591TIP3    H238265   6.815   4.574  12.638 -0.5072  0.3860  0.9647
 5592TIP3   OH238266   1.084   4.756   3.585  0.1553  0.1503  0.1092
 5592TIP3    H138267   1.012   4.819   3.592 -0.2838 -0.2941 -0.2806
 5592TIP3    H238268   1.162   4.809   3.569 -0.3466  0.5374 -1.0906
 5593TIP3   OH238269   1.388   0.946  11.332 -0.0086 -0.1484 -0.0986
 5593TIP3    H138270   1.395   1.038  11.358 -3.2028 -0.0651  0.7205
 5593TIP3    H238271   1.363   0.950  11.239  1.3068 -0.2222 -0.4564
 5594TIP3   OH238272   5.423   6.700   0.190 -0.0065  0.1249  0.2499
 5594TIP3    H138273   5.435   6.659   0.104  0.9021 -1.9610  1.3306
 5594TIP3    H238274   5.366   6.640   0.237  1.0953  0.2416  1.7560
 5595TIP3   OH238275   5.462   0.628   2.148  0.0827 -0.1377 -0.1243
 5595TIP3    H138276   5.491   0.573   2.221  1.3574  0.9576  0.1978
 5595TIP3    H238277   5.437   0.565   2.080 -2.3761 -1.2066  1.7004
 5596TIP3   OH238278   2.082   0.850   4.190  0.9912 -0.0453 -0.2898
 5596TIP3    H138279   2.137   0.861   4.112  0.1857 -2.5030 -1.2402
 5596TIP3    H238280   1.994   0.838   4.155  0.1000  2.0031  1.1600
 5597TIP3   OH238281   3.479   6.569   5.803  0.1151 -0.0297  0.3290
 5597TIP3    H138282   3.449   6.479   5.792  1.8083 -0.3527 -1.9979
 5597TIP3    H238283   3.566   6.561   5.843  0.6287  0.5146 -0.6529
 5598TIP3   OH238284   3.109   2.649  10.123  0.7406 -0.4118 -0.0919
 5598TIP3    H138285   3.158   2.717  10.169 -2.5759  0.9834  1.5784
 5598TIP3    H238286   3.155   2.568  10.143  2.7252  0.9146  0.8194
 5599TIP3   OH238287   3.377   6.432  12.437 -0.2400  0.2828  0.1900
 5599TIP3    H138288   3.369   6.424  12.532 -2.4488 -1.5719 -0.1059
 5599TIP3    H238289   3.444   6.369  12.413 -0.8392 -0.4351  0.3677
 5600TIP3   OH238290   0.207   6.735  12.311 -0.1026  0.3699 -0.3267
 5600TIP3    H138291   0.200   6.667  12.244  1.8229 -0.6000  0.4176
 5600TIP3    H238292   0.260   6.803  12.272  1.2008 -0.2914  0.2605
 5601TIP3   OH238293   4.226   4.124   5.672  0.3619  0.4184 -0.4572
 5601TIP3    H138294   4.278   4.145   5.749  0.8110 -0.0368 -0.6335
 5601TIP3    H238295   4.206   4.209   5.632 -1.3881  0.7813  1.1372
 5602TIP3   OH238296   6.530   0.217  10.691  0.7342 -0.2054  0.3331
 5602TIP3    H138297   6.572   0.295  10.654 -1.5234  0.5235 -0.8119
 5602TIP3    H238298   6.516   0.160  10.615 -0.7350 -0.2232  0.6075
 5603TIP3   OH238299   4.843   3.486   2.567  0.1689  0.8347 -0.1609
 5603TIP3    H138300   4.857   3.457   2.657  0.7490  0.2907 -0.4208
 5603TIP3    H238301   4.769   3.433   2.537  0.4684  0.4649 -0.2508
 5604TIP3   OH238302   5.419   6.304   3.974 -0.2990 -0.6299 -0.4308
 5604TIP3    H138303   5.464   6.350   3.903 -1.8004  0.6835 -0.5469
 5604TIP3    H238304   5.340   6.354   3.989 -1.4691 -2.6003  0.1605
 5605TIP3   OH238305   2.002   6.211   5.913 -0.2257  0.0894  0.1022
 5605TIP3    H138306   2.021   6.279   5.977  1.6100 -0.5045  0.2262
 5605TIP3    H238307   2.042   6.243   5.832 -0.7149 -0.1101 -0.2162
 5606TIP3   OH238308   2.533   1.041   6.386 -0.0957 -0.5934 -0.2593
 5606TIP3    H138309   2.473   0.971   6.362 -2.6043  1.2240  0.4904
 5606TIP3    H238310   2.604   0.997   6.432 -1.3174 -2.6944 -0.3141
 5607TIP3   OH238311   5.895   0.399   1.736  0.3423  0.2891  0.3403
 5607TIP3    H138312   5.956   0.343   1.686  1.3590  2.3745 -0.8113
 5607TIP3    H238313   5.826   0.339   1.764  1.8413 -1.7271 -0.1301
 5608TIP3   OH238314   0.192   1.131   5.016  0.1761  0.1717  0.1966
 5608TIP3    H138315   0.162   1.062   5.076 -0.7484  0.4095  0.0016
 5608TIP3    H238316   0.170   1.212   5.060 -2.1225  0.3682 -1.2577
 5609TIP3   OH238317   6.584   1.119  13.401  0.5499 -0.0116  0.2754
 5609TIP3    H138318   6.506   1.095  13.352  0.5872 -2.3035  1.2562
 5609TIP3    H238319   6.556   1.191  13.457 -1.2498 -1.6910  1.5929
 5610TIP3   OH238320   4.839   4.997   2.852 -0.1894 -0.4636  0.7167
 5610TIP3    H138321   4.922   4.956   2.879  0.8431 -0.3450 -2.1773
 5610TIP3    H238322   4.781   4.923   2.834  0.8892 -0.6600 -2.0896
 5611TIP3   OH238323   3.367   0.700  11.554 -0.1590  0.3775  0.3020
 5611TIP3    H138324   3.451   0.673  11.518  2.2415  1.3577  4.7923
 5611TIP3    H238325   3.327   0.618  11.584  0.3669  0.1741  0.4605
 5612TIP3   OH238326   0.847   3.192  14.090 -0.6210 -0.8187  0.0536
 5612TIP3    H138327   0.885   3.107  14.111 -0.0898 -0.8284 -0.9056
 5612TIP3    H238328   0.788   3.175  14.016 -1.9023 -0.6675  1.0295
 5613TIP3   OH238329   4.284   3.081   6.315 -0.0611 -0.1414  0.0996
 5613TIP3    H138330   4.201   3.041   6.341 -0.6469  1.5249  0.8556
 5613TIP3    H238331   4.261   3.169   6.287  1.4491  0.2958  0.1745
 5614TIP3   OH238332   1.493   3.544   2.978 -0.2367  0.4502 -0.0942
 5614TIP3    H138333   1.524   3.460   3.012 -0.5342 -0.0510 -1.0429
 5614TIP3    H238334   1.550   3.561   2.903 -0.0655  1.1815  0.2060
 5615TIP3   OH238335   6.368   5.403  14.932  0.8160  0.1832 -0.4357
 5615TIP3    H138336   6.393   5.452  14.854  1.4709  0.0149 -0.3305
 5615TIP3    H238337   6.309   5.462  14.979  0.4710  0.3101 -1.0215
 5616TIP3   OH238338   3.408   6.509   0.618  0.1071  0.1136 -0.1822
 5616TIP3    H138339   3.382   6.600   0.600  1.2969  0.3616 -0.6645
 5616TIP3    H238340   3.424   6.472   0.531  2.2316  0.2269  0.1405
 5617TIP3   OH238341   6.754   6.202  14.120 -0.8662  0.0433  0.9058
 5617TIP3    H138342   6.692   6.244  14.179  0.2526  1.3045  1.2003
 5617TIP3    H238343   6.798   6.274  14.076  1.5406 -0.7841  1.8947
 5618TIP3   OH238344   3.847   0.688  13.284  0.4357 -0.7031  0.4389
 5618TIP3    H138345   3.800   0.623  13.231 -0.9002 -0.5389  1.4019
 5618TIP3    H238346   3.939   0.660  13.279  0.2733 -0.9431 -1.5816
 5619TIP3   OH238347   3.137   4.750  13.357  0.2800 -0.3011 -0.0972
 5619TIP3    H138348   3.114   4.791  13.440 -1.7841 -1.2821 -0.1383
 5619TIP3    H238349   3.079   4.674  13.351  0.2887 -0.1634 -2.5029
 5620TIP3   OH238350   6.577   0.394  14.096 -0.2689 -0.0431  0.4294
 5620TIP3    H138351   6.643   0.325  14.104 -0.7942 -0.2510  3.6567
 5620TIP3    H238352   6.616   0.469  14.142 -0.5519  1.1728 -1.2870
 5621TIP3   OH238353   4.012   2.147   0.302  0.4009 -0.1637  0.8453
 5621TIP3    H138354   4.033   2.214   0.237 -0.1140 -1.7835 -1.0262
 5621TIP3    H238355   3.924   2.170   0.331 -1.0718 -1.7214 -2.0940
 5622TIP3   OH238356   5.132   6.014   1.580 -0.0665  0.3786  0.3559
 5622TIP3    H138357   5.127   6.096   1.630 -1.8636  1.5611 -1.6890
 5622TIP3    H238358   5.042   5.994   1.557  0.5631 -1.0910 -0.9095
 5623TIP3   OH238359   5.260   5.441   4.183  0.0566 -0.5428  0.2811
 5623TIP3    H138360   5.221   5.396   4.108 -3.8418  0.4668  1.5633
 5623TIP3    H238361   5.286   5.371   4.242  1.1100 -1.2773 -1.0293
 5624TIP3   OH238362   5.907   1.615  12.595 -0.3728 -0.1764  0.1428
 5624TIP3    H138363   5.889   1.562  12.673 -0.3407 -2.5005 -1.3826
 5624TIP3    H238364   5.827   1.607  12.543  0.2176  0.0657 -0.7947
 5625TIP3   OH238365   5.239   2.195   3.901  0.3737 -0.2939 -0.0989
 5625TIP3    H138366   5.318   2.248   3.898  0.0124  0.1908 -1.3824
 5625TIP3    H238367   5.220   2.184   3.994  0.8682  1.2043  0.1881
 5626TIP3   OH238368   5.947   2.342   0.213  0.4358 -0.4791 -0.4857
 5626TIP3    H138369   5.963   2.273   0.277 -0.0973 -0.9535 -0.8535
 5626TIP3    H238370   6.034   2.366   0.181  0.5854 -1.4213 -0.8024
 5627TIP3   OH238371   1.604   6.177   0.627 -0.0741 -0.8582  0.2884
 5627TIP3    H138372   1.539   6.242   0.601 -1.1141 -2.2050 -0.5168
 5627TIP3    H238373   1.630   6.204   0.716 -1.4530 -0.0960  0.4779
 5628TIP3   OH238374   1.874   2.601   0.152  0.2574 -0.3444  0.0798
 5628TIP3    H138375   1.969   2.612   0.144  0.0666  1.3015 -0.1262
 5628TIP3    H238376   1.837   2.672   0.100 -1.1406 -2.9194 -2.6222
 5629TIP3   OH238377   1.573   5.968   1.192 -0.6648 -0.3034  0.2705
 5629TIP3    H138378   1.584   5.965   1.097 -0.4314  1.4884  0.2176
 5629TIP3    H238379   1.484   6.000   1.205 -0.9608 -1.2606  0.6701
 5630TIP3   OH238380   4.011   6.314   4.065 -0.2257  0.6468  0.1362
 5630TIP3    H138381   3.976   6.324   3.977 -2.3016 -0.8830  0.7603
 5630TIP3    H238382   3.942   6.270   4.114  2.7015 -2.9177  1.3039
 5631TIP3   OH238383   3.862   1.805  11.963  0.0872  0.0589 -0.0427
 5631TIP3    H138384   3.921   1.872  11.929 -1.2137  0.4808 -1.5130
 5631TIP3    H238385   3.899   1.722  11.932 -0.9184  0.4183 -2.3101
 5632TIP3   OH238386   2.053   2.138   3.758 -0.9989 -0.2950  0.0648
 5632TIP3    H138387   2.142   2.151   3.792 -1.3386 -0.7904  1.1915
 5632TIP3    H238388   2.062   2.074   3.688 -0.4994 -0.5629  0.3723
 5633TIP3   OH238389   6.593   0.346   3.001  0.6030  0.3514  0.1514
 5633TIP3    H138390   6.543   0.288   3.058 -0.2631  0.3832 -0.5654
 5633TIP3    H238391   6.643   0.401   3.062  0.8500 -0.6178  0.8451
 5634TIP3   OH238392   4.765   0.364   0.533  0.3948  0.2128  0.6574
 5634TIP3    H138393   4.786   0.279   0.497  0.7701  0.1295  1.0705
 5634TIP3    H238394   4.673   0.377   0.511  0.4747 -0.0690  0.1445
 5635TIP3   OH238395   4.283   4.354  17.130  0.1906  0.0504  0.2360
 5635TIP3    H138396   4.263   4.432  17.181 -0.8819 -0.2269  0.2513
 5635TIP3    H238397   4.214   4.350  17.064  1.0059 -0.1344 -0.6287
 5636TIP3   OH238398   1.501   0.038   0.100 -0.0641 -0.2077  0.1100
 5636TIP3    H138399   1.564   0.099   0.138 -1.3701  0.7124  0.8134
 5636TIP3    H238400   1.514  -0.043   0.149 -0.2845  0.3465  1.0874
 5637TIP3   OH238401   1.379   0.591   1.300 -0.2773 -0.2778  0.1537
 5637TIP3    H138402   1.289   0.620   1.312 -0.4054 -0.5447 -0.1634
 5637TIP3    H238403   1.373   0.496   1.293  0.1645 -0.4025  1.3912
 5638TIP3   OH238404   3.749   4.362  15.153  0.0360 -0.2108 -0.2611
 5638TIP3    H138405   3.831   4.332  15.192 -0.5184 -0.3043  0.8519
 5638TIP3    H238406   3.743   4.454  15.178 -0.9269 -0.5882  0.9310
 5639TIP3   OH238407   1.228   6.729  12.019 -0.3656  0.3501  0.0035
 5639TIP3    H138408   1.148   6.697  12.061 -0.3463  1.5043  0.9508
 5639TIP3    H238409   1.263   6.793  12.080  2.6121 -1.8524  0.6875
 5640TIP3   OH238410   2.808   5.927  17.171  0.6587 -0.5238  0.0490
 5640TIP3    H138411   2.817   5.876  17.252  0.0341  0.0402  0.4810
 5640TIP3    H238412   2.759   6.005  17.197  1.0668  0.0019 -0.7317
 5641TIP3   OH238413   5.298   2.903   5.173  0.0864  0.2073 -0.2473
 5641TIP3    H138414   5.297   2.923   5.266 -1.2701  0.0922 -0.2375
 5641TIP3    H238415   5.283   2.987   5.130  0.7173  0.2612 -0.3757
 5642TIP3   OH238416   1.603   2.139   1.044 -0.0342 -0.1261 -0.7893
 5642TIP3    H138417   1.653   2.141   1.125 -1.0753  1.1819 -0.1680
 5642TIP3    H238418   1.622   2.222   1.002 -2.9339  1.1062  0.2314
 5643TIP3   OH238419   5.866   4.603   1.981  0.3823 -0.2304 -0.4237
 5643TIP3    H138420   5.954   4.623   1.951  0.6091 -0.1359  0.2928
 5643TIP3    H238421   5.878   4.538   2.050 -0.1582 -0.7394 -0.8131
 5644TIP3   OH238422   6.585   1.569   2.966 -0.1165  0.0416 -0.2149
 5644TIP3    H138423   6.634   1.608   2.894 -0.1693 -1.4050 -1.0315
 5644TIP3    H238424   6.647   1.568   3.039  0.1149  0.9695 -0.3896
 5645TIP3   OH238425   6.287   2.271  10.382 -0.0183 -0.2469  0.2350
 5645TIP3    H138426   6.205   2.295  10.426  0.1984 -0.2680  0.6569
 5645TIP3    H238427   6.354   2.291  10.447  0.2745 -0.6623  0.0557
 5646TIP3   OH238428   2.790   1.683   0.999 -0.6117  0.7063  0.3094
 5646TIP3    H138429   2.823   1.719   0.916 -1.0268 -0.4653 -0.3774
 5646TIP3    H238430   2.868   1.655   1.046 -0.1818  3.4476  1.3359
 5647TIP3   OH238431   3.605   1.703  13.619 -0.8396 -0.2744  0.0734
 5647TIP3    H138432   3.565   1.617  13.609 -1.9705  0.3323 -0.7351
 5647TIP3    H238433   3.564   1.757  13.552 -1.6501  1.4452  1.8911
 5648TIP3   OH238434   1.173   6.817  14.768 -0.0485  0.1075  0.1698
 5648TIP3    H138435   1.110   6.811  14.696  0.8065  0.6653 -0.6239
 5648TIP3    H238436   1.146   6.748  14.829 -1.2416  0.1362 -0.3119
 5649TIP3   OH238437   3.351   5.851   4.215 -0.3179  0.0082  0.7142
 5649TIP3    H138438   3.290   5.799   4.162  0.6372 -1.1265  0.7104
 5649TIP3    H238439   3.297   5.886   4.286 -0.6957 -2.2528  1.5908
 5650TIP3   OH238440   0.602   3.790  11.712 -0.1526 -0.6391  0.4461
 5650TIP3    H138441   0.675   3.852  11.704  1.2698 -2.3233 -0.1203
 5650TIP3    H238442   0.631   3.729  11.780 -1.5528 -0.6366  1.0413
 5651TIP3   OH238443   2.142   5.772   4.837 -0.0624 -0.2484  0.4029
 5651TIP3    H138444   2.204   5.707   4.806  0.2630  0.1554  0.2034
 5651TIP3    H238445   2.076   5.722   4.886 -0.6053 -0.9040 -0.9712
 5652TIP3   OH238446   1.523   3.292   1.802 -0.4540 -0.2175  0.1211
 5652TIP3    H138447   1.429   3.272   1.808 -0.4779 -0.0738  0.2184
 5652TIP3    H238448   1.565   3.225   1.855 -0.5479  0.0972  0.5954
 5653TIP3   OH238449   3.103   0.993  12.227  0.0331 -0.1405  0.1362
 5653TIP3    H138450   3.194   1.017  12.211 -0.5075  1.8580  0.0007
 5653TIP3    H238451   3.083   0.929  12.158  1.2004 -0.2872 -0.0758
 5654TIP3   OH238452   1.295   4.736  16.842 -0.1272 -0.3552 -0.5347
 5654TIP3    H138453   1.214   4.730  16.792  2.0319 -2.0253 -3.9833
 5654TIP3    H238454   1.274   4.693  16.925 -2.9289 -0.1736 -1.0774
 5655TIP3   OH238455   1.428   4.116   4.312  0.1012  0.2154  0.4928
 5655TIP3    H138456   1.401   4.093   4.223 -2.4456  1.6912  0.8473
 5655TIP3    H238457   1.484   4.193   4.300  1.7102 -0.9836  0.0199
 5656TIP3   OH238458   1.520   4.596   5.183 -0.4289  0.2682 -0.6954
 5656TIP3    H138459   1.499   4.592   5.089 -2.6508 -0.1452 -0.1865
 5656TIP3    H238460   1.484   4.680   5.212  0.4249  0.4835 -0.2280
 5657TIP3   OH238461   0.617   1.037   5.446  0.0560  0.5916 -0.3192
 5657TIP3    H138462   0.704   1.007   5.423  0.0670  0.0770  0.3803
 5657TIP3    H238463   0.558   0.990   5.387  0.3714  2.3842 -2.1385
 5658TIP3   OH238464   6.240   1.043   4.766  0.1067  0.5812 -0.9686
 5658TIP3    H138465   6.313   1.091   4.727 -0.3347  1.5077 -0.6602
 5658TIP3    H238466   6.262   1.037   4.859  2.4394 -3.8981 -1.6765
 5659TIP3   OH238467   6.025   0.774  13.836  0.7415 -0.0543 -0.0721
 5659TIP3    H138468   6.108   0.803  13.873  0.9903 -3.6127  2.4308
 5659TIP3    H238469   6.049   0.719  13.762  0.5193  0.3307 -0.4367
 5660TIP3   OH238470   1.128   2.559   1.628  0.5983  0.7781  0.2970
 5660TIP3    H138471   1.180   2.506   1.688 -0.1756  0.3771  0.6205
 5660TIP3    H238472   1.094   2.497   1.564  0.5750  1.0540  0.0400
 5661TIP3   OH238473   4.585   3.028  15.962  0.1588 -0.0968  0.0287
 5661TIP3    H138474   4.620   3.069  16.041 -1.4861  0.0996  0.6768
 5661TIP3    H238475   4.554   3.101  15.909  0.1216 -0.3012 -0.2309
 5662TIP3   OH238476   0.469   1.381   1.453 -0.3135 -0.0503  0.0264
 5662TIP3    H138477   0.525   1.434   1.510 -1.2403  1.0160 -0.0442
 5662TIP3    H238478   0.525   1.308   1.425  0.6356  0.3011  0.9980
 5663TIP3   OH238479   0.408   0.972   5.601  0.2098  0.3428  0.4160
 5663TIP3    H138480   0.429   0.998   5.691  0.6035  0.8346  0.1867
 5663TIP3    H238481   0.488   0.989   5.552  0.1722 -0.4397  0.0737
 5664TIP3   OH238482   4.024   3.733  17.136 -0.2704 -0.4311  0.3004
 5664TIP3    H138483   4.089   3.770  17.077  0.6402  0.0808  1.6054
 5664TIP3    H238484   4.025   3.640  17.117  0.6078 -0.3806  0.0738
 5665TIP3   OH238485   6.257   1.835  14.225  0.6024 -0.7643  0.1421
 5665TIP3    H138486   6.180   1.873  14.267  1.0467  0.6068 -0.2885
 5665TIP3    H238487   6.251   1.860  14.133 -0.0115 -3.2029 -0.5370
 5666TIP3   OH238488   5.644   5.886   4.564  0.0414 -0.0024 -0.6098
 5666TIP3    H138489   5.599   5.873   4.481  0.3996  0.3697 -0.8581
 5666TIP3    H238490   5.600   5.962   4.603 -1.2908 -1.2164  0.3329
 5667TIP3   OH238491   3.352   5.441  15.018  0.0465 -0.6334  0.2271
 5667TIP3    H138492   3.311   5.511  14.968 -0.2034 -0.8900  0.0719
 5667TIP3    H238493   3.433   5.480  15.052 -1.0995  0.3513  1.8828
 5668TIP3   OH238494   4.151   4.700  10.534  0.0572 -0.0365  0.2855
 5668TIP3    H138495   4.221   4.754  10.499  0.8564 -1.4106 -0.2777
 5668TIP3    H238496   4.071   4.750  10.518  0.9095  1.6765  1.1887
 5669TIP3   OH238497   4.748   3.305   5.524  0.0913 -0.4525 -0.8509
 5669TIP3    H138498   4.766   3.344   5.610  0.0249  1.8251 -1.8193
 5669TIP3    H238499   4.652   3.303   5.518  0.0942 -0.9550 -0.7171
 5670TIP3   OH238500   2.819   5.274  12.454  0.2211  0.3314 -0.0949
 5670TIP3    H138501   2.804   5.365  12.427  0.0312  0.0277 -1.0577
 5670TIP3    H238502   2.732   5.240  12.475  0.4385  0.7389  1.4902
 5671TIP3   OH238503   5.232   5.226   1.422 -0.0921  0.6883 -0.4131
 5671TIP3    H138504   5.138   5.243   1.410 -0.4980 -0.5192  0.8416
 5671TIP3    H238505   5.265   5.304   1.467 -0.9700  0.2148  1.1124
 5672TIP3   OH238506   0.877   4.365  17.207 -0.0852  0.6828 -0.2162
 5672TIP3    H138507   0.937   4.291  17.196  0.0496  0.8622 -0.7165
 5672TIP3    H238508   0.792   4.323  17.221 -0.5101  0.3663 -3.2012
 5673TIP3   OH238509   6.201   0.589   7.067  0.1334  0.1269 -0.1512
 5673TIP3    H138510   6.137   0.660   7.074 -0.5768 -0.5753  0.5935
 5673TIP3    H238511   6.151   0.510   7.087  0.7356 -0.6777 -1.7496
 5674TIP3   OH238512   1.781   4.269  10.702 -0.4724  0.4405  0.2906
 5674TIP3    H138513   1.688   4.249  10.695 -0.5557  0.7841  0.4325
 5674TIP3    H238514   1.819   4.191  10.741 -0.5782 -0.0214 -0.5233
 5675TIP3   OH238515   3.755   5.129  12.738 -0.3190  0.1583  0.0359
 5675TIP3    H138516   3.818   5.070  12.695  0.7628  1.4480 -0.1871
 5675TIP3    H238517   3.746   5.094  12.826 -1.4502 -1.6708 -0.7809
 5676TIP3   OH238518   0.324   5.363   0.851 -0.3189 -0.2256 -0.1232
 5676TIP3    H138519   0.376   5.285   0.829 -0.8826 -1.0897  1.4875
 5676TIP3    H238520   0.302   5.351   0.944  0.0759  2.1422  0.3049
 5677TIP3   OH238521   0.817   1.199  16.224  0.0652  0.0479  0.1312
 5677TIP3    H138522   0.766   1.191  16.304  0.3954 -2.3549  0.1400
 5677TIP3    H238523   0.842   1.109  16.202  1.8152  0.8848 -1.4751
 5678TIP3   OH238524   5.685   3.070  13.741 -0.7818  0.4026 -0.7158
 5678TIP3    H138525   5.646   2.997  13.788  0.2594 -0.1386 -0.6823
 5678TIP3    H238526   5.722   3.031  13.662  1.2110  0.6139  0.0968
 5679TIP3   OH238527   1.765   3.576   2.327  0.0779  0.0977 -0.5732
 5679TIP3    H138528   1.734   3.488   2.306  1.1875 -0.2930 -0.6222
 5679TIP3    H238529   1.690   3.632   2.311 -1.3339 -1.1004  1.6271
 5680TIP3   OH238530   3.431   3.589  13.051 -0.4705 -0.1468 -0.7742
 5680TIP3    H138531   3.354   3.645  13.038 -1.1400 -1.3869 -2.3977
 5680TIP3    H238532   3.407   3.532  13.124 -0.2739  0.8688  0.0782
 5681TIP3   OH238533   1.800   3.605  13.204  0.4219  0.3154  0.4569
 5681TIP3    H138534   1.777   3.559  13.285  0.9022 -0.6553  0.0543
 5681TIP3    H238535   1.734   3.674  13.196 -0.1445 -0.1228  1.2324
 5682TIP3   OH238536   1.675   6.800  13.057 -0.1709  0.0691 -0.3961
 5682TIP3    H138537   1.586   6.823  13.033  0.9168  1.9831 -2.8474
 5682TIP3    H238538   1.673   6.791  13.153 -3.1703 -1.0341 -0.5011
 5683TIP3   OH238539   2.108   2.793   3.881 -0.0059 -0.0695 -0.1678
 5683TIP3    H138540   2.113   2.706   3.921 -0.4622  0.4783  1.1059
 5683TIP3    H238541   2.173   2.791   3.810 -0.4934 -1.6603 -0.5880
 5684TIP3   OH238542   0.454   5.391   4.693 -0.3026  0.2656 -0.1751
 5684TIP3    H138543   0.476   5.316   4.749 -1.0437  1.0132  1.1099
 5684TIP3    H238544   0.479   5.362   4.605 -0.6753 -1.5345  0.2952
 5685TIP3   OH238545   2.146   5.844  16.295 -0.0330  0.3397  0.2183
 5685TIP3    H138546   2.213   5.874  16.356  0.0813  0.6936 -0.0830
 5685TIP3    H238547   2.063   5.859  16.340  0.0503  0.6221  0.2766
 5686TIP3   OH238548   4.423   6.510   3.092  0.2691 -0.2999  0.5316
 5686TIP3    H138549   4.519   6.518   3.091  0.3262 -0.9795  0.0040
 5686TIP3    H238550   4.401   6.477   3.005 -0.2988 -1.7273  1.1991
 5687TIP3   OH238551   5.525   5.101  14.818  0.0014  0.3192 -0.0075
 5687TIP3    H138552   5.461   5.033  14.796 -0.8361  0.5957  1.4818
 5687TIP3    H238553   5.608   5.054  14.826 -0.3915 -0.3736  0.0507
 5688TIP3   OH238554   4.872   5.369  16.341  0.1043 -0.0572 -0.1744
 5688TIP3    H138555   4.817   5.435  16.298  1.2628 -0.5549 -2.4954
 5688TIP3    H238556   4.911   5.320  16.269  1.0685 -1.8030  1.4964
 5689TIP3   OH238557   4.859   5.755   0.264 -0.2978 -0.0906 -0.7198
 5689TIP3    H138558   4.873   5.730   0.356  1.3038  1.4362 -0.5215
 5689TIP3    H238559   4.780   5.708   0.238  0.7122 -2.6545  0.6500
 5690TIP3   OH238560   4.203   6.009  16.880  0.1042 -0.1193 -0.3801
 5690TIP3    H138561   4.228   5.923  16.845  2.1614  0.0508  0.5692
 5690TIP3    H238562   4.193   5.995  16.974 -0.5061  0.4759 -0.3556
 5691TIP3   OH238563   1.601   5.597  13.461  0.1712  0.2797 -0.3506
 5691TIP3    H138564   1.608   5.665  13.527 -0.2923  0.5649 -0.5923
 5691TIP3    H238565   1.509   5.571  13.463  0.3236 -0.2682 -0.3298
 5692TIP3   OH238566   0.000   1.073   4.103 -0.0635 -0.6128 -0.4447
 5692TIP3    H138567   0.076   1.103   4.153  0.2056  0.0418 -1.2148
 5692TIP3    H238568   0.017   0.981   4.086 -0.0699 -0.7862  0.5117
 5693TIP3   OH238569   4.709   5.696   0.966 -0.0190  0.3018  0.3785
 5693TIP3    H138570   4.628   5.733   0.930 -0.2980 -0.8829 -0.2631
 5693TIP3    H238571   4.739   5.760   1.029 -0.5055  1.5971 -0.6760
 5694TIP3   OH238572   0.550   0.684   1.350 -0.0425 -0.0356  0.3508
 5694TIP3    H138573   0.638   0.679   1.311 -0.0141 -2.6641  0.6943
 5694TIP3    H238574   0.491   0.672   1.276 -0.0444 -1.7898  0.6313
 5695TIP3   OH238575   6.169   5.614   5.503  0.1743 -0.0462  0.1821
 5695TIP3    H138576   6.145   5.628   5.595 -0.7632 -1.4499  0.1744
 5695TIP3    H238577   6.105   5.666   5.453 -1.4051 -1.8486  0.2451
 5696TIP3   OH238578   2.385   0.840   4.536 -0.1599  0.2048  0.4787
 5696TIP3    H138579   2.425   0.913   4.584 -1.1544  0.1999  1.3443
 5696TIP3    H238580   2.385   0.767   4.599 -1.2818  0.1401  0.4223
 5697TIP3   OH238581   0.783   2.487  13.644  1.0486 -0.3726 -0.0768
 5697TIP3    H138582   0.709   2.473  13.585 -0.4023  1.4323  1.2706
 5697TIP3    H238583   0.768   2.573  13.682  4.1976  0.3230 -0.2506
 5698TIP3   OH238584   6.429   6.662   2.243 -0.0203  0.6486  0.2880
 5698TIP3    H138585   6.443   6.581   2.293 -0.6963  1.0109  1.0766
 5698TIP3    H238586   6.401   6.726   2.309 -1.5145  0.9757 -0.6447
 5699TIP3   OH238587   1.673   3.661   1.106 -0.2105 -0.0868 -0.0779
 5699TIP3    H138588   1.734   3.657   1.180 -1.2479  0.4918  0.8301
 5699TIP3    H238589   1.686   3.578   1.060  0.1743 -0.6252  0.9682
 5700TIP3   OH238590   4.339   4.192   6.123 -0.0966 -0.1545 -0.5257
 5700TIP3    H138591   4.381   4.174   6.207 -0.0841  0.1870 -0.4595
 5700TIP3    H238592   4.390   4.264   6.085 -0.7127  0.3578 -0.3772
 5701TIP3   OH238593   1.390   3.001   5.068 -0.1409  0.1682  0.0487
 5701TIP3    H138594   1.372   2.992   5.161 -1.9405  0.5606 -0.2337
 5701TIP3    H238595   1.309   3.039   5.032  0.4077 -0.2976 -1.7130
 5702TIP3   OH238596   5.643   4.139   0.358 -0.5676  0.4161 -0.5642
 5702TIP3    H138597   5.562   4.179   0.388  0.1418  2.0348 -0.7475
 5702TIP3    H238598   5.702   4.145   0.433 -0.1482  0.5742 -0.9041
 5703TIP3   OH238599   4.342   5.595   4.309 -0.8849 -0.5859  0.1370
 5703TIP3    H138600   4.371   5.588   4.400 -1.5944 -1.5659  0.3016
 5703TIP3    H238601   4.373   5.514   4.268  2.0105  1.1598 -1.2622
 5704TIP3   OH238602   0.620   2.136  15.444 -0.0752  0.0651  0.1153
 5704TIP3    H138603   0.636   2.136  15.350 -3.1017  0.1143 -0.4522
 5704TIP3    H238604   0.682   2.071  15.478  0.9883 -0.0325 -1.9056
 5705TIP3   OH238605   1.299   2.581  10.891  0.3448 -0.3967  0.3353
 5705TIP3    H138606   1.267   2.671  10.884  1.8626  0.1605  0.1940
 5705TIP3    H238607   1.313   2.568  10.985  2.0637  0.2571  0.2007
 5706TIP3   OH238608   1.379   2.133  16.065 -0.1521  0.3573 -0.6628
 5706TIP3    H138609   1.415   2.045  16.059 -2.4080 -0.8030  1.7815
 5706TIP3    H238610   1.425   2.172  16.140  0.5126  1.1301 -1.4550
 5707TIP3   OH238611   2.956   1.343   2.713  0.3911  0.5288 -0.2460
 5707TIP3    H138612   2.895   1.280   2.751 -0.4946  0.4376 -1.7841
 5707TIP3    H238613   3.011   1.291   2.654  0.6436  0.9496 -0.3819
 5708TIP3   OH238614   3.244   1.259  15.365 -0.4053 -0.1202  0.5862
 5708TIP3    H138615   3.255   1.164  15.362 -0.3439 -0.2122  2.7635
 5708TIP3    H238616   3.330   1.294  15.342 -0.0170 -0.6257  1.2449
 5709TIP3   OH238617   5.747   2.176   4.921 -0.6581 -0.0192  0.0149
 5709TIP3    H138618   5.785   2.219   4.997  0.5126 -1.1618  0.0907
 5709TIP3    H238619   5.818   2.176   4.856 -0.6223 -1.8274  0.0259
 5710TIP3   OH238620   5.801   4.522   4.013  0.1723  0.4394  0.4999
 5710TIP3    H138621   5.771   4.551   3.927 -0.6554  0.5279  0.8077
 5710TIP3    H238622   5.884   4.568   4.027  0.3540  0.3482 -0.2896
 5711TIP3   OH238623   1.622   0.252   0.780 -0.0853 -0.1431 -0.6467
 5711TIP3    H138624   1.535   0.261   0.741  0.1304  0.1396 -1.0704
 5711TIP3    H238625   1.606   0.252   0.875 -0.6116 -0.8385 -0.7299
 5712TIP3   OH238626   6.266   1.373   3.712  0.5346  0.2633 -0.5612
 5712TIP3    H138627   6.331   1.322   3.760 -1.1423  0.1482  1.6516
 5712TIP3    H238628   6.316   1.413   3.641  2.7348 -0.9686  0.2151
 5713TIP3   OH238629   2.222   3.679  14.798  0.0391 -0.1015 -0.4877
 5713TIP3    H138630   2.135   3.678  14.757 -1.0125  1.6244  1.6470
 5713TIP3    H238631   2.268   3.750  14.754 -0.2699  0.1952 -0.3369
 5714TIP3   OH238632   3.514   5.669  16.823 -0.1317  0.0129  0.3668
 5714TIP3    H138633   3.568   5.703  16.895 -0.9962  0.3742  0.8398
 5714TIP3    H238634   3.432   5.717  16.828 -0.6411 -0.7745 -0.1538
 5715TIP3   OH238635   4.775   6.802  13.415  0.3708 -0.1479 -0.6762
 5715TIP3    H138636   4.713   6.874  13.407  0.2150 -0.0565  1.1436
 5715TIP3    H238637   4.859   6.844  13.429  0.1468 -0.2927  1.2838
 5716TIP3   OH238638   3.194   3.057  14.011  0.2491  0.6401  0.0788
 5716TIP3    H138639   3.168   3.136  14.057  2.6251  0.8243  1.1664
 5716TIP3    H238640   3.205   2.991  14.080 -0.6602 -0.3606 -0.7085
 5717TIP3   OH238641   2.886   5.199  14.867  0.1498 -0.1743 -0.9999
 5717TIP3    H138642   2.927   5.231  14.947 -0.9305 -1.3400  0.0413
 5717TIP3    H238643   2.908   5.265  14.801 -2.8604  3.3343  1.2700
 5718TIP3   OH238644   5.305   0.421  14.470  0.0161 -0.1292 -0.0161
 5718TIP3    H138645   5.332   0.446  14.558 -0.4182  2.3064 -0.5504
 5718TIP3    H238646   5.369   0.355  14.443  0.4358 -0.5334  1.9101
 5719TIP3   OH238647   3.620   4.903   6.459  0.1558  0.1038  0.0466
 5719TIP3    H138648   3.596   4.994   6.441  0.6108  0.6941  2.2970
 5719TIP3    H238649   3.706   4.892   6.419  0.4499  0.9013  0.4590
 5720TIP3   OH238650   3.340   4.893   4.335 -0.2313 -0.3027  0.4524
 5720TIP3    H138651   3.321   4.928   4.248 -0.9422  0.1939  0.8052
 5720TIP3    H238652   3.369   4.968   4.386 -0.8370 -0.3950  0.9425
 5721TIP3   OH238653   6.555   3.861   2.127  0.4714  0.1366  0.4043
 5721TIP3    H138654   6.495   3.792   2.155 -0.0989  1.1901  1.8535
 5721TIP3    H238655   6.585   3.901   2.209  1.7456  0.8096 -0.3750
 5722TIP3   OH238656   5.955   5.921   3.100  0.2380  0.4706 -0.3082
 5722TIP3    H138657   5.909   5.944   3.181 -0.8293 -1.7784 -0.2347
 5722TIP3    H238658   5.938   5.827   3.089  1.9373  0.3528 -2.1469
 5723TIP3   OH238659   3.699   6.132  15.940  0.1944  0.2227  0.1566
 5723TIP3    H138660   3.720   6.221  15.967 -2.6326  1.4080 -1.3456
 5723TIP3    H238661   3.652   6.095  16.016 -0.0992  0.5960  0.1591
 5724TIP3   OH238662   4.691   5.180   0.746 -0.0103  0.1972  0.2346
 5724TIP3    H138663   4.720   5.151   0.833  1.0004  0.5427  0.0199
 5724TIP3    H238664   4.611   5.229   0.763 -1.3525 -2.0790  0.6748
 5725TIP3   OH238665   0.623   1.792   0.377 -0.2969 -0.5058  0.3381
 5725TIP3    H138666   0.535   1.765   0.402 -1.0063  0.3599 -1.1455
 5725TIP3    H238667   0.645   1.738   0.301  0.0074  0.0729  0.0115
 5726TIP3   OH238668   4.460   0.770  11.822 -0.5867 -0.0983  0.4232
 5726TIP3    H138669   4.460   0.854  11.868 -0.9076 -0.5510  1.2709
 5726TIP3    H238670   4.535   0.723  11.859  1.6922  1.1127 -2.5122
 5727TIP3   OH238671   2.506   3.763  11.542 -0.1771  0.0429 -0.2075
 5727TIP3    H138672   2.489   3.711  11.464  0.8663 -0.0523 -0.3757
 5727TIP3    H238673   2.438   3.737  11.603  1.8921 -3.5114  0.7068
 5728TIP3   OH238674   6.683   4.224   5.733  0.4088  0.4041  0.2092
 5728TIP3    H138675   6.704   4.157   5.797  1.3281  1.6037  1.1951
 5728TIP3    H238676   6.607   4.269   5.769 -0.4577 -0.3534 -0.6489
 5729TIP3   OH238677   1.867   0.113   2.664  0.0479  0.0537  0.0590
 5729TIP3    H138678   1.962   0.104   2.665  0.3939  2.6000 -2.5032
 5729TIP3    H238679   1.841   0.104   2.755  2.9265  0.8659  1.0190
 5730TIP3   OH238680   2.625   5.894   3.545 -0.0749  0.0264  0.3482
 5730TIP3    H138681   2.577   5.817   3.576 -0.3769 -0.4564 -1.3107
 5730TIP3    H238682   2.604   5.962   3.610 -0.0703 -1.1698  1.6369
 5731TIP3   OH238683   2.804   4.303  15.597  0.1330 -0.5074 -0.0346
 5731TIP3    H138684   2.796   4.380  15.653  0.8014 -0.2042 -0.3484
 5731TIP3    H238685   2.898   4.285  15.594 -0.0022 -1.2496 -0.0819
 5732TIP3   OH238686   1.417   6.148   5.671  0.3522 -0.7460 -0.2884
 5732TIP3    H138687   1.338   6.163   5.722 -0.8367 -1.6232 -1.8172
 5732TIP3    H238688   1.437   6.055   5.684 -0.0384 -1.0083 -1.4961
 5733TIP3   OH238689   5.140   0.392  13.342  0.2453  0.0589  0.1153
 5733TIP3    H138690   5.234   0.391  13.356 -0.1058  0.9043  2.6713
 5733TIP3    H238691   5.112   0.478  13.373 -1.1780  0.4327 -2.0756
 5734TIP3   OH238692   4.753   5.621  15.885 -0.0189 -0.4086  0.6690
 5734TIP3    H138693   4.714   5.708  15.880  0.9603  0.2060  3.0147
 5734TIP3    H238694   4.828   5.624  15.825  0.4209  0.6037  1.2544
 5735TIP3   OH238695   3.244   6.560   1.680  0.1967 -0.1743  0.5798
 5735TIP3    H138696   3.269   6.470   1.698  0.8591  0.0987  1.0460
 5735TIP3    H238697   3.324   6.611   1.695  0.1343  0.3539 -0.7720
 5736TIP3   OH238698   4.849   6.284   5.501  0.4601 -0.1446 -0.4356
 5736TIP3    H138699   4.874   6.311   5.413  2.1593  2.2307  0.7158
 5736TIP3    H238700   4.920   6.226   5.530  1.3688  1.3689  0.4109
 5737TIP3   OH238701   6.028   0.011  17.112  0.0361 -0.4436 -0.0109
 5737TIP3    H138702   6.029   0.032  17.205  3.0901 -1.5397  0.2791
 5737TIP3    H238703   6.066   0.088  17.070  0.9159 -0.8959 -0.0681
 5738TIP3   OH238704   0.576   2.367  10.529 -0.1424 -0.8264 -0.2762
 5738TIP3    H138705   0.602   2.339  10.441 -1.1750  0.4991 -1.0150
 5738TIP3    H238706   0.483   2.344  10.535 -0.8204  1.7202 -0.6333
 5739TIP3   OH238707   0.296   2.409  13.398 -0.1431  0.5107 -0.2676
 5739TIP3    H138708   0.376   2.415  13.346  0.6403 -0.4204  0.8017
 5739TIP3    H238709   0.293   2.317  13.426 -0.1557  1.1440  1.9053
 5740TIP3   OH238710   4.217   4.063  16.588  0.9581 -0.3321 -0.1696
 5740TIP3    H138711   4.235   4.149  16.549  2.1349  0.0567  1.1916
 5740TIP3    H238712   4.241   4.072  16.680  1.1966 -2.1533 -0.0262
 5741TIP3   OH238713   5.529   0.904   4.495 -0.3183  0.1676  0.0565
 5741TIP3    H138714   5.604   0.963   4.496 -0.0429 -0.1716 -0.3300
 5741TIP3    H238715   5.503   0.896   4.587 -0.6017  1.1896  0.0732
 5742TIP3   OH238716   6.122   2.759   2.987  0.4166 -0.1562  0.7352
 5742TIP3    H138717   6.163   2.786   3.069  0.3228 -0.6220  0.9378
 5742TIP3    H238718   6.128   2.664   2.988 -1.7750 -0.3178  1.3626
 5743TIP3   OH238719   5.329   2.990   6.487  0.0493  0.1309 -0.0790
 5743TIP3    H138720   5.352   2.901   6.461 -2.1002 -0.2667 -0.7255
 5743TIP3    H238721   5.370   3.046   6.422  1.4662 -0.3681  0.3692
 5744TIP3   OH238722   0.168   6.244   3.633  0.4211  0.2347  0.3301
 5744TIP3    H138723   0.130   6.196   3.560  0.0674  0.5179  0.3266
 5744TIP3    H238724   0.248   6.282   3.598  0.9646 -0.7529  0.4632
 5745TIP3   OH238725   1.016   1.061   3.374  0.0147  0.1225 -0.1083
 5745TIP3    H138726   1.004   0.981   3.426  2.2285 -1.0452 -1.2904
 5745TIP3    H238727   1.051   1.030   3.291  0.2480  2.2942 -0.8510
 5746TIP3   OH238728   6.178   4.382   4.653  0.0044  0.2960 -0.1978
 5746TIP3    H138729   6.263   4.426   4.652  0.9934 -1.5691 -1.5403
 5746TIP3    H238730   6.146   4.394   4.742  1.8147  0.7573  0.4193
 5747TIP3   OH238731   0.072   4.573   3.101 -0.3371  0.0627 -0.1230
 5747TIP3    H138732   0.153   4.525   3.081 -0.4009 -0.3279  0.5138
 5747TIP3    H238733   0.005   4.505   3.108 -0.4730  0.2575  0.5603
 5748TIP3   OH238734   6.481   1.503   4.364 -0.4884 -0.0974 -0.2188
 5748TIP3    H138735   6.461   1.416   4.398 -0.2465  0.0691  0.3433
 5748TIP3    H238736   6.397   1.535   4.330 -0.5778 -0.5451 -0.4184
 5749TIP3   OH238737   3.753   5.082   1.091  0.9653 -0.2893 -0.2384
 5749TIP3    H138738   3.743   5.042   1.178  1.2964 -1.5154 -0.7501
 5749TIP3    H238739   3.728   5.173   1.104 -0.8109 -0.8895  0.7349
 5750TIP3   OH238740   3.838   2.769  15.341  0.3577 -0.5099 -0.4123
 5750TIP3    H138741   3.893   2.828  15.289 -0.3057  0.0945 -0.4359
 5750TIP3    H238742   3.790   2.826  15.400  1.8338 -1.2775  1.5727
 5751TIP3   OH238743   5.248   1.010   0.167  0.2694 -0.1597 -0.8361
 5751TIP3    H138744   5.176   0.990   0.226  0.5713 -1.6753 -0.9649
 5751TIP3    H238745   5.224   1.093   0.127 -0.8538 -0.0838 -0.0187
 5752TIP3   OH238746   5.225   1.014   5.642 -0.1291 -0.3120 -0.1412
 5752TIP3    H138747   5.288   0.954   5.604  0.2042  0.3663 -0.6805
 5752TIP3    H238748   5.199   1.071   5.570  2.0347  2.2940  1.0095
 5753TIP3   OH238749   5.113   0.452  15.004  0.1167 -0.6895 -0.4002
 5753TIP3    H138750   5.204   0.429  14.982  0.0574 -1.0946 -0.2203
 5753TIP3    H238751   5.069   0.368  15.015 -0.4839 -0.5033 -1.3117
 5754TIP3   OH238752   5.522   1.865   4.402 -0.2488 -0.2596  0.1891
 5754TIP3    H138753   5.445   1.841   4.350  1.4229  0.6781 -2.8511
 5754TIP3    H238754   5.501   1.951   4.439 -0.3955  0.3282 -1.2330
 5755TIP3   OH238755   1.021   3.913   2.884  0.5057 -0.2786 -0.0406
 5755TIP3    H138756   0.972   3.990   2.854 -0.9594 -1.4247 -0.6316
 5755TIP3    H238757   1.060   3.876   2.805  0.4891 -0.6391  0.1172
 5756TIP3   OH238758   3.269   5.583  15.642  0.5773  0.1182  0.0386
 5756TIP3    H138759   3.258   5.601  15.548  1.6588 -0.9528 -0.3076
 5756TIP3    H238760   3.187   5.612  15.681  0.1642  0.7116 -1.2265
 5757TIP3   OH238761   6.766   3.413  11.830  0.1559  0.1368 -0.5565
 5757TIP3    H138762   6.797   3.323  11.835 -1.7470 -0.5450 -0.8966
 5757TIP3    H238763   6.763   3.433  11.736 -1.8420 -0.3135 -0.6061
 5758TIP3   OH238764   1.067   1.171  17.182 -0.7756  0.3686  0.3899
 5758TIP3    H138765   1.064   1.123  17.099 -0.0975  1.5592 -0.3510
 5758TIP3    H238766   1.129   1.122  17.236 -0.7627 -0.0801 -0.0274
 5759TIP3   OH238767   6.464   3.103  17.282 -0.2708 -0.8328 -0.4639
 5759TIP3    H138768   6.411   3.102  17.202  0.9570 -1.0237 -1.3007
 5759TIP3    H238769   6.554   3.115  17.250  0.1649 -0.3242  0.9354
 5760TIP3   OH238770   4.214   0.972   1.479  0.3219 -0.3398  0.1586
 5760TIP3    H138771   4.149   1.024   1.526  0.1895  1.0856 -1.5668
 5760TIP3    H238772   4.196   0.882   1.506 -0.2690  0.3480  2.1894
 5761TIP3   OH238773   0.942   1.429   3.143  0.2618 -0.4351  0.3523
 5761TIP3    H138774   0.936   1.481   3.063  0.8702 -1.6267 -0.4835
 5761TIP3    H238775   0.929   1.338   3.114  0.7154 -0.9016  1.5680
 5762TIP3   OH238776   1.809   5.674   3.285  0.0509 -0.2707  0.2833
 5762TIP3    H138777   1.788   5.726   3.208 -0.7186 -0.7545  0.1602
 5762TIP3    H238778   1.898   5.642   3.269  0.7102  1.3491  0.5689
 5763TIP3   OH238779   1.458   0.008  12.880  0.0832 -0.0215 -0.3706
 5763TIP3    H138780   1.374   0.034  12.918 -0.0382  0.0492 -0.6839
 5763TIP3    H238781   1.452   0.035  12.788 -0.5483 -2.3080 -1.0368
 5764TIP3   OH238782   0.603   2.767  12.316 -0.7080  0.0746  0.2741
 5764TIP3    H138783   0.561   2.681  12.304 -0.2353 -0.1818  0.4427
 5764TIP3    H238784   0.549   2.811  12.382 -1.0290 -0.0391  0.0902
 5765TIP3   OH238785   6.800   2.679   0.252 -0.3281  0.3170  0.1735
 5765TIP3    H138786   6.710   2.709   0.247 -0.1914  1.0456  1.8971
 5765TIP3    H238787   6.800   2.611   0.319  0.4874  0.6738  0.5501
 5766TIP3   OH238788   2.295   0.012  16.019 -0.2759  0.2520  0.0619
 5766TIP3    H138789   2.224   0.073  15.999  0.0209  0.9024  0.9811
 5766TIP3    H238790   2.264  -0.072  15.986 -0.9928  0.7533 -0.5609
 5767TIP3   OH238791   1.300   4.194   2.547  0.2519 -0.6008  0.0268
 5767TIP3    H138792   1.313   4.285   2.573  0.5541 -0.3722 -0.9085
 5767TIP3    H238793   1.387   4.155   2.554 -0.1313 -1.1795  1.7695
 5768TIP3   OH238794   6.592   0.004   4.067 -0.2862  0.2999  0.1699
 5768TIP3    H138795   6.640  -0.073   4.035 -0.0428  0.7489 -0.5748
 5768TIP3    H238796   6.567  -0.018   4.156  2.2751  0.4710  0.9637
 5769TIP3   OH238797   2.092   1.437   0.789  0.1565  0.2576  0.2470
 5769TIP3    H138798   2.017   1.389   0.753  0.8357 -2.0676  1.8481
 5769TIP3    H238799   2.058   1.484   0.864  0.3118 -0.9326  1.0740
 5770TIP3   OH238800   0.034   4.133  14.782  0.4486 -0.0919 -0.0758
 5770TIP3    H138801   0.071   4.150  14.696  0.5652  1.5679  0.2710
 5770TIP3    H238802  -0.053   4.174  14.779  0.6148  0.3342  0.7114
 5771TIP3   OH238803   3.457   5.906   1.530  0.3396 -0.2641 -0.8937
 5771TIP3    H138804   3.479   5.824   1.485 -0.5098 -2.6083  2.7341
 5771TIP3    H238805   3.542   5.942   1.557  0.7175  0.1257 -2.5355
 5772TIP3   OH238806   1.518   6.393  14.188 -0.6712  0.1623  0.5991
 5772TIP3    H138807   1.590   6.337  14.160 -1.4522 -0.2356 -0.6890
 5772TIP3    H238808   1.510   6.377  14.282  0.5153 -0.2552  0.6313
 5773TIP3   OH238809   0.684   3.985   5.190  0.7971  0.3208 -0.1692
 5773TIP3    H138810   0.663   3.897   5.160 -0.9338  0.6351  0.1012
 5773TIP3    H238811   0.689   4.038   5.111  3.0596 -0.2440 -0.4430
 5774TIP3   OH238812   6.244   3.142   1.210  0.1161 -0.3303 -0.3907
 5774TIP3    H138813   6.185   3.081   1.166 -0.5759 -0.2104  0.3642
 5774TIP3    H238814   6.214   3.228   1.182  1.3602 -0.3231 -1.7988
 5775TIP3   OH238815   4.365   1.331  16.653 -0.1601  0.2504  1.0252
 5775TIP3    H138816   4.351   1.378  16.735 -2.7041  0.3105  0.6064
 5775TIP3    H238817   4.281   1.338  16.607  1.0010 -0.3970 -1.2637
 5776TIP3   OH238818   5.858   1.219   5.096 -0.1512  0.3934  0.0960
 5776TIP3    H138819   5.809   1.210   5.178 -0.4428 -1.1470 -0.2273
 5776TIP3    H238820   5.928   1.155   5.103  0.3327  0.8553 -0.4969
 5777TIP3   OH238821   5.772   1.285  13.181  0.1569 -0.2850 -0.1405
 5777TIP3    H138822   5.768   1.369  13.138  0.7886 -0.4274 -0.4870
 5777TIP3    H238823   5.752   1.304  13.273 -1.2613 -0.0006 -0.4977
 5778TIP3   OH238824   0.274   3.211  13.287  0.3481  0.3571 -0.4299
 5778TIP3    H138825   0.272   3.211  13.191  1.2424  0.0888 -0.4534
 5778TIP3    H238826   0.269   3.303  13.311  0.9541  0.4785 -0.7587
 5779TIP3   OH238827   2.501   0.081  13.287  0.3151 -0.4896  0.1552
 5779TIP3    H138828   2.580   0.051  13.243 -0.7012  0.2220 -2.2501
 5779TIP3    H238829   2.521   0.172  13.310 -0.1170  0.0023 -1.3296
 5780TIP3   OH238830   0.306   5.536  16.320 -0.1630 -0.2076  0.2408
 5780TIP3    H138831   0.212   5.524  16.309 -0.0808  0.0217 -0.7918
 5780TIP3    H238832   0.344   5.453  16.294 -0.0163  0.0611 -0.4205
 5781TIP3   OH238833   3.621   2.679  15.928 -0.5691  0.3557 -0.1839
 5781TIP3    H138834   3.571   2.601  15.905  0.8790 -0.9188  0.8688
 5781TIP3    H238835   3.662   2.706  15.846 -1.0922  0.0010 -0.5608
 5782TIP3   OH238836   3.085   1.131   0.534  0.0016  0.5953  0.2676
 5782TIP3    H138837   3.001   1.160   0.569 -0.6256  0.2505 -0.9213
 5782TIP3    H238838   3.063   1.088   0.451  1.3865  0.8119 -0.2252
 5783TIP3   OH238839   3.711   1.527  10.932  0.2663  0.4430 -0.7074
 5783TIP3    H138840   3.745   1.474  11.004 -0.4705  1.2473  0.2567
 5783TIP3    H238841   3.689   1.464  10.863 -2.3021 -0.7343  1.1037
 5784TIP3   OH238842   4.477   2.687  13.047 -0.0803 -0.0122 -0.3457
 5784TIP3    H138843   4.519   2.773  13.054 -1.4123  0.6748 -0.5765
 5784TIP3    H238844   4.409   2.699  12.981 -1.3805 -0.7876  0.8145
 5785TIP3   OH238845   2.505   0.913   1.687 -0.0087  0.0424 -0.3886
 5785TIP3    H138846   2.582   0.963   1.712 -0.9163  0.5854  1.4370
 5785TIP3    H238847   2.433   0.977   1.687 -0.6163 -0.6137 -1.2596
 5786TIP3   OH238848   4.795   2.678   2.759  0.1768  0.1952 -0.3206
 5786TIP3    H138849   4.743   2.700   2.837  0.6684  0.8441 -0.1688
 5786TIP3    H238850   4.774   2.586   2.742 -0.8172  0.3659 -0.1028
 5787TIP3   OH238851   0.654   1.315  13.522  0.4478 -0.0802  0.3779
 5787TIP3    H138852   0.622   1.251  13.585 -1.7768 -0.5533 -1.1784
 5787TIP3    H238853   0.666   1.266  13.441  0.5437  1.0872 -0.3358
 5788TIP3   OH238854   1.377   6.523   0.959 -0.2176  0.1191 -0.6697
 5788TIP3    H138855   1.362   6.612   0.991 -1.3778 -0.4501  0.3803
 5788TIP3    H238856   1.338   6.522   0.872 -1.3952  0.2449 -0.1423
 5789TIP3   OH238857   4.200   0.278   5.829  0.2337  0.1120 -0.4717
 5789TIP3    H138858   4.117   0.230   5.828 -1.4385  2.8854 -0.0541
 5789TIP3    H238859   4.174   0.370   5.824  3.2782  1.0476  0.2130
 5790TIP3   OH238860   5.571   4.436  13.201 -0.0199 -0.1732  0.6338
 5790TIP3    H138861   5.572   4.379  13.124 -2.8764  0.9778 -0.3343
 5790TIP3    H238862   5.570   4.525  13.166  1.0470  0.4301  2.0630
 5791TIP3   OH238863   4.999   4.070  12.773  0.0582 -0.4564  0.0850
 5791TIP3    H138864   5.066   4.133  12.746 -1.4846  1.6572  1.0924
 5791TIP3    H238865   5.042   4.016  12.839  0.7503  0.9558  0.8115
 5792TIP3   OH238866   5.529   3.945   6.164 -0.1661  0.1302 -0.1450
 5792TIP3    H138867   5.530   4.005   6.238  0.0119 -0.4116  0.2996
 5792TIP3    H238868   5.488   3.994   6.093  2.4134  1.6891 -0.5990
 5793TIP3   OH238869   5.042   5.454  14.566 -0.4476 -0.3629 -0.3018
 5793TIP3    H138870   4.957   5.466  14.524 -0.5756 -0.3976 -0.0510
 5793TIP3    H238871   5.026   5.387  14.633 -0.5790  0.7785  0.8134
 5794TIP3   OH238872   4.005   0.094  16.218  0.4443  0.2824 -0.1849
 5794TIP3    H138873   4.098   0.080  16.200  0.4325 -0.3603  0.2386
 5794TIP3    H238874   3.975   0.152  16.148  1.2232  0.6990 -0.1717
 5795TIP3   OH238875   6.405   6.248  13.781  0.3043 -0.5250  0.1872
 5795TIP3    H138876   6.462   6.325  13.785  0.2682 -0.5679  1.8055
 5795TIP3    H238877   6.380   6.232  13.872 -1.1975 -1.3261 -0.3503
 5796TIP3   OH238878   2.678   6.675   0.449  0.0617  0.6414  0.3114
 5796TIP3    H138879   2.752   6.648   0.395  0.0478 -0.4166  0.8080
 5796TIP3    H238880   2.660   6.765   0.422  0.5916  0.4087 -0.8443
 5797TIP3   OH238881   0.866   2.309  14.773  0.0695 -0.0609 -0.3910
 5797TIP3    H138882   0.777   2.316  14.739  0.1187  0.7598 -0.3747
 5797TIP3    H238883   0.906   2.240  14.721 -0.8641 -1.0888  0.2454
 5798TIP3   OH238884   5.115   2.959   1.120  0.7264  0.5409  0.3688
 5798TIP3    H138885   5.149   3.043   1.089  0.4634 -0.3821 -2.6063
 5798TIP3    H238886   5.193   2.903   1.126  0.7938  0.7582  1.5574
 5799TIP3   OH238887   5.836   2.062   2.858 -0.2831  0.1089 -0.2863
 5799TIP3    H138888   5.822   2.015   2.941  3.5114  0.5403  0.7069
 5799TIP3    H238889   5.778   2.137   2.864  0.3709  0.4826  2.3376
 5800TIP3   OH238890   5.347   5.545   0.138  0.6221  0.4326  0.2861
 5800TIP3    H138891   5.265   5.539   0.188 -0.2835  0.2799 -1.1786
 5800TIP3    H238892   5.403   5.602   0.190 -1.2817  2.4680  0.1900
 5801TIP3   OH238893   1.715   2.861  16.448 -0.0500 -0.0948 -0.0456
 5801TIP3    H138894   1.635   2.848  16.499  0.6788  0.3105  1.2309
 5801TIP3    H238895   1.780   2.807  16.492  0.8625  1.1110  0.1095
 5802TIP3   OH238896   6.397   6.407   0.980  0.2160 -0.0561 -0.1903
 5802TIP3    H138897   6.429   6.358   0.904  2.5728 -0.6568  1.1279
 5802TIP3    H238898   6.407   6.499   0.955  1.1357 -0.2469 -0.5644
 5803TIP3   OH238899   6.196   3.678   0.179 -0.1205  0.1204  0.6739
 5803TIP3    H138900   6.124   3.720   0.131 -2.1733 -2.8066  1.0141
 5803TIP3    H238901   6.200   3.726   0.262 -0.9836  1.0224  0.2072
 5804TIP3   OH238902   3.252   3.904  12.467  0.3250  0.0044 -0.0337
 5804TIP3    H138903   3.312   3.870  12.533 -0.4260 -0.6194  0.3341
 5804TIP3    H238904   3.257   3.999  12.475 -0.4398 -0.0816  1.5226
 5805TIP3   OH238905   4.275   3.398   0.023 -0.4180  0.2571  0.0663
 5805TIP3    H138906   4.201   3.354  -0.018  0.5424  0.0002 -1.4377
 5805TIP3    H238907   4.347   3.335   0.016  0.5565  1.4239 -0.6601
 5806TIP3   OH238908   4.448   6.041  17.173 -0.3326  0.2509 -0.3128
 5806TIP3    H138909   4.462   5.967  17.114  3.8228  0.3748  0.3418
 5806TIP3    H238910   4.441   6.002  17.260 -2.3453  0.3791 -0.3863
 5807TIP3   OH238911   3.602   1.024   2.455  0.2366 -0.5509  0.3338
 5807TIP3    H138912   3.654   0.969   2.396 -0.8007 -0.1453 -0.9848
 5807TIP3    H238913   3.662   1.044   2.527  1.9263 -0.1090 -1.1449
 5808TIP3   OH238914   4.510   0.234   3.681  0.4864  0.2790  0.0589
 5808TIP3    H138915   4.594   0.224   3.726 -0.0611  0.6630  1.2071
 5808TIP3    H238916   4.453   0.273   3.747 -0.4705  0.4310 -0.8522
 5809TIP3   OH238917   0.139   6.562  12.096  0.4264 -0.0331  0.3944
 5809TIP3    H138918   0.200   6.547  12.024 -0.9684  0.3690 -0.8845
 5809TIP3    H238919   0.142   6.480  12.147 -0.0007 -1.0644 -1.1990
 5810TIP3   OH238920   3.767   3.630   1.217  0.1033 -0.2052  0.0434
 5810TIP3    H138921   3.794   3.708   1.266 -0.9338  1.0129 -1.3080
 5810TIP3    H238922   3.674   3.643   1.200  0.0769 -1.4300 -0.7765
 5811TIP3   OH238923   3.005   6.733  11.442  0.2690 -0.8176  0.1073
 5811TIP3    H138924   2.979   6.706  11.531  0.0269 -1.1419 -0.0617
 5811TIP3    H238925   3.048   6.657  11.405  1.5626 -0.2543  0.4123
 5812TIP3   OH238926   6.370   3.229  11.177 -0.7183  0.6614  0.0754
 5812TIP3    H138927   6.423   3.201  11.251  0.9750  1.7760 -0.6935
 5812TIP3    H238928   6.423   3.296  11.133 -1.8660  0.2949 -1.9148
 5813TIP3   OH238929   5.988   4.339  12.743  0.0013 -0.4287 -0.2620
 5813TIP3    H138930   6.049   4.363  12.673 -0.2407  1.5351  0.1663
 5813TIP3    H238931   6.040   4.346  12.823 -0.7873  1.4223  0.1218
 5814TIP3   OH238932   3.281   4.633  12.032 -0.1475 -0.6331 -0.5866
 5814TIP3    H138933   3.187   4.613  12.029 -0.2341 -0.0018 -2.9011
 5814TIP3    H238934   3.294   4.676  12.116 -1.7437 -1.6212  0.1898
 5815TIP3   OH238935   1.161   0.027  15.074  0.2868  0.0695 -0.1862
 5815TIP3    H138936   1.233  -0.036  15.076  0.8348  0.6923 -0.3858
 5815TIP3    H238937   1.107   0.003  15.150  0.8260 -0.2450  0.1027
 5816TIP3   OH238938   4.380   0.637   2.872 -0.3233 -0.5300  0.1613
 5816TIP3    H138939   4.334   0.720   2.857 -1.4773 -1.1900 -0.0008
 5816TIP3    H238940   4.437   0.655   2.947  0.3724  0.7695 -0.6566
 5817TIP3   OH238941   6.395   0.271   6.479 -0.1398  0.4254  0.0181
 5817TIP3    H138942   6.455   0.232   6.416 -3.1113 -1.9247 -1.4930
 5817TIP3    H238943   6.309   0.238   6.454 -1.7026  1.1792  4.0018
 5818TIP3   OH238944   3.815   0.989   2.639  0.7614 -0.0980  0.1310
 5818TIP3    H138945   3.907   0.966   2.630  0.9620  0.0765  1.5694
 5818TIP3    H238946   3.814   1.065   2.696 -0.2746 -0.1538  0.2073
 5819TIP3   OH238947   3.754   6.555   0.659 -0.2559  0.3291  0.3422
 5819TIP3    H138948   3.732   6.509   0.740  1.5597  1.8276  1.7415
 5819TIP3    H238949   3.723   6.645   0.674  2.9432  1.4389  0.7290
 5820TIP3   OH238950   4.835   4.129   3.765  0.3309  0.7901 -0.0580
 5820TIP3    H138951   4.749   4.130   3.722  0.3544  0.3297 -0.1124
 5820TIP3    H238952   4.895   4.165   3.699  0.7840 -2.1086 -1.3139
 5821TIP3   OH238953   0.528   5.991  11.731  0.4413  0.3860  0.2008
 5821TIP3    H138954   0.473   5.924  11.689  2.3594 -1.6952  0.8808
 5821TIP3    H238955   0.614   5.980  11.690  1.3037  1.0472  1.7887
 5822TIP3   OH238956   5.460   4.075  12.316  0.0791 -0.1571  0.0208
 5822TIP3    H138957   5.465   4.013  12.388 -1.5598 -1.7541 -1.2018
 5822TIP3    H238958   5.370   4.107  12.317  0.8878  2.2479  0.6244
 5823TIP3   OH238959   0.779   5.547  16.347 -0.7066  0.2599  0.1459
 5823TIP3    H138960   0.716   5.588  16.406 -0.7464  0.3587  0.0351
 5823TIP3    H238961   0.729   5.482  16.299 -0.9536  1.0539 -0.6800
 5824TIP3   OH238962   0.853   2.963  13.641 -0.0528 -0.0123  0.2847
 5824TIP3    H138963   0.842   3.052  13.676 -1.1006 -0.4275  1.0568
 5824TIP3    H238964   0.944   2.941  13.659 -0.6124 -0.3019  3.0689
 5825TIP3   OH238965   1.590   5.602   2.310 -0.2427  0.3826  0.0059
 5825TIP3    H138966   1.672   5.651   2.307 -1.3000  2.1212 -1.2609
 5825TIP3    H238967   1.601   5.533   2.245  0.5071  0.1157  0.4113
 5826TIP3   OH238968   3.563   4.222  16.192  0.1916 -0.0960  0.3610
 5826TIP3    H138969   3.549   4.291  16.127 -0.9678  0.1528  0.8616
 5826TIP3    H238970   3.608   4.266  16.264 -1.7987  0.4855  1.2816
 5827TIP3   OH238971   0.682   5.371  17.065  0.3976  0.0401 -0.0078
 5827TIP3    H138972   0.716   5.286  17.036  0.4520  0.0020  0.1721
 5827TIP3    H238973   0.661   5.416  16.983 -1.3068 -0.8333 -0.0688
 5828TIP3   OH238974   0.326   0.564  13.902 -0.0331 -0.0911  0.6609
 5828TIP3    H138975   0.288   0.595  13.820  1.4047  1.9479  0.7120
 5828TIP3    H238976   0.299   0.472  13.908 -3.1034  0.6678 -0.3293
 5829TIP3   OH238977   3.106   5.427  16.659 -0.3428  0.5961 -0.4042
 5829TIP3    H138978   3.056   5.363  16.609 -0.5126 -0.7771  1.4537
 5829TIP3    H238979   3.198   5.408  16.638 -0.3959 -0.2444  0.1065
 5830TIP3   OH238980   5.361   2.500  14.178  0.1271  0.7159  0.3664
 5830TIP3    H138981   5.452   2.524  14.191  0.6328 -1.3688  0.8479
 5830TIP3    H238982   5.315   2.583  14.170  1.9282  1.7978  1.0471
 5831TIP3   OH238983   3.863   1.360   0.572 -0.7301 -0.8467 -0.2502
 5831TIP3    H138984   3.898   1.438   0.530  0.7922 -1.9325 -1.0350
 5831TIP3    H238985   3.835   1.390   0.659  0.0285  0.5204 -0.4649
 5832TIP3   OH238986   3.600   4.428  13.303  0.2451 -0.2380 -0.4829
 5832TIP3    H138987   3.646   4.481  13.368  1.3108 -0.9566 -0.6414
 5832TIP3    H238988   3.538   4.489  13.263 -0.2571  0.2695  1.0280
 5833TIP3   OH238989   5.720   4.710  12.578  0.4294  0.0702 -0.8197
 5833TIP3    H138990   5.689   4.790  12.535 -0.0327  0.1525 -0.3472
 5833TIP3    H238991   5.784   4.673  12.518 -0.3908  0.0529 -1.6928
 5834TIP3   OH238992   0.541   2.697   6.137 -0.2103  0.2436  0.3003
 5834TIP3    H138993   0.633   2.706   6.111 -0.1642 -0.4229  0.2238
 5834TIP3    H238994   0.502   2.782   6.118  0.6272  0.8643  1.2770
 5835TIP3   OH238995   3.431   1.635   5.822 -0.6496  0.3789 -0.4497
 5835TIP3    H138996   3.408   1.577   5.894  0.7112 -1.0859 -1.1648
 5835TIP3    H238997   3.526   1.648   5.831 -0.4292  0.0456 -2.0470
 5836TIP3   OH238998   3.844   4.865  16.671 -0.4577 -1.0592  0.1875
 5836TIP3    H138999   3.778   4.796  16.674 -1.6804  0.1451  2.2021
 5836TIP3    H239000   3.916   4.832  16.724 -0.9275 -0.9013  0.9253
 5837TIP3   OH239001   3.754   2.155   0.376  0.0634  0.2465  0.5804
 5837TIP3    H139002   3.692   2.090   0.410  0.4785 -0.0936  0.7011
 5837TIP3    H239003   3.700   2.228   0.347 -0.3599  0.1609  1.1475
 5838TIP3   OH239004   2.855   1.364   3.713  0.8983 -0.6162  0.1495
 5838TIP3    H139005   2.798   1.287   3.707 -0.3755  0.1385  2.0513
 5838TIP3    H239006   2.794   1.438   3.721  2.1226  0.3696  0.4513
 5839TIP3   OH239007   6.208   3.360   2.633  0.1879  0.8132  0.1661
 5839TIP3    H139008   6.194   3.366   2.539  0.5472 -0.8448 -0.0148
 5839TIP3    H239009   6.120   3.363   2.671  0.0259  1.2019 -0.2387
 5840TIP3   OH239010   0.163   3.693  16.814  0.0075  0.5482  0.0591
 5840TIP3    H139011   0.212   3.631  16.867  0.9115  0.5510 -0.7733
 5840TIP3    H239012   0.178   3.666  16.724 -1.6871  0.4222 -0.2013
 5841TIP3   OH239013   5.103   6.623   3.180 -0.3144 -0.1577 -0.5587
 5841TIP3    H139014   5.175   6.575   3.221 -1.2401 -0.2679  0.9766
 5841TIP3    H239015   5.104   6.709   3.223 -0.9850 -0.1008 -0.6445
 5842TIP3   OH239016   5.416   2.328   3.247 -0.4934 -0.0093  0.4927
 5842TIP3    H139017   5.339   2.284   3.281 -0.6603  0.2785  0.4884
 5842TIP3    H239018   5.400   2.335   3.153  0.3530 -1.5731  0.2246
 5843TIP3   OH239019   5.015   5.724   3.094 -0.1178 -0.3553  0.4731
 5843TIP3    H139020   5.008   5.725   2.999 -1.2229 -0.0228  0.5461
 5843TIP3    H239021   4.998   5.633   3.119 -1.1971 -0.1608  0.4434
 5844TIP3   OH239022   3.671   1.162   3.940 -0.2372 -0.2611 -0.3757
 5844TIP3    H139023   3.699   1.163   4.031 -2.1683 -0.7987  0.2573
 5844TIP3    H239024   3.685   1.251   3.909  0.3227 -0.0480  0.4766
 5845TIP3   OH239025   0.250   3.762   0.577  0.0989 -0.1604 -0.5196
 5845TIP3    H139026   0.184   3.730   0.639 -2.4645 -1.4092 -3.7518
 5845TIP3    H239027   0.312   3.690   0.568 -0.6501 -0.7562 -0.9252
 5846TIP3   OH239028   1.903   1.828   3.718  0.3815  0.0949 -0.3635
 5846TIP3    H139029   1.872   1.793   3.635  1.7073  0.3628 -0.9922
 5846TIP3    H239030   1.910   1.752   3.776 -0.0026 -0.1679 -0.6630
 5847TIP3   OH239031   2.855   2.647  10.241 -0.1637  0.2070  0.2624
 5847TIP3    H139032   2.871   2.741  10.228  1.0406 -0.2283 -1.6477
 5847TIP3    H239033   2.923   2.604  10.189  0.3945 -1.7536  2.5047
 5848TIP3   OH239034   0.902   1.028  13.068 -0.1323  0.7092  0.2358
 5848TIP3    H139035   0.829   0.969  13.084 -0.5244  1.2753  0.5459
 5848TIP3    H239036   0.951   0.987  12.996 -0.4460  0.0555  0.3903
 5849TIP3   OH239037   4.951   1.401  11.630 -0.4813  0.5962 -0.4779
 5849TIP3    H139038   4.965   1.481  11.679 -1.4072  1.7369 -2.0257
 5849TIP3    H239039   4.884   1.424  11.565  0.6006 -0.8919 -2.1611
 5850TIP3   OH239040   0.223   3.877   3.308 -0.2458 -0.0900  0.1063
 5850TIP3    H139041   0.278   3.955   3.300 -2.2139  1.3329  0.3671
 5850TIP3    H239042   0.273   3.809   3.262  0.4288  1.8383 -2.1131
 5851TIP3   OH239043   2.961   3.278   0.379 -0.3029 -0.6201  0.2319
 5851TIP3    H139044   2.938   3.300   0.289  0.0860 -1.2395 -0.0246
 5851TIP3    H239045   2.951   3.183   0.383  0.7997 -0.7327  0.5132
 5852TIP3   OH239046   4.638   2.480   5.561  0.5891  0.1369  0.0639
 5852TIP3    H139047   4.586   2.546   5.515 -1.0618 -0.7861  0.5932
 5852TIP3    H239048   4.621   2.495   5.654 -1.3603 -2.2494  0.1428
 5853TIP3   OH239049   6.366   1.764   6.739  0.1199 -0.2638  0.0708
 5853TIP3    H139050   6.402   1.675   6.734  1.4870  0.2994 -0.4451
 5853TIP3    H239051   6.442   1.820   6.754 -0.7663  0.7961  0.6982
 5854TIP3   OH239052   5.987   3.769  11.442 -0.3073 -0.1523  0.4087
 5854TIP3    H139053   6.016   3.840  11.385  0.7322 -0.5581  0.4101
 5854TIP3    H239054   6.025   3.789  11.528  0.4688 -0.9737  0.2785
 5855TIP3   OH239055   6.046   3.494  13.010  0.2092  0.6472  0.2573
 5855TIP3    H139056   6.003   3.532  12.934  1.5176  0.2458 -0.7221
 5855TIP3    H239057   5.998   3.412  13.027 -0.1578  0.7979 -0.0621
 5856TIP3   OH239058   3.290   4.353  14.443 -1.1704 -0.3148 -0.3825
 5856TIP3    H139059   3.288   4.349  14.348 -0.7048  0.1081 -0.4121
 5856TIP3    H239060   3.292   4.447  14.464 -0.1194 -0.4141  0.0089
 5857TIP3   OH239061   5.463   0.745   3.930 -0.4841  0.3319  0.3406
 5857TIP3    H139062   5.545   0.740   3.980 -0.7941  0.6066  0.8700
 5857TIP3    H239063   5.441   0.838   3.930 -1.5989  0.0696  1.4772
 5858TIP3   OH239064   4.816   2.240   2.916  0.5209  0.5747 -0.0488
 5858TIP3    H139065   4.786   2.233   3.007  0.1785  0.8732 -0.1402
 5858TIP3    H239066   4.907   2.210   2.919 -0.3373 -2.0969 -0.1071
 5859TIP3   OH239067   4.210   0.216  16.565 -0.1288 -0.2522  0.6969
 5859TIP3    H139068   4.236   0.214  16.473 -2.4944  0.6446 -0.0228
 5859TIP3    H239069   4.286   0.250  16.611  0.0662  2.0903 -1.3079
 5860TIP3   OH239070   5.996   3.147  17.157  0.0498  0.0024 -0.3877
 5860TIP3    H139071   5.960   3.074  17.106  1.4115 -0.1745 -1.1298
 5860TIP3    H239072   5.957   3.137  17.243  0.7033 -2.0179 -0.2856
 5861TIP3   OH239073   2.942   5.822  12.020 -0.9654 -0.2570  0.1700
 5861TIP3    H139074   2.945   5.868  11.935  0.9693  1.9406  1.3660
 5861TIP3    H239075   2.962   5.890  12.084 -0.1699 -2.3719  2.2196
 5862TIP3   OH239076   4.660   3.088   2.338 -0.1020 -0.1655  0.1158
 5862TIP3    H139077   4.667   2.993   2.342  1.9636 -0.0849 -0.7497
 5862TIP3    H239078   4.608   3.106   2.260  0.2751 -0.5872 -0.2349
 5863TIP3   OH239079   4.741   3.055  15.505 -0.3420  0.6120 -0.0642
 5863TIP3    H139080   4.717   3.148  15.512  0.1196  0.6326  1.4820
 5863TIP3    H239081   4.658   3.009  15.504 -0.5365  0.9177  1.3979
 5864TIP3   OH239082   3.570   5.081   4.099 -0.4796  0.5396 -0.3463
 5864TIP3    H139083   3.604   5.155   4.149 -3.1879  1.3671  0.3997
 5864TIP3    H239084   3.546   5.118   4.014 -3.4937  0.9865  0.6354
 5865TIP3   OH239085   3.932   5.432  15.046  0.6067  0.5402  0.0366
 5865TIP3    H139086   3.947   5.344  15.080  0.1744  0.6619  0.5509
 5865TIP3    H239087   3.995   5.442  14.975  0.8779 -0.0611  0.1952
 5866TIP3   OH239088   0.202   3.718  13.524 -0.1116 -0.4909 -0.1809
 5866TIP3    H139089   0.268   3.747  13.587 -1.7327  2.0289  0.4103
 5866TIP3    H239090   0.181   3.628  13.552  0.4591 -0.0287  1.8158
 5867TIP3   OH239091   5.015   6.288  12.857 -0.1208  0.4800 -0.0029
 5867TIP3    H139092   5.087   6.338  12.819  1.4985  0.2123  2.5628
 5867TIP3    H239093   4.963   6.259  12.782  1.2437  2.4662 -1.7765
 5868TIP3   OH239094   5.853   6.562   6.110 -0.5440 -0.1888  0.5283
 5868TIP3    H139095   5.879   6.471   6.122  0.0432  0.1156  1.6415
 5868TIP3    H239096   5.879   6.583   6.020 -1.5745 -1.4037 -0.0558
 5869TIP3   OH239097   4.054   2.414  14.951 -0.1676 -0.4168 -0.7791
 5869TIP3    H139098   4.146   2.393  14.962 -1.0346 -3.5866  1.1087
 5869TIP3    H239099   4.015   2.336  14.912 -2.6851 -0.6051  1.9043
 5870TIP3   OH239100   0.928   4.487   6.575  0.4990 -0.2189 -0.5504
 5870TIP3    H139101   0.913   4.392   6.573 -0.4394 -0.0792 -0.2465
 5870TIP3    H239102   1.024   4.496   6.569  0.6018 -1.1862 -0.4618
 5871TIP3   OH239103   0.237   3.218  11.707 -0.6548 -0.1442 -0.6673
 5871TIP3    H139104   0.246   3.125  11.684 -2.5619 -0.3517 -0.6690
 5871TIP3    H239105   0.231   3.219  11.803 -0.9454 -0.0543 -0.6847
 5872TIP3   OH239106   1.485   6.355   4.280 -0.5719 -0.4128  0.0193
 5872TIP3    H139107   1.490   6.274   4.330  1.0568 -1.6164 -2.0616
 5872TIP3    H239108   1.574   6.372   4.250 -0.7201  2.5965  1.0743
 5873TIP3   OH239109   0.135   0.905  16.219 -0.4846 -0.2736 -0.2052
 5873TIP3    H139110   0.195   0.966  16.175  0.6096 -0.6957  0.6753
 5873TIP3    H239111   0.096   0.855  16.147  1.1843 -0.8648 -0.7470
 5874TIP3   OH239112   4.179   1.579  16.103  0.5523 -0.4819  0.3937
 5874TIP3    H139113   4.099   1.546  16.063  2.2523 -1.3450 -2.5012
 5874TIP3    H239114   4.166   1.673  16.109  0.4695 -0.1993 -3.0390
 5875TIP3   OH239115   1.471   6.649   0.270  0.1627  0.2120  0.1720
 5875TIP3    H139116   1.536   6.641   0.340  0.3116 -3.0050 -0.3006
 5875TIP3    H239117   1.387   6.640   0.315  0.1618  0.7228  0.2774
 5876TIP3   OH239118   3.556   0.251   2.296 -0.2775 -0.2267 -0.4030
 5876TIP3    H139119   3.522   0.310   2.229  2.8522  1.3798 -0.6644
 5876TIP3    H239120   3.603   0.183   2.248  1.1429  0.3853  0.0861
 5877TIP3   OH239121   3.349   2.078   1.837  0.0002 -0.8346 -0.6726
 5877TIP3    H139122   3.382   2.013   1.898 -1.2551 -1.4249 -0.5991
 5877TIP3    H239123   3.254   2.067   1.840 -0.2406  1.0713 -0.5760
 5878TIP3   OH239124   6.315   0.887   1.730  0.1156  0.0424 -0.5593
 5878TIP3    H139125   6.332   0.975   1.698  0.5485 -0.1395 -0.8240
 5878TIP3    H239126   6.223   0.870   1.706 -0.8913  1.5164  2.0206
 5879TIP3   OH239127   5.374   0.303  14.911 -0.5904  0.2618 -0.0359
 5879TIP3    H139128   5.450   0.311  14.969 -0.2770  1.2140 -0.5711
 5879TIP3    H239129   5.353   0.210  14.913  0.3225  0.0530  0.4634
 5880TIP3   OH239130   0.625   6.692  16.443  0.3936 -0.4030 -0.0918
 5880TIP3    H139131   0.583   6.762  16.393 -1.2690 -0.1778  1.5414
 5880TIP3    H239132   0.556   6.628  16.456  0.8011 -0.4806  1.8280
 5881TIP3   OH239133   1.721   6.234   5.300  0.3769  0.1299 -0.2397
 5881TIP3    H139134   1.732   6.328   5.292  0.1486  0.2103  0.3404
 5881TIP3    H239135   1.660   6.210   5.230  0.1967  0.4604 -0.1954
 5882TIP3   OH239136   3.617   6.359  13.529  0.1318 -0.7629 -0.7168
 5882TIP3    H139137   3.576   6.404  13.455 -0.8865  0.7559  0.7212
 5882TIP3    H239138   3.576   6.273  13.530 -2.4157  0.3911  0.1104
 5883TIP3   OH239139   4.794   5.829   3.937 -0.2672  0.0233 -0.0232
 5883TIP3    H139140   4.835   5.881   4.006 -1.2982  1.3511 -0.3916
 5883TIP3    H239141   4.715   5.794   3.978 -1.1616  1.2519 -0.6691
 5884TIP3   OH239142   2.416   2.771  14.819 -0.0617 -0.6928  0.2243
 5884TIP3    H139143   2.405   2.865  14.813  2.2660 -0.3569  0.4702
 5884TIP3    H239144   2.391   2.737  14.733  0.1972  0.2823 -0.2404
 5885TIP3   OH239145   0.454   0.781  15.828 -0.1346 -0.0077 -0.4366
 5885TIP3    H139146   0.536   0.739  15.800 -0.5938 -1.0776 -0.1903
 5885TIP3    H239147   0.467   0.874  15.808  0.1788 -0.5206 -2.7273
 5886TIP3   OH239148   3.716   4.701  14.666 -0.3310  0.1187  0.3681
 5886TIP3    H139149   3.632   4.697  14.712  0.3327 -1.1921  1.5295
 5886TIP3    H239150   3.745   4.792  14.677 -1.5607  0.5631  0.0051
 5887TIP3   OH239151   3.081   6.665  15.721 -0.3386 -0.1281 -0.2802
 5887TIP3    H139152   3.002   6.670  15.667  0.1285 -1.0747 -1.0455
 5887TIP3    H239153   3.059   6.717  15.799 -0.7542  1.8330 -1.6835
 5888TIP3   OH239154   0.024   6.145   5.611  1.1389 -0.8039 -0.3390
 5888TIP3    H139155   0.099   6.129   5.668 -0.4708  0.5135  2.2502
 5888TIP3    H239156  -0.048   6.095   5.650  0.3656 -1.1133 -2.1101
 5889TIP3   OH239157   6.798   5.581   0.100  0.2221  0.7869 -0.3262
 5889TIP3    H139158   6.745   5.654   0.133  0.7185  1.9453 -1.9906
 5889TIP3    H239159   6.868   5.624   0.050  0.4417 -0.8347 -1.4501
 5890TIP3   OH239160   0.225   4.670   0.403 -0.5901  0.1212  0.3603
 5890TIP3    H139161   0.210   4.623   0.322  0.9899 -0.2277  0.2592
 5890TIP3    H239162   0.202   4.608   0.472 -1.0240  0.0986  0.1957
 5891TIP3   OH239163   3.548   1.174  11.754  0.2787  0.3422  0.1663
 5891TIP3    H139164   3.597   1.110  11.804  0.7921  0.9616  0.4617
 5891TIP3    H239165   3.485   1.210  11.816 -2.1660 -2.1085 -0.7910
 5892TIP3   OH239166   5.340   4.891   5.248  0.3502  0.3784 -0.2783
 5892TIP3    H139167   5.412   4.834   5.220 -1.8438 -3.5251  1.5731
 5892TIP3    H239168   5.331   4.874   5.342 -1.0693  3.0474  0.1095
 5893TIP3   OH239169   6.092   3.171  14.787  0.5710 -0.3855  0.0972
 5893TIP3    H139170   6.031   3.140  14.720  0.0228  0.5982  0.1450
 5893TIP3    H239171   6.081   3.108  14.859  0.1372 -0.6271 -0.1749
 5894TIP3   OH239172   1.109   5.422   4.363 -0.3203 -0.2515  0.3672
 5894TIP3    H139173   1.028   5.382   4.332  0.5149 -1.1983 -0.6048
 5894TIP3    H239174   1.098   5.516   4.346 -0.8623 -0.4775 -0.5339
 5895TIP3   OH239175   1.502   0.031  14.740 -0.3031  0.2343  0.6078
 5895TIP3    H139176   1.409   0.044  14.720  0.0051  0.9655 -0.4124
 5895TIP3    H239177   1.547   0.098  14.687  0.7372  0.4636  1.7729
 5896TIP3   OH239178   2.891   5.670   5.710 -0.0240 -0.5349  0.5357
 5896TIP3    H139179   2.941   5.710   5.781  0.7635  0.8541 -0.7747
 5896TIP3    H239180   2.957   5.638   5.649 -0.6973 -0.3815 -0.2882
 5897TIP3   OH239181   0.524   4.791   4.790  0.0404  0.5481 -0.3048
 5897TIP3    H139182   0.548   4.829   4.706 -1.2178 -0.8082 -1.2987
 5897TIP3    H239183   0.543   4.697   4.780 -0.0264  0.3946  0.9594
 5898TIP3   OH239184   1.873   2.440  15.412  0.4804 -0.7574 -0.6989
 5898TIP3    H139185   1.793   2.493  15.410  0.3464 -0.9973 -2.0578
 5898TIP3    H239186   1.894   2.432  15.505  0.7431  2.0145 -0.4969
 5899TIP3   OH239187   5.529   3.617  13.948 -0.0239  0.2491  0.5569
 5899TIP3    H139188   5.506   3.693  14.002  1.0548  0.8004  0.2459
 5899TIP3    H239189   5.624   3.608  13.958 -0.2224 -1.4252  1.0588
 5900TIP3   OH239190   4.072   3.456   1.478 -0.2264  0.3660 -0.2519
 5900TIP3    H139191   4.076   3.410   1.394  1.4676 -0.2144  0.1156
 5900TIP3    H239192   4.069   3.548   1.455 -0.2697  0.1902 -0.9585
 5901TIP3   OH239193   2.245   4.376   1.733  0.9171  0.3548  0.5353
 5901TIP3    H139194   2.221   4.419   1.650  0.8095  0.4158  0.5983
 5901TIP3    H239195   2.293   4.443   1.782  1.0420  0.2961  0.4948
 5902TIP3   OH239196   4.931   1.322  12.619  0.0585  0.0487 -0.0893
 5902TIP3    H139197   4.889   1.390  12.566  0.6966  1.0696  0.7025
 5902TIP3    H239198   4.888   1.241  12.591 -0.4438  0.7188 -1.3176
 5903TIP3   OH239199   5.537   0.091  13.029  0.1891 -0.4418  0.0339
 5903TIP3    H139200   5.612   0.078  13.088  0.5964  0.4269 -0.2787
 5903TIP3    H239201   5.535   0.186  13.014 -0.9038 -0.4755 -0.0608
 5904TIP3   OH239202   2.240   1.094   4.972 -0.2855 -0.1748 -0.0184
 5904TIP3    H139203   2.147   1.096   4.949  0.0552  0.7360 -1.4315
 5904TIP3    H239204   2.272   1.180   4.946  0.6728 -0.0037  1.7111
 5905TIP3   OH239205   4.174   0.396   0.503 -0.2296  0.5942 -0.0053
 5905TIP3    H139206   4.147   0.438   0.422  0.3530  2.4884  0.7574
 5905TIP3    H239207   4.093   0.362   0.541 -0.5667  0.1082 -1.1116
 5906TIP3   OH239208   4.839   4.703   4.117  0.8790  0.3071 -0.0150
 5906TIP3    H139209   4.781   4.708   4.041  1.2221  1.3400 -0.2080
 5906TIP3    H239210   4.795   4.642   4.176  0.9321 -1.0427 -1.3124
 5907TIP3   OH239211   5.902   2.288   3.710  0.0150  0.0763 -0.8526
 5907TIP3    H139212   5.900   2.384   3.718 -0.0690  0.1000 -1.1374
 5907TIP3    H239213   5.930   2.273   3.620 -1.3693 -0.1567 -1.2552
 5908TIP3   OH239214   4.466   1.774  15.225  0.1251  0.1358  0.0912
 5908TIP3    H139215   4.428   1.860  15.240  0.3815  0.2766 -0.0695
 5908TIP3    H239216   4.475   1.736  15.313 -0.8669 -0.1054  0.0904
 5909TIP3   OH239217   4.526   5.761   5.405 -0.3034  0.1515 -0.5247
 5909TIP3    H139218   4.593   5.814   5.448 -0.0733  0.4757 -1.2844
 5909TIP3    H239219   4.504   5.694   5.470  0.8565 -0.0445 -0.3216
 5910TIP3   OH239220   3.086   5.505   0.505 -0.6526  0.4102  0.4395
 5910TIP3    H139221   3.016   5.440   0.516 -1.2928  1.2324  1.3280
 5910TIP3    H239222   3.042   5.589   0.511  0.3671  0.9382  0.6566
 5911TIP3   OH239223   1.488   2.696   0.339  0.0011  0.0291  0.2865
 5911TIP3    H139224   1.466   2.695   0.246 -1.1345  1.5956  0.5063
 5911TIP3    H239225   1.578   2.664   0.343  0.2269  0.4021 -1.4010
 5912TIP3   OH239226   0.563   5.964  15.868 -0.7275 -0.0387  0.1386
 5912TIP3    H139227   0.563   5.958  15.773 -2.6199 -1.2757  0.1803
 5912TIP3    H239228   0.636   6.022  15.889  0.0003 -0.1391 -2.0325
 5913TIP3   OH239229   4.667   6.159  11.128 -0.3137 -0.1111  0.8720
 5913TIP3    H139230   4.577   6.192  11.117 -0.2360 -0.0607  0.3818
 5913TIP3    H239231   4.660   6.065  11.109 -0.1227  0.0319  0.0865
 5914TIP3   OH239232   4.340   5.067  12.181  0.3589 -0.1767  0.1452
 5914TIP3    H139233   4.327   4.972  12.184 -0.4210 -0.1142 -0.9324
 5914TIP3    H239234   4.259   5.104  12.216  0.8224  0.0856  0.9418
 5915TIP3   OH239235   4.311   0.824  17.230 -0.7657 -0.7604  0.3281
 5915TIP3    H139236   4.343   0.868  17.152  0.3557 -0.3208  1.0309
 5915TIP3    H239237   4.218   0.848  17.235  0.0835  2.5482  1.3649
 5916TIP3   OH239238   2.352   3.474   0.815  0.4159 -0.3610  0.0876
 5916TIP3    H139239   2.398   3.425   0.746 -0.6949  0.7008 -1.4455
 5916TIP3    H239240   2.261   3.447   0.806  0.0039  1.0166  0.0619
 5917TIP3   OH239241   1.077   3.067   0.739  0.1464  0.2143 -0.0261
 5917TIP3    H139242   1.031   3.095   0.817  0.2272 -0.0187  0.1073
 5917TIP3    H239243   1.148   3.130   0.727 -1.2959  1.6389 -1.2659
 5918TIP3   OH239244   2.070   4.960   6.219 -0.2340  0.0402  0.1950
 5918TIP3    H139245   2.068   4.918   6.305  2.8422  0.4611  0.5588
 5918TIP3    H239246   2.097   5.050   6.237  1.4709 -0.1337 -1.2415
 5919TIP3   OH239247   3.944   1.569  11.449 -0.4416 -0.9138 -0.6625
 5919TIP3    H139248   3.876   1.544  11.387 -1.4558 -0.6260  0.3155
 5919TIP3    H239249   3.898   1.577  11.533  0.9564 -1.5388  0.1670
 5920TIP3   OH239250   5.955   1.423   1.454 -0.2757  0.1768  0.2032
 5920TIP3    H139251   6.004   1.505   1.446  1.8678 -1.1596 -1.1065
 5920TIP3    H239252   5.921   1.407   1.366 -0.2045 -0.5910  0.3082
 5921TIP3   OH239253   0.320   2.782  15.711  0.4479 -0.7625  0.3296
 5921TIP3    H139254   0.277   2.777  15.796  0.8520 -0.6354  0.5419
 5921TIP3    H239255   0.337   2.691  15.687  1.4603 -0.7394  0.9595
 5922TIP3   OH239256   6.510   1.408  12.275 -0.2051  0.6431  0.2504
 5922TIP3    H139257   6.529   1.471  12.344 -0.6321  1.1122 -0.0621
 5922TIP3    H239258   6.415   1.402  12.274 -0.1677 -0.0242  0.2960
 5923TIP3   OH239259   2.314   5.501  14.324  0.5620 -0.0563 -0.6909
 5923TIP3    H139260   2.382   5.519  14.259 -1.0608 -4.4892 -3.8092
 5923TIP3    H239261   2.232   5.514  14.277 -0.6898 -0.8614  1.2394
 5924TIP3   OH239262   6.541   6.434   6.196 -0.2258  0.1743 -0.6490
 5924TIP3    H139263   6.448   6.441   6.173  0.0525  0.2716 -1.7518
 5924TIP3    H239264   6.584   6.503   6.145  0.4655  0.0915 -0.1841
 5925TIP3   OH239265   1.618   5.008  12.137  0.4411  0.1833 -0.6336
 5925TIP3    H139266   1.713   5.003  12.124  0.4458  0.9722 -0.9692
 5925TIP3    H239267   1.607   5.005  12.232  0.6607 -1.8971 -0.6505
 5926TIP3   OH239268   3.847   1.598   2.823 -0.0188  0.4072 -0.3611
 5926TIP3    H139269   3.793   1.646   2.885 -0.1484  1.0616 -0.9791
 5926TIP3    H239270   3.927   1.650   2.815  0.5869 -0.3878  0.2998
 5927TIP3   OH239271   0.328   3.372   2.979 -0.3629 -0.5818  0.2922
 5927TIP3    H139272   0.254   3.433   2.971 -0.5396 -0.9321 -0.9622
 5927TIP3    H239273   0.321   3.317   2.901  3.0232  1.3853 -1.5261
 5928TIP3   OH239274   2.397   0.823  11.021 -0.6073 -0.4263 -0.4175
 5928TIP3    H139275   2.491   0.841  11.031 -0.2476 -3.3291  2.2250
 5928TIP3    H239276   2.392   0.736  10.984 -2.2821 -0.2862 -0.5813
 5929TIP3   OH239277   4.552   1.073   2.532  0.5985 -0.0681 -0.0319
 5929TIP3    H139278   4.572   0.983   2.556  1.8740  0.0732 -0.5390
 5929TIP3    H239279   4.578   1.080   2.440  0.3233  0.7630 -0.0549
 5930TIP3   OH239280   3.770   5.552   2.109 -0.1028  0.1025  0.6330
 5930TIP3    H139281   3.844   5.601   2.075 -0.6403  0.6851  0.2867
 5930TIP3    H239282   3.793   5.533   2.200  0.9575 -0.6986  0.2116
 5931TIP3   OH239283   5.500   5.851  11.560 -0.2535  0.2370  0.5457
 5931TIP3    H139284   5.570   5.848  11.625 -0.8329 -0.8252  1.1430
 5931TIP3    H239285   5.534   5.805  11.484 -0.3245 -0.3262  0.8577
 5932TIP3   OH239286   5.341   2.051  11.441 -0.0896  0.2032 -0.5498
 5932TIP3    H139287   5.306   1.987  11.503  3.2133  0.8025  2.0910
 5932TIP3    H239288   5.272   2.116  11.432 -1.1719 -0.6420  1.3952
 5933TIP3   OH239289   6.163   5.911  13.620 -0.1424 -0.2840  0.2389
 5933TIP3    H139290   6.245   5.871  13.652  0.1133 -0.0072 -0.0717
 5933TIP3    H239291   6.191   5.989  13.573 -0.3383 -1.8755 -2.6117
 5934TIP3   OH239292   6.356   2.339  16.324 -0.0578  0.5583  0.2705
 5934TIP3    H139293   6.264   2.365  16.323  0.0530  1.0000 -1.7113
 5934TIP3    H239294   6.403   2.415  16.290  0.7959 -0.4190 -0.8018
 5935TIP3   OH239295   1.579   1.100   2.241  0.4110  0.1554  0.6100
 5935TIP3    H139296   1.573   1.100   2.146  0.1936 -0.4374  0.6204
 5935TIP3    H239297   1.657   1.153   2.261  1.0548 -0.5740  0.0624
 5936TIP3   OH239298   3.982   3.065  16.296 -0.4111 -0.5038  0.9818
 5936TIP3    H139299   4.043   3.126  16.336  0.1548  0.6547 -1.5715
 5936TIP3    H239300   3.996   3.075  16.201 -1.3500 -3.5012  0.4742
 5937TIP3   OH239301   6.365   2.627  12.297 -0.0643  0.0038  0.0032
 5937TIP3    H139302   6.392   2.713  12.329  0.2098  0.2726 -0.9537
 5937TIP3    H239303   6.444   2.591  12.255  0.4434 -1.5705  2.1625
 5938TIP3   OH239304   2.666   1.283  11.102  0.4543  0.5111 -0.5434
 5938TIP3    H139305   2.612   1.205  11.113  0.7998  0.2934 -0.3290
 5938TIP3    H239306   2.609   1.347  11.061  0.2360  0.0639 -0.9427
 5939TIP3   OH239307   0.085   2.050  17.237 -0.3606  0.1749 -0.1899
 5939TIP3    H139308   0.152   2.101  17.192  0.7910 -1.6257 -0.5384
 5939TIP3    H239309   0.048   1.993  17.170  0.2103 -1.3516  0.7733
 5940TIP3   OH239310   4.521   6.227   2.788 -0.2676  1.4518  0.5428
 5940TIP3    H139311   4.585   6.269   2.731 -2.1630  2.1141 -1.1464
 5940TIP3    H239312   4.475   6.299   2.830  1.4741  0.9750  3.4255
 5941TIP3   OH239313   6.056   3.593   4.680 -0.0502 -0.1144 -0.1241
 5941TIP3    H139314   6.081   3.672   4.632  0.5459 -0.9733 -1.2708
 5941TIP3    H239315   6.128   3.578   4.742 -0.5064  0.6284  0.5926
 5942TIP3   OH239316   1.311   2.015  13.967  0.0451 -0.1899  0.5632
 5942TIP3    H139317   1.365   2.029  14.046  1.6468 -0.7683 -0.4052
 5942TIP3    H239318   1.227   2.055  13.989  1.1658  1.6199  1.7690
 5943TIP3   OH239319   0.979   2.239  15.533  0.6051 -0.4609 -0.0138
 5943TIP3    H139320   0.988   2.331  15.510  0.3275 -0.1790  0.9927
 5943TIP3    H239321   0.916   2.238  15.605  0.7909 -1.4082  0.1403
 5944TIP3   OH239322   1.768   1.745  16.100  0.1950  0.5970  0.2399
 5944TIP3    H139323   1.791   1.801  16.026  0.2059 -0.6201 -0.6908
 5944TIP3    H239324   1.821   1.778  16.173  2.6949 -0.3000 -1.1111
 5945TIP3   OH239325   4.880   4.221  11.451  0.0629 -0.3061  0.0665
 5945TIP3    H139326   4.969   4.227  11.417 -0.2759  1.1369 -0.6096
 5945TIP3    H239327   4.866   4.304  11.496 -0.9874 -0.4735  0.0527
 5946TIP3   OH239328   5.153   5.567   5.222 -0.0445  1.0148  0.3308
 5946TIP3    H139329   5.128   5.509   5.150  0.9867 -1.3326  1.7956
 5946TIP3    H239330   5.133   5.655   5.190 -3.2462 -0.2211 -1.3198
 5947TIP3   OH239331   0.218   2.409  17.273 -0.7992  0.2513 -0.1510
 5947TIP3    H139332   0.179   2.411  17.186  2.1093 -0.3303 -1.5354
 5947TIP3    H239333   0.196   2.494  17.312 -2.9150  0.1345 -1.0703
 5948TIP3   OH239334   3.165   5.646  12.581 -0.0304 -0.0076  0.5121
 5948TIP3    H139335   3.073   5.618  12.577  0.1829 -0.5116 -2.5754
 5948TIP3    H239336   3.184   5.674  12.492  3.0815 -0.7243  0.9149
 5949TIP3   OH239337   3.681   1.984  16.748 -0.1416  0.3862  0.1065
 5949TIP3    H139338   3.623   2.053  16.715 -0.4329  0.9211  1.6775
 5949TIP3    H239339   3.764   2.001  16.704  0.0440  2.3023  1.1171
 5950TIP3   OH239340   1.498   4.908  16.838  0.0114  0.2034  0.1185
 5950TIP3    H139341   1.409   4.876  16.846  0.6485 -1.4771  0.6476
 5950TIP3    H239342   1.546   4.865  16.909  0.6158  3.4103  1.7806
 5951TIP3   OH239343   6.603   0.674  12.469  0.2475  0.1193 -0.3833
 5951TIP3    H139344   6.543   0.621  12.417  1.5212 -0.6748 -1.0714
 5951TIP3    H239345   6.682   0.681  12.416  0.4694  1.8954  0.1217
 5952TIP3   OH239346   1.844   2.448  10.561 -0.1339 -0.2985 -0.3717
 5952TIP3    H139347   1.805   2.468  10.646 -2.2886 -1.6350 -1.0240
 5952TIP3    H239348   1.828   2.526  10.508  2.2419  1.0131  0.7474
 5953TIP3   OH239349   6.673   2.198  14.806  0.6124 -0.4558  0.3553
 5953TIP3    H139350   6.674   2.291  14.830 -1.5354  0.2965 -2.1478
 5953TIP3    H239351   6.756   2.183  14.763  0.8006  0.4310  0.3966
 5954TIP3   OH239352   0.670   2.978   2.004  0.6894  0.0646  0.2027
 5954TIP3    H139353   0.643   2.897   2.045  1.9143 -0.7027 -0.4671
 5954TIP3    H239354   0.663   2.961   1.910  0.6867  0.8218  0.0622
 5955TIP3   OH239355   1.594   0.605   3.699  0.2714  0.4740 -0.0710
 5955TIP3    H139356   1.610   0.592   3.606  1.9604  0.6236  0.1701
 5955TIP3    H239357   1.544   0.686   3.704 -1.1798 -0.3422 -0.9218
 5956TIP3   OH239358   4.013   5.215   0.463 -0.0344 -0.0408  0.2834
 5956TIP3    H139359   3.963   5.285   0.421  1.3399  1.6306  1.3834
 5956TIP3    H239360   3.974   5.205   0.550  0.4534  0.0870  0.5184
 5957TIP3   OH239361   4.688   5.876  15.822  0.1469  0.1477  0.4593
 5957TIP3    H139362   4.777   5.869  15.788  0.9744  1.6971  2.2118
 5957TIP3    H239363   4.641   5.928  15.757  0.6027 -0.3770 -0.3003
 5958TIP3   OH239364   6.075   4.136  14.698  0.4133  0.3707  0.1853
 5958TIP3    H139365   6.110   4.192  14.767 -0.5878 -0.0750  1.0681
 5958TIP3    H239366   6.063   4.195  14.623 -0.5661  1.3461  1.0850
 5959TIP3   OH239367   2.009   3.154  14.885 -0.3162 -0.3157  0.0034
 5959TIP3    H139368   1.920   3.187  14.901 -0.1980 -0.0897  0.1942
 5959TIP3    H239369   2.066   3.219  14.926 -0.0664 -0.5291 -0.0085
 5960TIP3   OH239370   2.457   2.571   4.106  0.1202 -0.4316  0.3380
 5960TIP3    H139371   2.472   2.491   4.157 -0.4181  0.4202  1.8796
 5960TIP3    H239372   2.540   2.588   4.061 -0.2306 -2.7039 -1.2577
 5961TIP3   OH239373   4.855   3.594  14.158 -0.2959 -0.8246  0.3952
 5961TIP3    H139374   4.806   3.537  14.099  0.3874  1.5314 -2.5848
 5961TIP3    H239375   4.945   3.562  14.154 -0.2983 -0.8245  0.3381
 5962TIP3   OH239376   4.460   3.458   5.084  0.3378  0.3009 -0.1619
 5962TIP3    H139377   4.406   3.516   5.030 -0.3581 -0.8180 -0.6800
 5962TIP3    H239378   4.434   3.370   5.058 -1.5769 -0.3319  3.4797
 5963TIP3   OH239379   2.585   4.341   4.601  0.3866 -0.6576  0.1147
 5963TIP3    H139380   2.598   4.281   4.527 -0.1639 -1.1733  0.4287
 5963TIP3    H239381   2.521   4.296   4.657 -0.3077  0.3745  0.1738
 5964TIP3   OH239382   4.584   1.322   2.662  0.1645  0.3616 -0.3214
 5964TIP3    H139383   4.614   1.244   2.616  2.1732  0.5232  0.6186
 5964TIP3    H239384   4.536   1.289   2.738  1.2212 -0.0018  0.2110
 5965TIP3   OH239385   0.619   2.614   0.558  0.2848 -0.2482 -0.5991
 5965TIP3    H139386   0.592   2.525   0.533  0.7991 -0.4414 -0.4559
 5965TIP3    H239387   0.693   2.602   0.617 -1.9388  0.1284  2.3779
 5966TIP3   OH239388   1.240   2.396   1.810 -0.1926 -0.2206 -0.2214
 5966TIP3    H139389   1.317   2.425   1.760  0.4631  0.8762  1.3708
 5966TIP3    H239390   1.270   2.317   1.856 -0.1089  0.0001  0.1117
 5967TIP3   OH239391   4.041   0.479  13.162  0.3750  0.0070  0.1195
 5967TIP3    H139392   4.112   0.415  13.158 -1.1300 -1.7062  0.0326
 5967TIP3    H239393   4.012   0.488  13.072  0.3844  0.6030  0.1754
 5968TIP3   OH239394   2.626   6.300   3.465 -0.0383 -0.3572 -0.0356
 5968TIP3    H139395   2.635   6.216   3.420 -0.1563 -0.3507 -0.0721
 5968TIP3    H239396   2.705   6.348   3.441  0.0875 -0.5026  0.0827
 5969TIP3   OH239397   1.966   0.786  11.567  0.2928  0.8250 -0.8219
 5969TIP3    H139398   1.936   0.876  11.582  3.7267  2.2179 -1.8045
 5969TIP3    H239399   1.982   0.782  11.472  1.7232 -0.2812 -0.5542
 5970TIP3   OH239400   4.006   1.106   1.576  0.1683 -0.9775  0.3334
 5970TIP3    H139401   3.928   1.104   1.631  1.0134  0.8054  1.6396
 5970TIP3    H239402   3.976   1.143   1.493 -0.5165 -0.9498  0.5885
 5971TIP3   OH239403   3.770   0.252  15.191  0.9689 -0.1594  0.0727
 5971TIP3    H139404   3.711   0.201  15.135  0.1267  0.4232  0.4229
 5971TIP3    H239405   3.769   0.205  15.275  2.1906 -1.0034 -0.3703
 5972TIP3   OH239406   2.173   0.954  13.272 -0.7689  0.6552 -0.3448
 5972TIP3    H139407   2.167   1.028  13.333 -1.5538  0.4407 -0.1569
 5972TIP3    H239408   2.228   0.890  13.316 -0.5514  0.8936 -0.2696
 5973TIP3   OH239409   5.479   4.757  15.932 -0.5365  0.2841  0.1953
 5973TIP3    H139410   5.540   4.792  15.997 -0.9685 -0.1331  0.8198
 5973TIP3    H239411   5.498   4.664  15.929 -1.2661  0.1284  0.5159
 5974TIP3   OH239412   5.791   0.009   4.030  0.3205  0.2816  0.2770
 5974TIP3    H139413   5.722  -0.056   4.013  0.6284  0.4542 -1.7961
 5974TIP3    H239414   5.853  -0.036   4.088 -0.2004 -0.7974  0.0064
 5975TIP3   OH239415   2.184   3.163  15.401  0.6168  0.8147  0.2928
 5975TIP3    H139416   2.215   3.155  15.492  1.1194  0.7485  0.1182
 5975TIP3    H239417   2.148   3.251  15.396 -0.6536  0.3423  0.9303
 5976TIP3   OH239418   1.330   0.734   6.512  0.2643 -0.4033 -0.4400
 5976TIP3    H139419   1.276   0.804   6.550  2.3592 -1.3151  4.5265
 5976TIP3    H239420   1.306   0.656   6.561  1.3252 -2.2733 -2.7963
 5977TIP3   OH239421   5.035   3.123  15.388 -0.2512  0.5062  0.0784
 5977TIP3    H139422   5.005   3.116  15.479  1.5444  0.2188  0.6568
 5977TIP3    H239423   5.034   3.217  15.370  0.7010  0.6651  0.8439
 5978TIP3   OH239424   3.270   0.162   0.202 -0.1511 -0.2275  0.1658
 5978TIP3    H139425   3.218   0.197   0.129  0.7752  1.2785  0.1951
 5978TIP3    H239426   3.292   0.073   0.174 -1.5735 -0.4122 -0.4496
 5979TIP3   OH239427   4.399   0.409  12.002  0.1493 -0.2537  0.0325
 5979TIP3    H139428   4.402   0.386  11.909 -0.0943 -2.4602  0.5396
 5979TIP3    H239429   4.308   0.436  12.017 -0.0066 -0.6377 -0.2103
 5980TIP3   OH239430   2.368   3.771   5.524  0.0815 -0.2654 -0.1608
 5980TIP3    H139431   2.277   3.796   5.540  1.0315  2.9091  0.6711
 5980TIP3    H239432   2.364   3.712   5.449 -2.4102  2.1704 -2.0448
 5981TIP3   OH239433   4.582   4.238  15.991 -0.0809 -0.6109  0.2743
 5981TIP3    H139434   4.526   4.300  16.038 -0.8896 -1.4843  0.4542
 5981TIP3    H239435   4.667   4.246  16.035  0.2884  1.5801 -0.7557
 5982TIP3   OH239436   5.236   3.944  11.524  0.0404  0.5534  0.2159
 5982TIP3    H139437   5.233   3.857  11.563  0.5693  0.2431 -0.4153
 5982TIP3    H239438   5.265   3.929  11.434 -2.2810  1.1373 -0.6563
 5983TIP3   OH239439   0.722   6.565   2.828 -0.0719  0.2922  0.1880
 5983TIP3    H139440   0.690   6.494   2.883 -0.0765  1.1967  1.3715
 5983TIP3    H239441   0.748   6.522   2.746  1.3924 -1.3102  1.4498
 5984TIP3   OH239442   5.293   2.753  13.636 -0.0805  0.0472  0.5701
 5984TIP3    H139443   5.325   2.832  13.680 -1.1086  0.3982  0.6925
 5984TIP3    H239444   5.242   2.786  13.562  0.8950 -0.5332 -0.3828
 5985TIP3   OH239445   6.132   3.881  14.787 -0.0054  0.6607  0.0325
 5985TIP3    H139446   6.159   3.889  14.878 -0.1892 -0.7944  0.2261
 5985TIP3    H239447   6.103   3.969  14.763  0.6738  1.2059  1.1650
 5986TIP3   OH239448   1.483   1.578  15.889  0.4891 -0.1903 -0.1295
 5986TIP3    H139449   1.429   1.611  15.818  0.4705  0.1745  0.0541
 5986TIP3    H239450   1.420   1.545  15.954  0.5215 -2.8856 -1.3812
 5987TIP3   OH239451   6.358   3.816  13.832  0.9785  0.1249  0.2364
 5987TIP3    H139452   6.420   3.814  13.759 -0.4244  1.9382 -1.0613
 5987TIP3    H239453   6.342   3.909  13.848 -1.8305 -0.2694  0.0998
 5988TIP3   OH239454   4.209   2.609  13.416  0.4356  0.3089 -0.1843
 5988TIP3    H139455   4.251   2.656  13.488  3.1937  0.4059 -1.7678
 5988TIP3    H239456   4.270   2.619  13.343 -2.3800  0.4170 -2.6156
 5989TIP3   OH239457   0.977   0.942   4.137 -0.4308  0.9985  0.4446
 5989TIP3    H139458   1.032   0.867   4.113  0.5269  1.6105  0.6918
 5989TIP3    H239459   0.938   0.917   4.221  0.1174  0.8929  0.6692
 5990TIP3   OH239460   1.651   1.992   1.452  0.7307 -1.0048  0.1235
 5990TIP3    H139461   1.599   2.054   1.401  1.5804 -0.6743 -0.3421
 5990TIP3    H239462   1.591   1.963   1.521  0.3857  0.4969  0.4865
 5991TIP3   OH239463   0.619   5.836   0.894  0.6279 -0.0076  0.0641
 5991TIP3    H139464   0.713   5.841   0.909  0.5906  2.0071 -0.1464
 5991TIP3    H239465   0.606   5.878   0.808 -0.4497 -0.2950  0.0722
 5992TIP3   OH239466   1.208   3.012   3.897  0.0909  0.5606 -0.0905
 5992TIP3    H139467   1.184   3.099   3.867 -1.5397 -0.2673 -1.2828
 5992TIP3    H239468   1.224   2.962   3.816  0.2840 -0.4294  0.5455
 5993TIP3   OH239469   1.715   2.423   2.771 -0.1881 -0.3004 -0.2448
 5993TIP3    H139470   1.670   2.444   2.689  1.0866 -1.2712 -1.2104
 5993TIP3    H239471   1.793   2.375   2.744  1.1712  0.9169  1.4450
 5994TIP3   OH239472   0.183   2.746  11.025 -0.0907  0.6223  0.5887
 5994TIP3    H139473   0.228   2.807  10.966  2.2453 -1.4109  0.2143
 5994TIP3    H239474   0.210   2.774  11.113  2.9737 -1.2926  0.3341
 5995TIP3   OH239475   4.073   0.948   2.043  0.0708 -0.4494  0.3062
 5995TIP3    H139476   4.036   0.987   1.963 -0.6031 -1.8250 -0.0758
 5995TIP3    H239477   4.099   1.023   2.096 -1.6929  0.5415 -0.1755
 5996TIP3   OH239478   5.912   3.273  13.451  0.1539 -0.1954 -0.7339
 5996TIP3    H139479   5.927   3.334  13.524 -2.1715 -0.2719 -0.1312
 5996TIP3    H239480   5.858   3.322  13.390  0.0617 -0.9440 -1.2571
 5997TIP3   OH239481   2.363   6.755  11.263 -0.1646  0.2202 -0.0810
 5997TIP3    H139482   2.314   6.836  11.250 -0.6502  0.4451  2.9336
 5997TIP3    H239483   2.358   6.711  11.178 -0.0063  3.2465 -1.7312
 5998TIP3   OH239484   1.734   1.336  12.009  0.5800  0.0920 -0.0046
 5998TIP3    H139485   1.668   1.384  12.060  1.9405 -1.0494  2.9274
 5998TIP3    H239486   1.792   1.405  11.974  0.7837  0.7930  1.6792
 5999TIP3   OH239487   3.724   5.330   2.904 -0.2360  0.3392 -0.0655
 5999TIP3    H139488   3.711   5.356   2.813 -0.8754  0.8406  0.1718
 5999TIP3    H239489   3.639   5.298   2.933  0.2427 -0.9217  0.0152
 6000TIP3   OH239490   4.166   2.471   1.330  0.5931 -0.2286  0.5348
 6000TIP3    H139491   4.213   2.425   1.260 -0.4424  0.9938 -1.0037
 6000TIP3    H239492   4.146   2.557   1.293  0.9385  0.8333  2.7283
 6001TIP3   OH239493   6.269   5.770   1.665 -0.0807 -0.5200  0.2882
 6001TIP3    H139494   6.288   5.862   1.684 -0.2551 -0.4150 -0.0312
 6001TIP3    H239495   6.174   5.762   1.678 -0.0889 -0.6172  0.1620
 6002TIP3   OH239496   0.897   5.683  16.639  0.1906 -0.8607  0.1013
 6002TIP3    H139497   0.813   5.698  16.683 -0.1301 -1.5467 -0.2559
 6002TIP3    H239498   0.921   5.768  16.602  0.0124 -0.4936  0.8228
 6003TIP3   OH239499   4.523   4.272   0.945 -0.0300 -0.2445 -0.5760
 6003TIP3    H139500   4.603   4.284   0.996 -0.6008 -1.0338  0.5451
 6003TIP3    H239501   4.549   4.216   0.872  0.9854  1.5985 -1.6595
 6004TIP3   OH239502   4.830   3.579  13.708  0.6431  0.1393  0.1727
 6004TIP3    H139503   4.735   3.581  13.696  0.5169  0.5369  1.2066
 6004TIP3    H239504   4.864   3.547  13.625 -0.5334 -2.4239  0.6479
 6005TIP3   OH239505   4.844   4.330   3.102  0.2707  0.3015  0.7325
 6005TIP3    H139506   4.792   4.410   3.109  0.0034  0.2677 -0.7218
 6005TIP3    H239507   4.815   4.289   3.020  2.6306  0.3367 -0.1584
 6006TIP3   OH239508   0.988   4.575   1.253  0.1308  0.6768  0.0783
 6006TIP3    H139509   0.895   4.590   1.270 -0.4951 -1.5017 -1.2299
 6006TIP3    H239510   1.011   4.503   1.311  0.7558  0.5745 -0.2996
 6007TIP3   OH239511   1.196   1.065   1.278  0.2307  0.3439  0.0707
 6007TIP3    H139512   1.278   1.033   1.317  1.0562  2.0753 -0.1676
 6007TIP3    H239513   1.208   1.160   1.274 -2.2875  0.7410  1.1157
 6008TIP3   OH239514   5.783   4.217  16.159  0.6768  0.8489  0.1109
 6008TIP3    H139515   5.705   4.195  16.210  0.4331  0.8462 -0.2647
 6008TIP3    H239516   5.815   4.298  16.199 -0.1331  1.4339 -0.4236
 6009TIP3   OH239517   4.112   2.920   4.160 -0.2373 -0.7822  0.0563
 6009TIP3    H139518   4.031   2.915   4.108  0.2086 -1.7692 -0.5543
 6009TIP3    H239519   4.171   2.858   4.118  0.9393  0.1531  0.3422
 6010TIP3   OH239520   3.309   4.133  13.799 -0.9274  0.2103  0.3120
 6010TIP3    H139521   3.286   4.173  13.715  0.6370 -0.4382 -0.4392
 6010TIP3    H239522   3.305   4.206  13.861 -1.7944  0.7582 -0.3654
 6011TIP3   OH239523   1.561   2.092  13.307  0.2885  0.0296  0.6250
 6011TIP3    H139524   1.507   2.137  13.372  2.5232  1.2120  1.7426
 6011TIP3    H239525   1.576   2.005  13.343 -2.8463 -1.2207 -0.8652
 6012TIP3   OH239526   3.700   5.715  17.027  0.1092 -0.2618 -0.1831
 6012TIP3    H139527   3.688   5.690  17.119  0.6091 -0.6061 -0.2064
 6012TIP3    H239528   3.783   5.763  17.026  1.0824 -1.9075 -0.7518
 6013TIP3   OH239529   5.363   3.139   5.025 -0.3638 -0.0458 -0.4790
 6013TIP3    H139530   5.345   3.233   5.016  0.1682  0.0859 -0.1233
 6013TIP3    H239531   5.327   3.101   4.944 -0.6100  0.4547 -0.6098
 6014TIP3   OH239532   0.853   3.955  12.069  0.7231  0.2099  0.1130
 6014TIP3    H139533   0.866   3.887  12.003 -1.7045 -0.2027  0.0214
 6014TIP3    H239534   0.864   4.037  12.021 -1.0579 -0.0839 -0.8621
 6015TIP3   OH239535   6.224   0.997  12.867  0.0418 -0.1528  0.2895
 6015TIP3    H139536   6.274   1.075  12.846 -1.9058  0.8106 -0.9156
 6015TIP3    H239537   6.213   0.999  12.962 -1.5543  2.0213  0.0767
 6016TIP3   OH239538   6.323   4.335  11.370 -0.1827  0.2254 -0.1904
 6016TIP3    H139539   6.387   4.333  11.440 -0.8689  0.7898  0.4622
 6016TIP3    H239540   6.310   4.244  11.346  0.2684  0.0558  0.2166
 6017TIP3   OH239541   5.306   3.722  15.099 -0.4844 -0.3660 -0.0569
 6017TIP3    H139542   5.304   3.761  15.186  0.6349  2.0975 -1.0871
 6017TIP3    H239543   5.399   3.717  15.076 -0.7708 -0.6892 -1.2039
 6018TIP3   OH239544   2.395   3.579  16.095  0.2031 -0.4022  0.2127
 6018TIP3    H139545   2.305   3.545  16.093  0.4733 -1.3368  2.7718
 6018TIP3    H239546   2.450   3.500  16.089  0.8594  0.0556  0.2345
 6019TIP3   OH239547   2.687   1.148   0.319 -0.0279 -0.2436  0.6231
 6019TIP3    H139548   2.701   1.224   0.262 -1.5071 -0.0706  0.4782
 6019TIP3    H239549   2.653   1.184   0.400 -1.8800 -0.8341  0.1322
 6020TIP3   OH239550   0.898   4.926   1.366  0.1671 -0.3980 -0.0841
 6020TIP3    H139551   0.980   4.935   1.318 -1.0202  1.3419 -1.8569
 6020TIP3    H239552   0.856   4.849   1.328 -0.3065  0.3838 -1.1717
 6021TIP3   OH239553   3.632   3.478  13.890 -0.0301  0.2900 -0.0644
 6021TIP3    H139554   3.561   3.415  13.897  1.6159 -1.9235 -2.2809
 6021TIP3    H239555   3.594   3.551  13.841 -0.7264 -1.0331 -1.5582
 6022TIP3   OH239556   3.037   3.342   1.935  0.2868  0.1310 -0.4985
 6022TIP3    H139557   3.121   3.374   1.968  0.6775 -1.1000 -0.2468
 6022TIP3    H239558   3.054   3.320   1.843 -0.2025  1.4180 -0.9067
 6023TIP3   OH239559   2.957   3.996  12.470 -0.1839  0.3214  0.4678
 6023TIP3    H139560   2.972   3.921  12.412 -1.4688 -0.1013  0.6625
 6023TIP3    H239561   2.957   4.072  12.412 -1.3880 -0.0893 -0.1059
 6024TIP3   OH239562   3.053   0.540  12.781 -0.1315  0.0055  0.2265
 6024TIP3    H139563   3.051   0.520  12.875 -1.4897 -1.5468 -0.1091
 6024TIP3    H239564   2.998   0.618  12.772  2.2334  1.8378  1.0575
 6025TIP3   OH239565   5.284   5.510  14.416 -0.0042  0.3354 -0.2867
 6025TIP3    H139566   5.221   5.501  14.487 -0.9364  0.6902 -1.0585
 6025TIP3    H239567   5.262   5.438  14.356  1.2319 -0.3996  0.1205
 6026TIP3   OH239568   2.225   0.441   1.198 -0.3314 -0.1015  0.1268
 6026TIP3    H139569   2.261   0.437   1.287 -2.3159 -0.5023  0.9491
 6026TIP3    H239570   2.139   0.400   1.206  0.0440 -1.4429 -2.2928
 6027TIP3   OH239571   1.947   3.569  16.960  0.0289 -0.5580  0.2104
 6027TIP3    H139572   2.028   3.609  16.928 -0.6700 -0.5716 -1.6734
 6027TIP3    H239573   1.952   3.478  16.929 -1.4092 -0.1398 -1.3359
 6028TIP3   OH239574   3.143   2.144  12.373 -0.0738 -0.5518  0.4784
 6028TIP3    H139575   3.218   2.100  12.412 -0.2370 -1.4852 -0.2521
 6028TIP3    H239576   3.182   2.208  12.313  0.1512 -0.2447  0.9530
 6029TIP3   OH239577   0.639   4.398   3.720 -0.8017 -0.4113 -0.8748
 6029TIP3    H139578   0.590   4.429   3.644 -1.3258 -0.9698 -0.7684
 6029TIP3    H239579   0.679   4.316   3.691 -0.9339 -0.5828 -0.5780
 6030TIP3   OH239580   4.014   3.423   2.814  0.1093  0.4121  0.3985
 6030TIP3    H139581   4.075   3.495   2.797 -0.2570  0.0635 -2.5838
 6030TIP3    H239582   3.939   3.464   2.855  1.3241  1.2065  1.8905
 6031TIP3   OH239583   4.530   0.134   2.590 -0.0786 -0.4468  0.2342
 6031TIP3    H139584   4.497   0.077   2.520 -1.2194 -1.1257  1.3063
 6031TIP3    H239585   4.625   0.133   2.578 -0.3141  0.5321 -2.1354
 6032TIP3   OH239586   2.256   2.038  13.715  0.6435  0.5686 -0.1649
 6032TIP3    H139587   2.235   1.957  13.668 -0.5964  0.0079  1.3024
 6032TIP3    H239588   2.348   2.029  13.738  0.9860  0.3834 -1.5672
 6033TIP3   OH239589   4.040   0.974  11.462  0.0858 -0.0611  0.6766
 6033TIP3    H139590   4.081   1.017  11.386 -0.9045  1.8450  1.1932
 6033TIP3    H239591   3.954   0.948  11.430 -0.0421  0.0558  0.9350
 6034TIP3   OH239592   0.586   6.506   3.573  0.0525 -0.0867 -0.1898
 6034TIP3    H139593   0.552   6.500   3.662 -0.4769 -2.7169 -0.5318
 6034TIP3    H239594   0.678   6.529   3.584 -0.9109  3.5002  0.8677
 6035TIP3   OH239595   5.191   2.608   3.507 -0.0290  0.3007  0.3640
 6035TIP3    H139596   5.135   2.540   3.469 -0.4651  0.5920  0.4722
 6035TIP3    H239597   5.197   2.675   3.439 -2.5555  1.8060  1.5447
 6036TIP3   OH239598   0.527   3.475   0.098 -0.5246  0.1440 -0.0547
 6036TIP3    H139599   0.481   3.473   0.181 -0.5956  0.9746 -0.0722
 6036TIP3    H239600   0.615   3.443   0.119 -0.3104  1.0678  0.4921
 6037TIP3   OH239601   1.562   4.399  11.961 -0.3060  0.5304  0.2973
 6037TIP3    H139602   1.570   4.305  11.944  0.6887  0.6060  0.3047
 6037TIP3    H239603   1.473   4.410  11.995 -1.0509 -0.1575 -1.3795
 6038TIP3   OH239604   1.872   0.782   0.192 -0.3889 -0.1247  0.5920
 6038TIP3    H139605   1.837   0.769   0.104  0.4857  1.3726  0.0123
 6038TIP3    H239606   1.957   0.823   0.178  0.4910 -1.4113  2.0826
 6039TIP3   OH239607   2.835   0.873  15.977 -0.2750 -0.7715 -0.1295
 6039TIP3    H139608   2.886   0.853  15.898  1.9190 -0.0914  1.0788
 6039TIP3    H239609   2.844   0.967  15.988 -4.5083 -0.0872 -1.6719
 6040TIP3   OH239610   2.774   3.001  16.762  0.3420 -0.1246 -0.0371
 6040TIP3    H139611   2.848   3.056  16.735  1.1113  0.4822  3.0433
 6040TIP3    H239612   2.812   2.939  16.824 -1.1564 -2.0032 -0.9415
 6041TIP3   OH239613   6.105   3.293   2.369 -0.0105  0.5594  0.3581
 6041TIP3    H139614   6.028   3.350   2.372  1.3406  2.7171 -3.3185
 6041TIP3    H239615   6.093   3.240   2.290  1.7243  0.0860  0.3914
 6042TIP3   OH239616   6.091   6.082   5.051 -0.0038  0.0306 -0.1930
 6042TIP3    H139617   6.139   6.071   5.134 -0.9676 -1.9056  0.1386
 6042TIP3    H239618   6.137   6.024   4.990  0.0648  0.6625 -0.7418
 6043TIP3   OH239619   5.988   3.575   1.438  0.1844  0.8186 -0.7760
 6043TIP3    H139620   5.937   3.651   1.466 -0.3538  0.3603 -0.5058
 6043TIP3    H239621   6.079   3.605   1.443  0.0312  1.1395  0.2608
 6044TIP3   OH239622   6.027   6.816   2.255  0.0947 -0.1083  0.1087
 6044TIP3    H139623   6.081   6.764   2.196  2.2238 -0.1015  1.9529
 6044TIP3    H239624   5.965   6.861   2.198  2.9286  0.9253 -2.2839
 6045TIP3   OH239625   2.346   0.555   5.760 -0.4224 -0.0374 -0.4207
 6045TIP3    H139626   2.265   0.508   5.741 -0.1967  0.3497 -2.5378
 6045TIP3    H239627   2.407   0.526   5.692  0.6565  0.9864  0.0910
 6046TIP3   OH239628   1.159   1.303  16.061 -0.2723  0.3786  0.5860
 6046TIP3    H139629   1.147   1.228  16.120  0.3192 -0.2936 -0.1334
 6046TIP3    H239630   1.217   1.270  15.993  0.2838  1.6070  0.4564
 6047TIP3   OH239631   2.619   2.714  14.088 -0.3811 -0.3932 -0.4659
 6047TIP3    H139632   2.673   2.766  14.029 -0.6872 -2.0822 -2.2898
 6047TIP3    H239633   2.571   2.654  14.030 -1.7563 -1.1261  1.3775
 6048TIP3   OH239634   6.700   3.314  15.472 -0.1593 -0.4726  0.4300
 6048TIP3    H139635   6.784   3.345  15.439 -0.3792 -1.4466 -1.0775
 6048TIP3    H239636   6.687   3.361  15.555  0.6186  1.6519 -0.6437
 6049TIP3   OH239637   0.413   3.276   4.440 -0.8343  0.4132  0.2319
 6049TIP3    H139638   0.327   3.241   4.463 -0.4683  0.4454  1.6663
 6049TIP3    H239639   0.463   3.274   4.521 -0.1041  2.2150 -0.1350
 6050TIP3   OH239640   4.648   1.589  11.834  0.1913  0.9388  0.0182
 6050TIP3    H139641   4.651   1.496  11.857 -2.9206  1.1892  1.6670
 6050TIP3    H239642   4.740   1.613  11.822  1.0460 -2.3372 -0.4854
 6051TIP3   OH239643   5.539   2.407  12.847 -0.4571  0.1681  0.3255
 6051TIP3    H139644   5.493   2.381  12.927 -2.0139 -0.8289 -0.8373
 6051TIP3    H239645   5.493   2.486  12.818  1.6313  1.9219  1.6473
 6052TIP3   OH239646   1.000   3.450   4.831  0.0250  0.6652 -0.1943
 6052TIP3    H139647   1.034   3.421   4.915 -1.5528 -1.4891 -0.2617
 6052TIP3    H239648   1.066   3.511   4.798  1.9609 -0.5364  1.3449
 6053TIP3   OH239649   3.358   1.305  16.163  0.0143  0.6587 -0.0518
 6053TIP3    H139650   3.400   1.220  16.148 -1.2671  0.2066 -1.2401
 6053TIP3    H239651   3.387   1.332  16.250  1.6788 -0.2627 -0.3067
 6054TIP3   OH239652   5.650   0.761  16.030 -0.1318 -0.7315 -0.0096
 6054TIP3    H139653   5.596   0.686  16.055  1.0522 -1.0285  1.7890
 6054TIP3    H239654   5.623   0.782  15.941 -1.3198 -2.5386 -0.0991
 6055TIP3   OH239655   1.908   3.906  16.462 -0.1398  0.1452  0.9380
 6055TIP3    H139656   1.958   3.973  16.417  0.7248 -1.1597 -0.1040
 6055TIP3    H239657   1.970   3.834  16.476 -1.4433 -1.0879  0.5551
 6056TIP3   OH239658   5.830   4.573   0.673  0.2414 -0.8111 -0.3065
 6056TIP3    H139659   5.906   4.571   0.615  0.5297 -0.0525  0.0381
 6056TIP3    H239660   5.857   4.629   0.745  0.0432 -2.1069  0.7880
 6057TIP3   OH239661   0.090   6.253  16.575 -0.6107 -0.0060  0.0780
 6057TIP3    H139662   0.096   6.318  16.505  1.4199  0.7849  0.9357
 6057TIP3    H239663   0.052   6.176  16.534 -1.6551  1.2438 -1.3150
 6058TIP3   OH239664   1.591   4.126  12.240 -0.4526 -0.2464  0.3495
 6058TIP3    H139665   1.628   4.042  12.213 -0.5438 -0.0875 -0.2894
 6058TIP3    H239666   1.573   4.172  12.157  1.3486  1.1693  0.7052
 6059TIP3   OH239667   0.870   5.353   3.012  0.7460 -0.3089 -0.3857
 6059TIP3    H139668   0.907   5.371   2.926  0.3039 -0.8596 -0.6961
 6059TIP3    H239669   0.854   5.439   3.050  2.4419 -0.0590 -0.1986
 6060TIP3   OH239670   0.081   0.376  13.550  0.0173 -0.6955  0.0234
 6060TIP3    H139671   0.014   0.363  13.482  0.7583  0.2590 -0.8978
 6060TIP3    H239672   0.153   0.319  13.525  0.1125 -0.6847  0.2661
 6061TIP3   OH239673   6.050   0.860   4.642  0.5859 -0.6473  0.3355
 6061TIP3    H139674   6.068   0.898   4.556 -0.7228  1.6586  1.0500
 6061TIP3    H239675   6.106   0.909   4.702 -0.9002 -0.0189  1.2361
 6062TIP3   OH239676   5.051   4.503  12.553 -0.0564  0.1842  0.6638
 6062TIP3    H139677   5.123   4.556  12.520 -0.1782  1.4606  2.3853
 6062TIP3    H239678   4.977   4.564  12.561 -0.8545 -0.7406  0.4910
 6063TIP3   OH239679   6.017   2.054   3.798  0.0083 -0.0001 -0.4029
 6063TIP3    H139680   5.974   2.121   3.745  0.2727  1.0089  0.6197
 6063TIP3    H239681   6.025   2.095   3.884  1.3307 -0.8834 -0.1059
 6064TIP3   OH239682   4.152   5.022  15.698 -0.3287 -0.0662 -0.1844
 6064TIP3    H139683   4.193   5.108  15.693 -2.5651  1.0756  0.5102
 6064TIP3    H239684   4.091   5.029  15.772 -1.2931 -1.9143 -0.7885
 6065TIP3   OH239685   0.142   2.904   5.660 -0.4689 -0.0721  0.7425
 6065TIP3    H139686   0.193   2.940   5.732  0.5464  0.2093 -0.1031
 6065TIP3    H239687   0.135   2.811   5.678  1.5510 -0.3613  0.1629
 6066TIP3   OH239688   0.562   0.490   1.075  0.5573 -0.6833  0.2499
 6066TIP3    H139689   0.581   0.577   1.039 -0.0403 -0.9206 -0.6531
 6066TIP3    H239690   0.584   0.429   1.004 -0.8775 -1.1361  0.1795
 6067TIP3   OH239691   1.548   1.736  14.258 -0.3357 -0.0587  0.2042
 6067TIP3    H139692   1.484   1.702  14.320  0.0338  0.9261  1.1381
 6067TIP3    H239693   1.529   1.690  14.176 -1.3082 -0.8146  0.8490
 6068TIP3   OH239694   2.376   1.472  14.699  0.0589  0.4519  0.0896
 6068TIP3    H139695   2.434   1.526  14.645  2.4420 -0.4933  1.6797
 6068TIP3    H239696   2.333   1.534  14.758  1.1911  0.8722  0.4745
 6069TIP3   OH239697   1.953   2.030  14.470 -0.4163  0.1012  0.3434
 6069TIP3    H139698   1.928   1.968  14.402 -0.4298  0.6061 -0.1157
 6069TIP3    H239699   2.010   1.981  14.528  0.6738  0.0346 -0.7715
 6070TIP3   OH239700   5.308   2.982  13.759 -0.0392  0.2188 -0.2489
 6070TIP3    H139701   5.354   3.037  13.695  0.3280  0.0720 -0.1134
 6070TIP3    H239702   5.244   3.042  13.800  0.4382  0.5773 -0.0213
 6071TIP3   OH239703   2.714   0.221  12.860 -0.6981  0.2432 -0.2031
 6071TIP3    H139704   2.668   0.151  12.906 -2.1843  0.1920 -1.7263
 6071TIP3    H239705   2.807   0.200  12.871 -1.1172 -2.3630 -1.1908
 6072TIP3   OH239706   4.663   5.996   5.182 -0.2339 -0.1775 -0.6125
 6072TIP3    H139707   4.645   5.920   5.238 -0.1758  1.4701  1.7561
 6072TIP3    H239708   4.581   6.046   5.184  0.5184  1.0552 -0.0960
 6073TIP3   OH239709   2.784   2.558   2.370 -0.0030 -0.0494  0.2537
 6073TIP3    H139710   2.799   2.528   2.280 -1.0571 -0.9270  0.3683
 6073TIP3    H239711   2.820   2.647   2.372 -0.9606  0.3784 -1.3299
 6074TIP3   OH239712   4.220   2.128   6.473  0.1419  0.4390 -0.2753
 6074TIP3    H139713   4.290   2.166   6.419 -0.7085 -0.1446 -1.8070
 6074TIP3    H239714   4.227   2.034   6.459  0.2536  0.2442  1.0698
 6075TIP3   OH239715   4.482   3.307  14.090  0.0942 -0.0190 -0.0850
 6075TIP3    H139716   4.442   3.324  14.175  1.1313  1.8808  0.0446
 6075TIP3    H239717   4.408   3.307  14.029 -0.5631 -0.5710  0.6948
 6076TIP3   OH239718   5.951   3.159  15.202 -0.0525  0.2272 -0.1564
 6076TIP3    H139719   6.011   3.192  15.135 -1.2518  1.5493 -0.5940
 6076TIP3    H239720   5.864   3.171  15.165 -0.6145 -1.7380  0.4512
 6077TIP3   OH239721   4.593   1.200   2.101  0.2330 -0.1389  0.0583
 6077TIP3    H139722   4.614   1.155   2.020 -0.2369 -0.6804  0.2390
 6077TIP3    H239723   4.499   1.192   2.111 -0.1690  2.6221 -0.9340
 6078TIP3   OH239724   0.505   4.002   4.589 -0.1609 -0.5820 -0.1538
 6078TIP3    H139725   0.545   4.028   4.506 -1.8797 -1.2740 -1.2320
 6078TIP3    H239726   0.576   4.006   4.652  1.2276 -0.2246 -1.6984
 6079TIP3   OH239727   0.198   1.559  16.670 -0.1239  0.4976 -0.2888
 6079TIP3    H139728   0.240   1.538  16.587  2.0473 -0.8313  1.0951
 6079TIP3    H239729   0.269   1.558  16.734 -1.8553  0.8507  1.6993
 6080TIP3   OH239730   6.636   6.540  12.652 -0.2152 -0.3937 -0.0435
 6080TIP3    H139731   6.633   6.463  12.595  0.3491 -1.3943  1.2399
 6080TIP3    H239732   6.651   6.504  12.740  0.1701  1.1991  0.5600
 6081TIP3   OH239733   2.972   3.716  11.428  0.1437  0.4711 -0.5034
 6081TIP3    H139734   2.954   3.703  11.335 -0.5205  0.8427 -0.4335
 6081TIP3    H239735   2.894   3.760  11.462 -0.1989 -0.8878  0.5267
 6082TIP3   OH239736   2.984   0.224  14.119  0.1180 -0.2166 -0.6268
 6082TIP3    H139737   2.934   0.215  14.038 -0.0497 -0.2515 -0.5191
 6082TIP3    H239738   3.075   0.220  14.091  0.0655 -1.9613 -0.6365
 6083TIP3   OH239739   2.918   5.643  15.416  0.0969  0.1811 -0.3420
 6083TIP3    H139740   2.934   5.693  15.496 -0.1337  0.2338 -0.3269
 6083TIP3    H239741   2.902   5.554  15.445 -0.5009  0.3015 -0.2842
 6084TIP3   OH239742   1.033   5.687   4.277  0.0291  0.2572  0.6729
 6084TIP3    H139743   1.117   5.730   4.262  0.5089 -0.1087  2.2322
 6084TIP3    H239744   0.989   5.690   4.192  1.0096  1.7505  0.1961
 6085TIP3   OH239745   1.511   4.066  16.740 -0.0957  0.2946 -0.1239
 6085TIP3    H139746   1.516   4.162  16.747 -1.3848  0.4023 -0.5994
 6085TIP3    H239747   1.418   4.047  16.737  0.1575 -0.9880 -0.0691
 6086TIP3   OH239748   4.919   3.705  12.567 -0.5439 -0.3515 -0.0401
 6086TIP3    H139749   4.827   3.704  12.594 -0.7400  0.5544 -0.6717
 6086TIP3    H239750   4.968   3.706  12.649 -1.0573 -2.6005  0.3290
 6087TIP3   OH239751   0.678   1.080  16.915  0.0843  0.2761 -0.3402
 6087TIP3    H139752   0.731   1.140  16.968 -0.9270  0.7065  0.2014
 6087TIP3    H239753   0.710   1.093  16.825 -0.5314  2.0912 -0.3144
 6088TIP3   OH239754   4.472   1.824  11.228  0.1699  0.4269  0.2654
 6088TIP3    H139755   4.403   1.890  11.216  1.5796  1.8247 -0.2455
 6088TIP3    H239756   4.500   1.836  11.319  2.3808  2.5178 -0.6184
 6089TIP3   OH239757   0.396   1.078  15.125  0.0544  0.0465 -0.1104
 6089TIP3    H139758   0.414   1.171  15.143  0.0114 -0.2400  1.4305
 6089TIP3    H239759   0.469   1.050  15.069  0.3320  0.8733 -0.1707
 6090TIP3   OH239760   0.835   0.667   2.553  0.0879 -0.5197  0.7092
 6090TIP3    H139761   0.848   0.761   2.537  1.1978 -0.9562 -1.1417
 6090TIP3    H239762   0.801   0.633   2.470 -0.8832 -1.6750  1.5501
 6091TIP3   OH239763   6.566   0.443   4.166  0.6104 -0.3798 -0.1197
 6091TIP3    H139764   6.493   0.401   4.211 -0.6519 -0.0197 -1.7974
 6091TIP3    H239765   6.587   0.520   4.220 -0.5235 -0.2622  0.1588
 6092TIP3   OH239766   4.713   4.941  14.345 -0.6915 -0.7509  0.0126
 6092TIP3    H139767   4.753   4.996  14.278  2.9508 -2.7857  0.3901
 6092TIP3    H239768   4.727   4.988  14.427 -2.6182  0.3775 -0.2730
 6093TIP3   OH239769   0.989   2.598   3.018  0.4265 -0.4700 -0.5281
 6093TIP3    H139770   1.026   2.633   2.937  1.1029 -2.5772 -1.1839
 6093TIP3    H239771   1.063   2.598   3.079  0.4720 -0.8330 -0.5780
 6094TIP3   OH239772   5.909   0.011   2.886 -0.1986 -0.3105 -0.5103
 6094TIP3    H139773   5.874   0.078   2.944  0.2567 -1.2810  0.9216
 6094TIP3    H239774   5.998  -0.004   2.918  0.4050 -0.1657 -2.0741
 6095TIP3   OH239775   1.063   0.593   1.215  0.8043  0.0273 -0.4982
 6095TIP3    H139776   1.081   0.686   1.205 -1.2548  0.5109  0.1934
 6095TIP3    H239777   1.080   0.556   1.128  1.3573  1.0846 -0.8456
 6096TIP3   OH239778   0.581   6.314   4.164 -0.2425 -0.5082 -0.2661
 6096TIP3    H139779   0.500   6.263   4.169 -0.0230 -0.8030  0.4660
 6096TIP3    H239780   0.649   6.249   4.148  0.1253 -0.5371  1.3410
 6097TIP3   OH239781   4.654   1.412  13.024 -0.6054  0.2727 -0.4657
 6097TIP3    H139782   4.729   1.472  13.019 -2.5457  2.8597  0.2579
 6097TIP3    H239783   4.622   1.406  12.934 -2.6423  3.3781 -0.0210
 6098TIP3   OH239784   1.208   6.060   4.349  0.2847  0.6396  0.0279
 6098TIP3    H139785   1.259   6.113   4.288  0.5689 -1.0134 -1.2111
 6098TIP3    H239786   1.173   6.122   4.412  1.5111  2.1495 -0.7595
 6099TIP3   OH239787   1.046   2.484  11.446  0.1651  0.5247  0.1499
 6099TIP3    H139788   1.055   2.389  11.447  0.6180  0.5641  0.5847
 6099TIP3    H239789   1.036   2.507  11.354  5.5858  0.5203 -0.6221
 6100TIP3   OH239790   2.245   1.831  16.982  0.5573 -0.0871  0.5630
 6100TIP3    H139791   2.160   1.850  16.942  0.8194 -0.5200 -0.2117
 6100TIP3    H239792   2.224   1.809  17.072 -0.0848  0.5197  0.5685
 6101TIP3   OH239793   3.943   6.236  11.658 -0.3502 -0.0679  0.1092
 6101TIP3    H139794   3.972   6.325  11.680 -1.5098 -0.0305  1.5824
 6101TIP3    H239795   4.011   6.179  11.692 -1.0781  0.1093  1.9039
 6102TIP3   OH239796   1.151   4.511  16.532 -0.4776  0.0373 -0.2957
 6102TIP3    H139797   1.227   4.512  16.473  0.0920  2.8124  0.4089
 6102TIP3    H239798   1.164   4.433  16.586  1.8644  0.3778 -0.2830
 6103TIP3   OH239799   4.094   4.567  12.475  0.4185  0.8312 -0.4232
 6103TIP3    H139800   4.141   4.638  12.518 -1.3074  0.8572  1.4802
 6103TIP3    H239801   4.029   4.610  12.420 -0.5577  0.7420  0.6492
 6104TIP3   OH239802   1.672   5.169  15.260  0.3428  0.8261  0.0153
 6104TIP3    H139803   1.652   5.262  15.250 -1.3646  0.5305  0.4398
 6104TIP3    H239804   1.660   5.152  15.354 -2.0792 -0.3732 -0.4537
 6105TIP3   OH239805   1.986   0.246   5.326  0.7781  0.2210 -0.0050
 6105TIP3    H139806   2.016   0.271   5.239  3.1615  0.8095  0.9464
 6105TIP3    H239807   1.985   0.151   5.325  0.7642  0.2308 -0.6992
 6106TIP3   OH239808   0.464   3.758  16.152  0.0073 -0.2001  0.3666
 6106TIP3    H139809   0.542   3.711  16.182 -1.4308 -3.0041 -0.0257
 6106TIP3    H239810   0.482   3.778  16.061  0.6430 -0.0212  0.5277
 6107TIP3   OH239811   5.705   1.665   2.130 -0.6011 -0.5343 -0.3171
 6107TIP3    H139812   5.655   1.657   2.048  0.1860 -2.1039 -0.6632
 6107TIP3    H239813   5.672   1.595   2.185  0.0036 -0.4889  0.1047
 6108TIP3   OH239814   3.700   5.161   0.443 -0.9312 -1.0264 -0.2586
 6108TIP3    H139815   3.742   5.092   0.391 -1.3305 -2.0804  0.8088
 6108TIP3    H239816   3.642   5.205   0.381 -0.3928 -1.3921 -1.0356
 6109TIP3   OH239817   5.357   6.054  14.044  0.4705  0.4730 -0.2817
 6109TIP3    H139818   5.336   6.014  13.960  0.6999  0.7190 -0.4568
 6109TIP3    H239819   5.428   6.000  14.079  0.1257  0.1489 -0.0752
 6110TIP3   OH239820   1.844   0.469   4.690  0.3136  0.2675  0.4237
 6110TIP3    H139821   1.824   0.492   4.780  1.2561  1.2018  0.4047
 6110TIP3    H239822   1.787   0.394   4.671 -0.3428  0.4625  1.5801
 6111TIP3   OH239823   4.010   5.723   3.924  0.7944 -0.4801  0.0449
 6111TIP3    H139824   4.001   5.718   4.020 -0.0747 -2.2763 -0.1141
 6111TIP3    H239825   3.992   5.815   3.903 -1.8853 -0.6760  1.3274
 6112TIP3   OH239826   2.328   5.849   2.207  0.4309 -0.5881  0.0053
 6112TIP3    H139827   2.422   5.834   2.206  0.3225 -1.2695 -0.5064
 6112TIP3    H239828   2.318   5.944   2.200  1.1303 -0.2531  3.0609
 6113TIP3   OH239829   0.231   3.118   5.848  0.2776  0.7397 -0.0185
 6113TIP3    H139830   0.254   3.182   5.916  0.5165 -0.0545  0.6530
 6113TIP3    H239831   0.230   3.169   5.767  0.3454  1.6236  0.5289
 6114TIP3   OH239832   1.620   3.703   5.980 -0.1848  0.1961  0.1992
 6114TIP3    H139833   1.640   3.644   6.052  0.3118 -0.5890 -0.5594
 6114TIP3    H239834   1.652   3.789   6.009 -0.2643 -0.0556  1.0252
 6115TIP3   OH239835   3.671   1.760  13.920 -0.1518 -0.1622  0.0943
 6115TIP3    H139836   3.619   1.737  13.844 -0.0569  0.3316 -0.1235
 6115TIP3    H239837   3.760   1.770  13.886 -0.1075  0.0479  0.2719
 6116TIP3   OH239838   3.198   2.944   3.396  0.2109 -0.4223 -0.0125
 6116TIP3    H139839   3.240   2.894   3.327 -1.5540 -3.2471  0.8288
 6116TIP3    H239840   3.107   2.954   3.366  0.3787  1.7697  0.1392
 6117TIP3   OH239841   4.200   0.130   0.932 -0.2699  0.1486  0.5048
 6117TIP3    H139842   4.266   0.199   0.922 -0.6920  0.6165  0.8868
 6117TIP3    H239843   4.137   0.146   0.861  0.7292 -1.1122 -0.6869
 6118TIP3   OH239844   6.775   0.753  17.233 -0.9086 -0.0854  0.5150
 6118TIP3    H139845   6.820   0.668  17.235 -2.6125 -1.0579 -0.9308
 6118TIP3    H239846   6.712   0.749  17.305  0.5185  0.8428  1.8417
 6119TIP3   OH239847   0.125   2.931  15.509 -0.0989  0.1745 -0.6710
 6119TIP3    H139848   0.107   2.913  15.601  1.6193 -0.9466 -0.5219
 6119TIP3    H239849   0.201   2.989  15.510 -0.4740  0.6859 -1.3734
 6120TIP3   OH239850   3.461   5.067  11.899 -0.0675 -0.2034  0.1059
 6120TIP3    H139851   3.472   5.131  11.829 -0.8137  0.8955  0.9747
 6120TIP3    H239852   3.367   5.069  11.918 -0.0031 -1.1378  0.5463
 6121TIP3   OH239853   3.468   4.930  15.367  0.4479 -0.8002  0.5763
 6121TIP3    H139854   3.470   5.000  15.302 -1.2360 -0.7518  0.5601
 6121TIP3    H239855   3.449   4.975  15.450 -0.5316 -1.2039  0.5812
 6122TIP3   OH239856   3.395   0.268   5.971  0.2894  0.6143  0.0049
 6122TIP3    H139857   3.435   0.270   5.884 -1.1678  2.1140 -0.6680
 6122TIP3    H239858   3.318   0.325   5.963 -1.2244 -1.1406  1.5926
 6123TIP3   OH239859   1.343   3.386  12.853  0.8237  0.0105 -0.2696
 6123TIP3    H139860   1.348   3.458  12.790  2.4446 -1.1983 -1.5785
 6123TIP3    H239861   1.421   3.396  12.908  0.2360  0.1472  0.5445
 6124TIP3   OH239862   3.071   1.280  13.349  0.0037 -0.3149  0.4224
 6124TIP3    H139863   3.152   1.244  13.313  0.4221 -0.2765  1.3058
 6124TIP3    H239864   3.003   1.220  13.319  0.5183 -1.0532  0.6934
 6125TIP3   OH239865   0.621   4.926  11.629 -0.2107  0.3086  0.0632
 6125TIP3    H139866   0.632   4.892  11.540  0.1856  1.2434 -0.2439
 6125TIP3    H239867   0.615   4.847  11.684  3.0883 -0.2587 -0.3324
 6126TIP3   OH239868   5.131   4.620   3.119  0.2316 -0.1740  0.5606
 6126TIP3    H139869   5.099   4.618   3.209 -0.4338 -0.0997  0.3313
 6126TIP3    H239870   5.215   4.574   3.122  0.1365 -0.3144  1.1832
 6127TIP3   OH239871   3.716   1.173   5.367  0.1395 -0.9564 -0.2059
 6127TIP3    H139872   3.701   1.267   5.381 -2.4403 -1.1802 -1.0691
 6127TIP3    H239873   3.811   1.164   5.363  0.4631  1.4707  0.8790
 6128TIP3   OH239874   5.113   4.664  16.490 -0.4383  0.1394 -0.1948
 6128TIP3    H139875   5.115   4.660  16.586  1.1681 -0.4410 -0.2401
 6128TIP3    H239876   5.022   4.643  16.467 -0.4778 -1.2607  1.1407
 6129TIP3   OH239877   6.653   6.461  14.293 -0.0992 -0.1087  0.7567
 6129TIP3    H139878   6.669   6.538  14.347 -0.2532  1.4318 -1.3140
 6129TIP3    H239879   6.734   6.411  14.298  0.3802  0.7143  1.2801
 6130TIP3   OH239880   4.118   1.886   0.256 -0.3272 -0.0911  0.0641
 6130TIP3    H139881   4.212   1.871   0.246 -0.1232  0.4846  1.0273
 6130TIP3    H239882   4.109   1.981   0.252 -0.9627 -0.1812 -0.7275
 6131TIP3   OH239883   2.656   6.472   1.230  0.3373  0.1670 -0.3094
 6131TIP3    H139884   2.562   6.454   1.231  0.5451 -0.9407  0.5423
 6131TIP3    H239885   2.669   6.528   1.153 -0.8089 -0.8288 -1.2558
 6132TIP3   OH239886   2.377   5.198   0.905  0.3225  0.1044  0.0182
 6132TIP3    H139887   2.362   5.276   0.958 -0.5565 -1.0123  1.4674
 6132TIP3    H239888   2.398   5.130   0.968  2.3636 -0.5533 -1.3267
 6133TIP3   OH239889   6.770   0.059  15.107  0.1153 -0.0529 -0.2647
 6133TIP3    H139890   6.690   0.110  15.123  0.3432 -0.1620  1.3471
 6133TIP3    H239891   6.802   0.038  15.195  1.2878 -1.0004 -0.9127
 6134TIP3   OH239892   4.482   4.257   5.544 -0.6210  0.3129  0.4795
 6134TIP3    H139893   4.544   4.184   5.554  0.5177  1.1636 -0.3133
 6134TIP3    H239894   4.531   4.324   5.496 -2.3500  0.7488 -0.7335
 6135TIP3   OH239895   5.263   2.112   5.327  0.4980 -0.1673 -0.1808
 6135TIP3    H139896   5.235   2.075   5.410  0.8909  0.8121  0.3997
 6135TIP3    H239897   5.198   2.181   5.308  0.8356  0.1230 -0.2990
 6136TIP3   OH239898   4.456   3.151   1.791  0.4400 -0.1497  0.0435
 6136TIP3    H139899   4.365   3.122   1.794  0.1997  0.7341  2.0428
 6136TIP3    H239900   4.454   3.241   1.822  2.1248 -0.4390  1.0503
 6137TIP3   OH239901   5.812   0.583   3.539 -0.0075 -0.5854  0.2841
 6137TIP3    H139902   5.842   0.619   3.622  0.3719  1.2706 -0.6303
 6137TIP3    H239903   5.892   0.565   3.490 -0.2583  0.7807 -0.6668
 6138TIP3   OH239904   3.673   2.290   3.617 -0.3857 -0.2779 -0.6963
 6138TIP3    H139905   3.607   2.295   3.548 -1.0622 -0.5394 -0.0813
 6138TIP3    H239906   3.729   2.217   3.591 -1.3480 -1.1446 -0.3658
 6139TIP3   OH239907   3.043   2.564  12.269  0.5854  0.1715 -0.4049
 6139TIP3    H139908   3.120   2.568  12.327  0.4159 -1.9722  0.0345
 6139TIP3    H239909   3.049   2.478  12.228 -1.2207  0.2509 -0.8807
 6140TIP3   OH239910   5.325   2.033   2.084 -0.0832 -0.5162  0.1044
 6140TIP3    H139911   5.388   2.051   2.015  0.9238 -1.2419  0.8200
 6140TIP3    H239912   5.376   1.993   2.154 -0.9266  1.0648  1.6684
 6141TIP3   OH239913   5.848   3.509  16.229  0.4371 -0.2991 -0.1226
 6141TIP3    H139914   5.856   3.543  16.319  0.2978  0.5013 -0.4061
 6141TIP3    H239915   5.937   3.489  16.202  0.5422  0.0380 -0.0244
 6142TIP3   OH239916   6.055   4.208   0.137 -0.1925  0.2564  0.1653
 6142TIP3    H139917   6.127   4.229   0.078 -0.6329 -1.1933 -0.8976
 6142TIP3    H239918   6.095   4.157   0.207 -0.0023  0.3687  0.1378
 6143TIP3   OH239919   1.857   1.864   0.408 -0.2137 -0.2549  0.2185
 6143TIP3    H139920   1.896   1.932   0.352  2.1025 -1.2706  0.5388
 6143TIP3    H239921   1.776   1.840   0.363 -0.0108  1.2490 -0.9930
 6144TIP3   OH239922   5.460   4.260   0.602  0.5651 -0.1061  0.3074
 6144TIP3    H139923   5.454   4.332   0.540 -0.5862 -0.7205 -0.3108
 6144TIP3    H239924   5.392   4.279   0.667  0.8371 -0.1826  0.6150
 6145TIP3   OH239925   3.337   3.264  12.073 -0.2124 -0.2704 -0.3863
 6145TIP3    H139926   3.329   3.355  12.101 -1.6292 -0.6270  0.4340
 6145TIP3    H239927   3.300   3.262  11.985 -2.9401 -0.5587  0.6960
 6146TIP3   OH239928   5.387   4.715   3.716  0.2743 -0.6724 -0.1826
 6146TIP3    H139929   5.314   4.654   3.728  1.0894 -1.5105  0.5655
 6146TIP3    H239930   5.434   4.712   3.799  1.8117 -0.9812 -1.0558
 6147TIP3   OH239931   5.719   1.085  16.322  0.1374 -0.8284 -0.1321
 6147TIP3    H139932   5.669   1.138  16.384  0.1233 -0.6291 -0.3161
 6147TIP3    H239933   5.720   1.137  16.241 -0.9055 -1.6340 -0.6840
 6148TIP3   OH239934   3.116   4.347   3.058  0.0273 -0.7229 -0.5519
 6148TIP3    H139935   3.050   4.356   2.989  1.3468 -0.4952 -1.7959
 6148TIP3    H239936   3.066   4.318   3.135 -1.3378 -1.7584 -1.8033
 6149TIP3   OH239937   5.421   5.810   5.957  0.0928  0.8861 -0.0832
 6149TIP3    H139938   5.427   5.818   6.052 -1.8259 -1.6724  0.3233
 6149TIP3    H239939   5.393   5.719   5.943  2.0315  0.7184 -3.1678
 6150TIP3   OH239940   0.330   4.779   1.068 -0.0750 -1.2045 -0.5256
 6150TIP3    H139941   0.288   4.855   1.030 -0.2008  0.2354  2.3397
 6150TIP3    H239942   0.422   4.785   1.040 -0.1572 -0.1779 -0.5930
 6151TIP3   OH239943   4.438   6.064   3.793 -0.0430 -0.0451  0.1370
 6151TIP3    H139944   4.512   6.104   3.838 -0.8586  0.5779  0.9632
 6151TIP3    H239945   4.362   6.092   3.844 -0.9742  0.5210 -1.5348
 6152TIP3   OH239946   0.042   6.774  11.604 -0.3436  0.3773 -0.4711
 6152TIP3    H139947   0.117   6.718  11.589  0.5162  1.3639  0.0556
 6152TIP3    H239948  -0.014   6.760  11.528  0.9882  0.6266 -1.5216
 6153TIP3   OH239949   5.785   2.180  16.497 -0.8149  0.2452  0.2189
 6153TIP3    H139950   5.815   2.265  16.529 -1.6540  0.2851  0.9154
 6153TIP3    H239951   5.724   2.149  16.564 -2.3354  0.1610 -1.1541
 6154TIP3   OH239952   5.030   5.691   1.414 -0.0521 -0.1136  0.3231
 6154TIP3    H139953   5.062   5.741   1.339  0.7741 -1.0244  0.0593
 6154TIP3    H239954   4.961   5.636   1.379  0.1541 -0.3446  0.2749
 6155TIP3   OH239955   4.177   1.817  13.764  0.4302  0.5770  0.0401
 6155TIP3    H139956   4.145   1.901  13.731  1.2042  2.2043  3.2767
 6155TIP3    H239957   4.219   1.777  13.688 -1.8498  2.1111 -2.1287
 6156TIP3   OH239958   3.292   2.256  14.093 -0.2049 -0.0989 -0.3029
 6156TIP3    H139959   3.267   2.174  14.136  0.9242 -0.2301  0.1151
 6156TIP3    H239960   3.210   2.304  14.084 -1.2654 -2.1397 -2.4172
 6157TIP3   OH239961   1.748   2.854  10.870  0.4970  0.3564  0.1601
 6157TIP3    H139962   1.743   2.810  10.954  0.0649  1.4948  0.7496
 6157TIP3    H239963   1.667   2.831  10.825  1.5373 -1.7355 -0.7175
 6158TIP3   OH239964   4.647   0.716  13.777  0.5420  1.0103  0.2778
 6158TIP3    H139965   4.635   0.656  13.703  1.7719 -1.2118  1.8254
 6158TIP3    H239966   4.559   0.727  13.813  0.3244 -0.0016  0.0707
 6159TIP3   OH239967   3.794   1.643   3.533 -0.1438  0.5094 -0.1425
 6159TIP3    H139968   3.817   1.639   3.441 -0.8309  1.8330 -0.3942
 6159TIP3    H239969   3.698   1.649   3.534 -0.0399  3.0259  0.4984
 6160TIP3   OH239970   2.236   4.980   3.111 -0.0452  0.5227  0.1742
 6160TIP3    H139971   2.165   4.945   3.057  1.5566 -0.3505 -1.4192
 6160TIP3    H239972   2.233   5.074   3.097 -1.3803  0.5861  0.7680
 6161TIP3   OH239973   3.943   0.729  16.756  0.6023  0.2026 -0.6622
 6161TIP3    H139974   3.977   0.702  16.842  0.3199 -3.0787 -1.5121
 6161TIP3    H239975   4.019   0.723  16.698  0.9658  3.1150 -0.5713
 6162TIP3   OH239976   3.041   5.501  10.803  0.6385 -0.9018  0.1975
 6162TIP3    H139977   3.025   5.585  10.847  1.6073 -1.5543  1.8560
 6162TIP3    H239978   3.134   5.504  10.779  0.6968 -1.5300  0.3388
 6163TIP3   OH239979   2.653   1.956  15.944 -0.6302  0.0014 -0.7950
 6163TIP3    H139980   2.581   2.018  15.956  0.2887  1.0806 -0.7461
 6163TIP3    H239981   2.728   2.011  15.918  0.8988 -0.7483  1.8036
 6164TIP3   OH239982   2.009   6.684   2.791  0.3650 -0.4532  0.2670
 6164TIP3    H139983   2.068   6.758   2.774 -0.8229  0.1810 -1.2384
 6164TIP3    H239984   1.975   6.700   2.879 -1.4745  1.9701 -0.8127
 6165TIP3   OH239985   3.465   4.763  17.264 -0.4455  0.3054 -0.1392
 6165TIP3    H139986   3.426   4.753  17.351  0.6418 -1.5279  0.1655
 6165TIP3    H239987   3.405   4.717  17.205  0.0025 -0.4399 -0.0181
 6166TIP3   OH239988   1.599   3.624   2.734 -0.0435 -0.6596 -0.3668
 6166TIP3    H139989   1.547   3.676   2.673 -1.6093 -1.0135  0.6433
 6166TIP3    H239990   1.688   3.658   2.726 -0.4116 -0.0958 -2.1750
 6167TIP3   OH239991   6.466   4.619  11.949 -0.2447 -0.2483  0.4340
 6167TIP3    H139992   6.433   4.640  12.037  0.2106 -0.7059  0.7165
 6167TIP3    H239993   6.491   4.704  11.913  1.7251 -0.2599  1.6386
 6168TIP3   OH239994   6.039   4.644  15.536 -0.1259 -0.6803  0.3988
 6168TIP3    H139995   6.112   4.668  15.479 -0.1401 -1.8544 -0.1268
 6168TIP3    H239996   6.053   4.551  15.555  0.2740 -0.1214  2.9037
 6169TIP3   OH239997   4.969   2.804  11.832  0.4238  0.8022  0.5927
 6169TIP3    H139998   5.042   2.766  11.785 -0.8269 -0.7093 -0.1511
 6169TIP3    H239999   4.905   2.827  11.764 -1.1405 -0.8461  1.4620
 6170TIP3   OH240000   2.160   4.738   5.224  0.7159 -0.5150 -0.0216
 6170TIP3    H140001   2.134   4.652   5.256  1.4972 -0.1800  1.5846
 6170TIP3    H240002   2.151   4.796   5.300 -0.8060  1.0511 -1.3519
 6171TIP3   OH240003   5.446   1.364  16.577  0.3206  0.1963  0.4540
 6171TIP3    H140004   5.530   1.396  16.610 -1.1366  1.3450  3.1911
 6171TIP3    H240005   5.389   1.441  16.576 -0.2337 -0.1719 -3.1566
 6172TIP3   OH240006   0.264   4.314   4.877  0.2691  0.4146  0.1204
 6172TIP3    H140007   0.282   4.375   4.948  1.7311 -1.3046  1.2765
 6172TIP3    H240008   0.347   4.308   4.829  0.3627 -1.1201  0.4224
 6173TIP3   OH240009   5.837   2.713  14.466  0.9969  0.7863 -0.0073
 6173TIP3    H140010   5.747   2.745  14.471 -0.0925 -2.3240  1.4605
 6173TIP3    H240011   5.855   2.679  14.554  2.6149 -1.1808 -1.0689
 6174TIP3   OH240012   5.840   5.798   1.490  0.5701  0.1730  0.0501
 6174TIP3    H140013   5.882   5.758   1.415  1.5132 -1.3623  1.3701
 6174TIP3    H240014   5.902   5.788   1.562 -1.9059 -2.0147  2.0173
 6175TIP3   OH240015   4.254   0.071   6.044 -0.1268  0.3382  0.0511
 6175TIP3    H140016   4.215   0.145   6.090  1.3120  1.5971 -0.6762
 6175TIP3    H240017   4.206   0.067   5.961 -2.2515 -1.4924  1.3521
 6176TIP3   OH240018   1.735   1.441  11.434  0.7590 -0.3567  0.1107
 6176TIP3    H140019   1.797   1.494  11.385 -1.2110  1.7992 -0.1531
 6176TIP3    H240020   1.651   1.456  11.390 -0.2036 -2.1328  1.2627
 6177TIP3   OH240021   5.952   0.204  15.263 -0.6144  0.3651  0.1899
 6177TIP3    H140022   6.017   0.133  15.266 -0.4065  0.5520  0.1100
 6177TIP3    H240023   5.906   0.190  15.181 -0.5651  0.3273  0.1668
 6178TIP3   OH240024   4.034   1.724  11.195 -0.4094  0.8562 -0.2514
 6178TIP3    H140025   4.004   1.661  11.261 -0.1491  0.4355 -0.5348
 6178TIP3    H240026   4.116   1.687  11.162 -0.8455  0.7600 -1.2416
 6179TIP3   OH240027   4.703   0.269   5.494  0.2522  0.1780 -0.5242
 6179TIP3    H140028   4.727   0.237   5.581 -1.3950  1.0209  0.2594
 6179TIP3    H240029   4.727   0.198   5.435 -2.9509 -2.4038  1.1323
 6180TIP3   OH240030   4.614   5.641  15.491 -0.0744  0.3377  0.4620
 6180TIP3    H140031   4.556   5.657  15.565 -1.4018  1.5207 -0.7867
 6180TIP3    H240032   4.639   5.729  15.461  3.0698 -0.1307  1.4784
 6181TIP3   OH240033   1.817   4.156   3.685  0.0968  0.4628  0.2638
 6181TIP3    H140034   1.820   4.250   3.669 -0.3025  0.3236 -0.6716
 6181TIP3    H240035   1.786   4.118   3.602  2.5128 -0.7064 -0.1433
 6182TIP3   OH240036   4.861   1.469  13.938  0.9175 -0.1256  0.5218
 6182TIP3    H140037   4.885   1.536  14.002  1.8214 -0.6988  0.7814
 6182TIP3    H240038   4.888   1.387  13.978  2.2463 -0.4152 -0.9524
 6183TIP3   OH240039   0.227   1.931   5.269 -0.0092  0.6260 -0.2649
 6183TIP3    H140040   0.169   1.941   5.193 -2.1461 -0.4459  1.1959
 6183TIP3    H240041   0.169   1.929   5.344  2.1061  1.8767  1.4663
 6184TIP3   OH240042   2.748   0.789  12.906 -0.5702 -0.4121 -0.3237
 6184TIP3    H140043   2.662   0.798  12.864 -1.2215  0.3363  1.1314
 6184TIP3    H240044   2.779   0.879  12.917 -0.2305 -0.6155  0.4268
 6185TIP3   OH240045   4.997   0.212   1.519 -0.0215 -0.3225 -0.4242
 6185TIP3    H140046   4.910   0.243   1.543 -1.1562 -2.6026 -1.3571
 6185TIP3    H240047   5.044   0.205   1.602 -1.8434 -2.2144  0.5008
 6186TIP3   OH240048   3.440   1.455  15.276 -0.1952 -0.1711 -0.0685
 6186TIP3    H140049   3.388   1.505  15.338  0.5837 -0.2421  0.6622
 6186TIP3    H240050   3.519   1.508  15.262  0.3706 -0.9050  0.2653
 6187TIP3   OH240051   6.420   3.444   5.400 -0.8675 -0.3619 -0.0319
 6187TIP3    H140052   6.446   3.353   5.382  0.5172 -0.4682  2.2500
 6187TIP3    H240053   6.500   3.495   5.382 -0.7633  0.0300  1.4964
 6188TIP3   OH240054   6.043   4.333  16.230 -0.3431 -0.1741  0.5345
 6188TIP3    H140055   6.097   4.263  16.193 -1.8189 -0.1356 -1.8102
 6188TIP3    H240056   6.004   4.294  16.308  0.9785 -1.0473  0.7896
 6189TIP3   OH240057   0.444   2.991   6.025 -0.0065  0.2946 -0.4068
 6189TIP3    H140058   0.374   3.016   5.964  0.8847  2.5617 -0.5560
 6189TIP3    H240059   0.426   3.040   6.105  0.5823 -0.2614  0.0784
 6190TIP3   OH240060   1.441   0.720   2.580  0.0763  0.2655 -0.3208
 6190TIP3    H140061   1.523   0.759   2.547 -1.1428  2.3007 -1.0747
 6190TIP3    H240062   1.432   0.638   2.532  2.0077 -0.3161  0.2623
 6191TIP3   OH240063   1.920   3.074  10.962 -0.0499  0.0309 -0.1395
 6191TIP3    H140064   1.968   2.992  10.950  0.9047  0.4967  0.4365
 6191TIP3    H240065   1.835   3.058  10.922  1.0176 -0.3888 -2.3236
 6192TIP3   OH240066   5.958   0.903   3.724 -0.6451  0.0574  0.7203
 6192TIP3    H140067   6.028   0.941   3.671  0.2793 -0.6485  1.4102
 6192TIP3    H240068   5.877   0.938   3.687  0.1005  1.2452  0.2054
 6193TIP3   OH240069   4.555   3.654  16.706  0.3211  0.0656  0.3249
 6193TIP3    H140070   4.500   3.698  16.641 -0.3165 -1.6459 -0.3208
 6193TIP3    H240071   4.525   3.563  16.705  1.8541 -0.4673  1.3759
 6194TIP3   OH240072   0.565   0.892   0.136  0.1669  0.6089  0.0196
 6194TIP3    H140073   0.606   0.943   0.066 -1.5036  1.0779 -0.6258
 6194TIP3    H240074   0.547   0.807   0.096 -0.6339  0.8200 -0.0660
 6195TIP3   OH240075   5.163   4.183  14.567 -0.5059  0.6147 -0.8905
 6195TIP3    H140076   5.240   4.126  14.560 -0.5956  0.5901 -1.7064
 6195TIP3    H240077   5.090   4.130  14.535 -0.7262  0.9105 -0.8831
 6196TIP3   OH240078   2.247   3.494  16.894 -0.3188 -0.0290  0.2308
 6196TIP3    H140079   2.239   3.402  16.867 -3.6301  0.1111  0.5307
 6196TIP3    H240080   2.266   3.541  16.813  1.4934 -0.9874  0.0947
 6197TIP3   OH240081   1.367   5.083  17.266  0.6788  0.0944 -0.4132
 6197TIP3    H140082   1.403   5.004  17.306  0.8180  0.5589  0.3902
 6197TIP3    H240083   1.357   5.061  17.174  1.3819 -0.6229 -0.3218
 6198TIP3   OH240084   5.119   4.726   5.337 -0.3101  0.2223 -0.2939
 6198TIP3    H140085   5.188   4.752   5.276 -0.7293 -0.0878 -0.9072
 6198TIP3    H240086   5.165   4.706   5.418  0.2599  0.5702 -0.5312
 6199TIP3   OH240087   6.134   5.371   2.155 -0.4466 -0.1973 -0.1347
 6199TIP3    H140088   6.082   5.386   2.076  0.2211 -0.8559 -0.7077
 6199TIP3    H240089   6.071   5.334   2.217 -0.7077 -0.8500 -0.7768
 6200TIP3   OH240090   5.627   3.353  13.658 -0.0136 -0.4552  0.4220
 6200TIP3    H140091   5.638   3.261  13.682 -0.3961 -0.8842 -0.9935
 6200TIP3    H240092   5.714   3.391  13.665  0.7071 -1.6274 -1.8000
 6201TIP3   OH240093   2.396   5.171   3.357  0.2486  0.0683  0.0866
 6201TIP3    H140094   2.448   5.155   3.277  1.5383  0.6226  0.8028
 6201TIP3    H240095   2.314   5.124   3.341  0.4884  0.1599 -1.5676
 6202TIP3   OH240096   4.689   3.534  11.973 -0.0845 -1.0044  0.1515
 6202TIP3    H140097   4.619   3.510  11.912 -1.5265 -1.1892  1.8505
 6202TIP3    H240098   4.664   3.621  12.004 -0.2801 -1.6491  1.8120
 6203TIP3   OH240099   6.084   3.335   3.755  0.3111 -0.3209  0.5461
 6203TIP3    H140100   5.989   3.339   3.739  0.6740  1.8302 -1.2583
 6203TIP3    H240101   6.121   3.297   3.676  1.3150  2.5042 -0.3786
 6204TIP3   OH240102   0.941   1.693   0.373  0.0826 -0.3245 -0.0732
 6204TIP3    H140103   1.035   1.684   0.384 -0.1046 -1.0782  0.9984
 6204TIP3    H240104   0.930   1.726   0.284  1.2419 -2.2812 -0.9707
 6205TIP3   OH240105   3.942   1.531  15.959  0.0638 -0.5578  0.0492
 6205TIP3    H140106   3.860   1.580  15.951  0.2016 -0.3787 -0.2602
 6205TIP3    H240107   3.981   1.535  15.872  0.5216 -0.4386  0.2589
 6206TIP3   OH240108   2.722   0.291   4.797  0.0345  0.1547 -0.6661
 6206TIP3    H140109   2.686   0.310   4.883 -0.0069  2.5197 -1.1740
 6206TIP3    H240110   2.652   0.312   4.736 -0.0895 -1.9238 -1.2885
 6207TIP3   OH240111   4.247   1.254  10.714 -0.7786 -0.7803 -1.1689
 6207TIP3    H140112   4.307   1.230  10.643  0.2266  0.5740 -0.7791
 6207TIP3    H240113   4.243   1.349  10.712 -0.2044 -0.6838  1.0391
 6208TIP3   OH240114   3.716   5.726   4.839 -0.7594  0.0885  0.6584
 6208TIP3    H140115   3.782   5.794   4.826 -0.7840  0.3384  1.7628
 6208TIP3    H240116   3.762   5.656   4.884 -1.0651 -0.0456  0.7628
 6209TIP3   OH240117   6.410   6.523  16.403 -0.3143  0.0235 -0.3542
 6209TIP3    H140118   6.505   6.512  16.399 -0.1717  0.0493  2.2156
 6209TIP3    H240119   6.377   6.438  16.430 -0.7958  0.7186  1.2814
 6210TIP3   OH240120   0.506   5.740  17.248 -0.4745  0.0472  0.1274
 6210TIP3    H140121   0.498   5.716  17.156 -1.4695  0.2706  0.1555
 6210TIP3    H240122   0.599   5.725  17.269 -0.2398  0.0389 -0.9153
 6211TIP3   OH240123   5.239   5.738  15.721 -0.0462 -0.3094  0.0052
 6211TIP3    H140124   5.319   5.728  15.670 -0.3242 -1.2325 -0.2621
 6211TIP3    H240125   5.267   5.728  15.812  0.5985  2.2593  0.1212
 6212TIP3   OH240126   1.026   6.476  13.424  0.1295  0.0104 -0.0958
 6212TIP3    H140127   0.936   6.487  13.393 -0.0596 -0.7242  0.1887
 6212TIP3    H240128   1.050   6.562  13.458 -0.2371  0.3820 -0.7613
 6213TIP3   OH240129   3.661   6.167   3.987 -0.4518  0.1499  0.1956
 6213TIP3    H140130   3.645   6.238   4.049 -1.6471 -0.1245  0.2197
 6213TIP3    H240131   3.634   6.088   4.035 -0.6746 -0.1398 -0.4114
 6214TIP3   OH240132   3.606   3.411   0.826  0.2745 -0.2634 -0.0810
 6214TIP3    H140133   3.642   3.373   0.906  2.4425  1.4186 -0.1987
 6214TIP3    H240134   3.512   3.412   0.839  0.6147  0.1362  2.5141
 6215TIP3   OH240135   4.557   2.836   1.271 -0.0737  0.7461  0.3532
 6215TIP3    H140136   4.575   2.798   1.186 -1.1288  1.1799 -0.0685
 6215TIP3    H240137   4.567   2.763   1.333 -0.9439  0.0551 -0.3219
 6216TIP3   OH240138   2.504   0.231  12.102  0.2842 -0.0066  0.1946
 6216TIP3    H140139   2.434   0.184  12.057  0.9225 -0.9241  0.1425
 6216TIP3    H240140   2.463   0.268  12.180 -0.4336  0.1277 -0.2443
 6217TIP3   OH240141   2.594   4.936   5.286 -0.5080 -0.3133  0.0390
 6217TIP3    H140142   2.640   4.990   5.222 -0.6312  1.7652  1.6578
 6217TIP3    H240143   2.554   4.998   5.346 -1.1372 -2.1937  1.6274
 6218TIP3   OH240144   2.517   5.277   4.313 -0.0114 -0.1932  0.2560
 6218TIP3    H140145   2.577   5.241   4.378  0.3443 -1.1223 -0.5808
 6218TIP3    H240146   2.520   5.216   4.240 -1.5349  0.0611 -0.0473
 6219TIP3   OH240147   5.234   6.698  14.180 -0.4710  0.3446  0.1561
 6219TIP3    H140148   5.208   6.608  14.195 -0.8469  0.3537 -0.4249
 6219TIP3    H240149   5.208   6.716  14.090 -0.5935  1.1033  0.3377
 6220TIP3   OH240150   4.285   4.410   2.738  0.1793 -0.2490  0.0131
 6220TIP3    H140151   4.364   4.356   2.744 -0.7379 -1.8480 -1.8022
 6220TIP3    H240152   4.316   4.499   2.755  1.8547 -1.2032  2.1898
 6221TIP3   OH240153   5.467   4.818   0.936  0.1689  0.5381  0.1733
 6221TIP3    H140154   5.515   4.753   0.988 -1.9571 -0.8164  0.5070
 6221TIP3    H240155   5.406   4.766   0.884  1.0592  2.0008 -2.4541
 6222TIP3   OH240156   6.167   1.217   1.292  1.0777  0.2258  0.0325
 6222TIP3    H140157   6.088   1.236   1.241  0.6934  2.5106  1.3737
 6222TIP3    H240158   6.180   1.123   1.283 -2.9320 -0.5501  1.3459
 6223TIP3   OH240159   4.660   6.590  15.008 -0.5729  0.5208  0.7031
 6223TIP3    H140160   4.680   6.678  15.040 -0.7309  1.2503 -1.1622
 6223TIP3    H240161   4.715   6.579  14.931 -0.5181 -1.0464  0.9417
 6224TIP3   OH240162   6.644   0.609   1.458 -0.1639  0.0406  0.1940
 6224TIP3    H140163   6.735   0.590   1.478 -0.1463 -0.2330 -0.1337
 6224TIP3    H240164   6.613   0.662   1.531 -0.3128 -1.5838  1.3313
 6225TIP3   OH240165   2.651   4.292   1.592  0.5226 -0.3774 -0.2679
 6225TIP3    H140166   2.638   4.249   1.677  1.5172 -1.9298 -0.8803
 6225TIP3    H240167   2.616   4.230   1.528  3.1389 -0.8780 -1.2736
 6226TIP3   OH240168   0.089   5.463   3.806 -0.4420  0.7301 -0.4960
 6226TIP3    H140169   0.152   5.449   3.877 -1.5390  0.8073  0.5310
 6226TIP3    H240170   0.032   5.386   3.810 -0.2738  0.5484 -1.5571
 6227TIP3   OH240171   5.187   1.200   3.305  0.3030 -0.2470  0.6131
 6227TIP3    H140172   5.268   1.175   3.349  1.1768  0.5738 -0.4864
 6227TIP3    H240173   5.171   1.290   3.334  0.6021  0.1161 -0.3330
 6228TIP3   OH240174   2.946   3.972   5.393  0.2956  0.1619  0.6115
 6228TIP3    H140175   2.961   3.921   5.473 -1.9989 -1.7671 -0.1216
 6228TIP3    H240176   3.027   3.963   5.343  0.4408 -1.6719  1.1230
 6229TIP3   OH240177   5.218   5.877  15.378  0.3229 -0.1273  0.3135
 6229TIP3    H140178   5.255   5.910  15.296  0.1716 -3.0484 -1.0016
 6229TIP3    H240179   5.205   5.783  15.362 -0.1536 -0.6631  3.5262
 6230TIP3   OH240180   5.830   0.776  13.184 -0.2892  0.2340 -0.2523
 6230TIP3    H140181   5.809   0.869  13.188  0.6617  0.3615  2.8021
 6230TIP3    H240182   5.784   0.738  13.259 -0.2842 -1.6916 -1.1949
 6231TIP3   OH240183   6.811   1.655   6.280 -0.6135 -0.4395 -0.6234
 6231TIP3    H140184   6.733   1.681   6.328  0.1421  1.6471 -0.4457
 6231TIP3    H240185   6.876   1.636   6.348 -0.1427  0.5886 -0.7660
 6232TIP3   OH240186   4.331   0.448   2.480 -0.1178 -0.1672  0.1341
 6232TIP3    H140187   4.409   0.477   2.528 -0.5531 -0.5542  1.0858
 6232TIP3    H240188   4.280   0.401   2.545 -1.0279 -0.1387 -0.5622
 6233TIP3   OH240189   2.640   0.825  15.641  0.5042 -0.4781  0.6888
 6233TIP3    H140190   2.716   0.883  15.636  1.2537 -1.2310  3.0726
 6233TIP3    H240191   2.675   0.741  15.672 -1.3346 -0.7504  2.0971
 6234TIP3   OH240192   1.729   5.071  12.720  0.7768 -0.3016  0.6396
 6234TIP3    H140193   1.707   5.075  12.813 -0.8852 -0.8180  0.2866
 6234TIP3    H240194   1.770   5.155  12.702 -3.4104  1.8957  0.7572
 6235TIP3   OH240195   1.690   2.291  17.039  0.1598  0.1119 -0.1216
 6235TIP3    H140196   1.675   2.305  16.946 -0.3171  0.8528  0.0669
 6235TIP3    H240197   1.637   2.357  17.083 -1.3531 -1.6252  0.7569
 6236TIP3   OH240198   3.875   3.471  15.528  0.3807  0.0892 -0.5661
 6236TIP3    H140199   3.845   3.487  15.617  0.4600 -1.0470 -0.3168
 6236TIP3    H240200   3.897   3.557  15.494 -0.5021  0.6372  0.2032
 6237TIP3   OH240201   4.294   1.130  15.318  0.5111  0.4238 -0.5458
 6237TIP3    H140202   4.297   1.036  15.333 -0.1559  0.4888  0.0357
 6237TIP3    H240203   4.384   1.160  15.335  1.2542 -0.3985 -2.8539
 6238TIP3   OH240204   3.044   2.523  16.114  0.2338  0.4355  0.0075
 6238TIP3    H140205   3.093   2.520  16.032  0.3209 -0.0252  0.0721
 6238TIP3    H240206   3.000   2.608  16.113  0.8523  0.7544 -0.1576
 6239TIP3   OH240207   5.844   3.316  11.328  0.3626 -0.3191 -0.3365
 6239TIP3    H140208   5.769   3.355  11.371 -0.6214 -0.6091 -1.7514
 6239TIP3    H240209   5.920   3.364  11.362 -0.5193  0.3829  0.6301
 6240TIP3   OH240210   1.876   2.462   5.115  0.0482 -0.4510  0.0670
 6240TIP3    H140211   1.903   2.529   5.177  0.6088 -1.5560  1.0399
 6240TIP3    H240212   1.809   2.412   5.161 -1.3719  0.2970 -1.1658
 6241TIP3   OH240213   3.489   4.160  15.899  0.5693  0.5358  0.0498
 6241TIP3    H140214   3.581   4.136  15.886 -0.3108 -2.4297 -1.2653
 6241TIP3    H240215   3.471   4.225  15.831  1.7985  1.4730  0.6057
 6242TIP3   OH240216   3.913   5.840  15.714 -0.2282 -0.2425 -0.1027
 6242TIP3    H140217   3.823   5.856  15.688  0.6103  0.5539 -2.6652
 6242TIP3    H240218   3.934   5.914  15.772 -0.4082  1.0131 -1.6117
 6243TIP3   OH240219   1.673   5.689  13.171  0.2930 -0.4696  0.2226
 6243TIP3    H140220   1.587   5.726  13.154  0.4262 -0.7310 -1.0616
 6243TIP3    H240221   1.678   5.682  13.267 -0.2255  1.6023  0.4062
 6244TIP3   OH240222   6.171   3.911   3.241 -0.1116 -0.2453 -0.3534
 6244TIP3    H140223   6.083   3.901   3.277 -0.3861  0.3016 -0.8665
 6244TIP3    H240224   6.200   3.822   3.220 -0.4394 -0.4472  0.0514
 6245TIP3   OH240225   5.102   6.300   2.163  0.4450 -0.2510 -0.3033
 6245TIP3    H140226   5.144   6.380   2.196 -1.3874 -0.0526  1.7171
 6245TIP3    H240227   5.167   6.232   2.178  1.2861  0.5488 -0.2163
 6246TIP3   OH240228   0.532   5.952  13.384  0.2370  0.5891  0.4383
 6246TIP3    H140229   0.580   6.026  13.345  1.0655 -1.3286 -2.3122
 6246TIP3    H240230   0.447   5.954  13.342 -0.3322  0.9253  1.5815
 6247TIP3   OH240231   4.791   5.123  14.129  0.1427  0.0684  0.5720
 6247TIP3    H140232   4.871   5.153  14.084 -0.0378  0.4689  0.5178
 6247TIP3    H240233   4.720   5.161  14.078 -0.0631  0.6118  1.2646
 6248TIP3   OH240234   0.926   6.439  14.490 -0.2574  0.8035 -0.3997
 6248TIP3    H140235   0.891   6.503  14.427  0.5369  0.5902 -1.0602
 6248TIP3    H240236   1.008   6.477  14.520 -0.5116  0.7837  0.3226
 6249TIP3   OH240237   0.190   1.022   3.439  0.1586  0.1978  0.1459
 6249TIP3    H140238   0.132   1.026   3.515 -0.5749  0.1092 -0.4097
 6249TIP3    H240239   0.244   0.944   3.455 -0.5166 -0.2649  0.1988
 6250TIP3   OH240240   5.360   0.998  16.257 -0.3185  0.0625  0.1524
 6250TIP3    H140241   5.278   1.013  16.304 -1.4277 -0.1842 -1.6508
 6250TIP3    H240242   5.427   0.995  16.325 -1.8765 -0.2595  1.6973
 6251TIP3   OH240243   2.056   1.187  13.384  0.3148 -0.0074  0.3466
 6251TIP3    H140244   2.062   1.249  13.312  0.4594  0.0752  0.4287
 6251TIP3    H240245   1.969   1.147  13.375  0.1237  0.3893  0.4423
 6252TIP3   OH240246   2.528   4.612   4.156  0.2062 -0.0508 -0.3147
 6252TIP3    H140247   2.501   4.635   4.067 -0.0488 -0.5284 -0.3647
 6252TIP3    H240248   2.447   4.617   4.207  0.1427 -0.8244 -0.3297
 6253TIP3   OH240249   4.982   1.408   5.394  0.7188 -0.1329 -0.0535
 6253TIP3    H140250   4.911   1.467   5.369 -0.2138 -0.9530  0.6067
 6253TIP3    H240251   5.040   1.461   5.448  0.8879  0.6837 -1.0179
 6254TIP3   OH240252   6.225   0.585  16.660 -0.1509  0.6122  0.4591
 6254TIP3    H140253   6.214   0.675  16.629  0.1391  1.2132  2.0160
 6254TIP3    H240254   6.305   0.588  16.713 -1.3612 -0.0324  2.3759
 6255TIP3   OH240255   6.395   1.683  10.801 -0.2130  0.4237  0.0638
 6255TIP3    H140256   6.372   1.596  10.835 -1.7758  0.7762 -0.0558
 6255TIP3    H240257   6.436   1.665  10.716  0.1162 -0.2281  0.3561
 6256TIP3   OH240258   2.887   4.510   5.780 -0.2850 -0.0145 -0.3653
 6256TIP3    H140259   2.800   4.490   5.745 -0.1681  1.7199 -1.7466
 6256TIP3    H240260   2.876   4.510   5.875 -1.5989 -0.6166 -0.5089
 6257TIP3   OH240261   4.040   3.115  16.041  0.7559  0.3493 -0.1777
 6257TIP3    H140262   4.067   3.194  15.995  0.4860  0.6939  0.2540
 6257TIP3    H240263   4.089   3.044  15.999 -2.8174  0.0003 -4.0844
 6258TIP3   OH240264   1.136   5.340  12.636 -0.5117  0.8055  0.4664
 6258TIP3    H140265   1.126   5.318  12.543 -0.9825 -2.4007  1.2237
 6258TIP3    H240266   1.046   5.348  12.668 -0.4168 -1.1472  1.2933
 6259TIP3   OH240267   0.316   6.703  14.843  0.3542 -0.0675 -0.5479
 6259TIP3    H140268   0.382   6.701  14.773  0.5700  2.3557 -0.4679
 6259TIP3    H240269   0.356   6.656  14.916  2.2002  1.6887 -0.3727
 6260TIP3   OH240270   1.043   5.340   2.521 -0.5687 -0.0024 -0.5667
 6260TIP3    H140271   1.114   5.401   2.497  0.3507 -0.8538 -0.0594
 6260TIP3    H240272   1.062   5.261   2.470 -0.5648 -0.5987  0.3510
 6261TIP3   OH240273   6.077   6.216   2.574 -0.1590  0.0788 -0.1827
 6261TIP3    H140274   6.084   6.311   2.589  1.7009 -0.5583  3.3523
 6261TIP3    H240275   6.151   6.195   2.517 -0.7140  0.7498 -1.1768
 6262TIP3   OH240276   6.275   1.879   5.748 -0.1388 -0.5590  0.4560
 6262TIP3    H140277   6.294   1.911   5.660  0.4747  1.4872  1.3042
 6262TIP3    H240278   6.199   1.821   5.737  1.8747 -2.8413 -1.8600
 6263TIP3   OH240279   0.030   5.428  15.056 -0.1832  0.7657 -0.7611
 6263TIP3    H140280   0.049   5.491  14.987 -1.7449  0.5955 -1.3572
 6263TIP3    H240281  -0.063   5.437  15.072 -0.5156 -1.6318 -1.0982
 6264TIP3   OH240282   0.212   1.332   1.609 -0.0232 -0.3099  0.1844
 6264TIP3    H140283   0.136   1.358   1.557 -0.8950  0.3336  1.7418
 6264TIP3    H240284   0.287   1.364   1.559 -0.9555  2.6647  0.5964
 6265TIP3   OH240285   6.701   3.181  13.322 -0.2332  0.0776 -0.4925
 6265TIP3    H140286   6.682   3.271  13.298  1.2588  0.9396  1.4338
 6265TIP3    H240287   6.730   3.140  13.241 -2.1089  0.9673 -1.6491
 6266TIP3   OH240288   1.556   5.049   4.399 -0.2265 -0.3954  0.1515
 6266TIP3    H140289   1.519   5.115   4.459  0.4559 -0.5234  0.7328
 6266TIP3    H240290   1.581   5.099   4.321 -0.8815 -0.1782  0.0833
 6267TIP3   OH240291   5.485   4.190   5.435 -0.6827  0.6073 -0.2005
 6267TIP3    H140292   5.491   4.224   5.524 -1.5608  4.2836 -1.4211
 6267TIP3    H240293   5.549   4.242   5.386  0.7747 -2.3119 -1.4948
 6268TIP3   OH240294   0.302   3.971   3.581 -0.2183 -0.7313  0.0519
 6268TIP3    H140295   0.270   3.932   3.499 -0.6126  0.1566 -0.2292
 6268TIP3    H240296   0.285   4.065   3.570 -1.3301 -0.7370  1.6353
 6269TIP3   OH240297   0.685   6.396   6.674 -0.6741 -0.2461  0.1832
 6269TIP3    H140298   0.730   6.313   6.690  0.1066  0.5419  2.2573
 6269TIP3    H240299   0.632   6.410   6.752 -0.3055  1.5081  0.1446
 6270TIP3   OH240300   1.531   4.947   2.639 -0.6220  0.1625  0.5835
 6270TIP3    H140301   1.595   4.980   2.702 -1.0409 -0.5371  1.3812
 6270TIP3    H240302   1.462   5.014   2.639  0.0255  0.8354 -0.1569
 6271TIP3   OH240303   3.552   2.007  14.001 -0.2508 -0.0217 -0.3013
 6271TIP3    H140304   3.492   1.944  14.041  0.0211 -0.1812 -0.1360
 6271TIP3    H240305   3.617   1.952  13.957  0.7868  0.1044  1.0100
 6272TIP3   OH240306   5.090   1.947   0.136  0.0304  0.0180  0.0133
 6272TIP3    H140307   5.068   1.913   0.049  0.9962 -2.9823  0.8892
 6272TIP3    H240308   5.018   1.917   0.192  0.2021  0.6164  0.5553
 6273TIP3   OH240309   1.184   1.731   2.623  0.2399 -1.1273  0.0927
 6273TIP3    H140310   1.236   1.682   2.686 -0.5188 -0.1547  1.5179
 6273TIP3    H240311   1.094   1.699   2.637 -0.2304  0.5109  0.9140
 6274TIP3   OH240312   1.796   6.482  17.153  0.1705  0.0774 -0.4199
 6274TIP3    H140313   1.731   6.552  17.152 -0.3946 -0.4234  0.2485
 6274TIP3    H240314   1.880   6.527  17.143 -0.2001  0.8306 -0.2059
 6275TIP3   OH240315   5.074   5.599   2.475  0.4439 -0.1564 -0.4758
 6275TIP3    H140316   5.011   5.663   2.507 -1.0783 -1.5735 -0.5699
 6275TIP3    H240317   5.037   5.568   2.392  1.5214 -0.6014 -0.7946
 6276TIP3   OH240318   6.617   0.435  13.823  0.2511  0.6171  0.4601
 6276TIP3    H140319   6.598   0.378  13.898 -0.2083 -1.5337 -1.2351
 6276TIP3    H240320   6.680   0.385  13.771  1.6908  2.7147  0.1299
 6277TIP3   OH240321   5.045   4.868   1.959  0.0964  0.3504  0.0179
 6277TIP3    H140322   5.050   4.948   1.908 -0.1685  1.9873  2.4523
 6277TIP3    H240323   5.133   4.830   1.954  0.7919  1.8697  0.4927
 6278TIP3   OH240324   6.652   0.820  13.512 -0.7685 -0.3446  0.0804
 6278TIP3    H140325   6.747   0.824  13.508 -0.7869 -0.0424 -0.0459
 6278TIP3    H240326   6.622   0.904  13.475 -1.0888 -0.5846 -0.2131
 6279TIP3   OH240327   4.940   4.563   6.300 -0.1312  0.3378  0.1389
 6279TIP3    H140328   4.950   4.468   6.292 -0.9687  0.3344 -0.7871
 6279TIP3    H240329   4.989   4.584   6.380  1.0697 -0.7067 -0.3012
 6280TIP3   OH240330   3.357   5.299  13.436 -0.2179  0.2038 -0.2357
 6280TIP3    H140331   3.379   5.309  13.529  0.9274  0.2173 -0.5039
 6280TIP3    H240332   3.314   5.381  13.412  3.1932  1.9160 -0.7556
 6281TIP3   OH240333   6.206   5.343   4.114 -0.5477  0.0517  0.1745
 6281TIP3    H140334   6.256   5.404   4.062 -1.6150  0.7778 -0.0165
 6281TIP3    H240335   6.270   5.278   4.143  0.2409  0.2139 -1.1665
 6282TIP3   OH240336   3.769   2.954   4.304  0.0723 -0.2567 -0.4627
 6282TIP3    H140337   3.859   2.941   4.335 -0.2160 -2.3738 -0.4353
 6282TIP3    H240338   3.763   2.898   4.227 -1.6130 -1.1500  0.2962
 6283TIP3   OH240339   1.379   0.809   6.254  0.0715  0.0607  0.2029
 6283TIP3    H140340   1.440   0.883   6.264  2.0484 -1.4089 -0.6718
 6283TIP3    H240341   1.359   0.783   6.344  0.1105  1.0758  0.5085
 6284TIP3   OH240342   3.229   5.780  17.174  0.0776  0.0264  0.7277
 6284TIP3    H140343   3.292   5.747  17.110 -1.4237  1.6542 -1.6782
 6284TIP3    H240344   3.149   5.730  17.157 -0.9361  1.8596 -0.1130
 6285TIP3   OH240345   3.296   4.808  13.686 -0.1389 -0.5342  0.2848
 6285TIP3    H140346   3.268   4.880  13.630  2.8983  1.6445  1.4039
 6285TIP3    H240347   3.291   4.730  13.631 -3.0472  0.5948 -1.1012
 6286TIP3   OH240348   4.961   2.916  14.058  0.4116 -0.2318  0.4835
 6286TIP3    H140349   4.962   3.012  14.054 -0.0218 -0.2375  0.1844
 6286TIP3    H240350   4.930   2.889  13.972 -0.9378 -0.6000  1.0638
 6287TIP3   OH240351   5.890   3.055  12.633 -0.1003 -0.1972  0.3460
 6287TIP3    H140352   5.927   2.972  12.601  0.4450  0.3371 -0.3979
 6287TIP3    H240353   5.855   3.098  12.556 -0.5118  0.2143  0.7559
 6288TIP3   OH240354   2.080   6.349   1.511  0.4049  0.1677  0.2699
 6288TIP3    H140355   2.028   6.282   1.467 -2.2410  1.9073  0.5856
 6288TIP3    H240356   2.057   6.340   1.603  0.7170  0.9151  0.4250
 6289TIP3   OH240357   4.259   3.684   5.566  0.6180  0.1563  0.0468
 6289TIP3    H140358   4.237   3.755   5.506  0.6495 -1.5235 -1.9904
 6289TIP3    H240359   4.354   3.679   5.563  0.6411  0.3117  0.5290
 6290TIP3   OH240360   1.704   1.000  12.343 -0.6033 -0.0558 -0.2519
 6290TIP3    H140361   1.755   1.078  12.323 -2.9247  1.4216 -0.6419
 6290TIP3    H240362   1.736   0.971  12.428  1.0607  0.6460 -0.6176
 6291TIP3   OH240363   5.133   1.791   2.123  0.4342  0.5239  0.8061
 6291TIP3    H140364   5.115   1.813   2.032  1.5348  0.5503  0.5987
 6291TIP3    H240365   5.142   1.696   2.124  2.0481  0.6699  0.6023
 6292TIP3   OH240366   0.134   6.116   4.894  0.0328 -0.2362 -0.3063
 6292TIP3    H140367   0.131   6.211   4.908  2.5910 -0.0943 -0.4262
 6292TIP3    H240368   0.080   6.080   4.964  0.6153  1.2160  0.9272
 6293TIP3   OH240369   1.660   1.255   0.875 -0.8288  0.1578 -0.4132
 6293TIP3    H140370   1.679   1.175   0.826 -1.2452 -1.2350  1.6550
 6293TIP3    H240371   1.730   1.316   0.850  1.1309 -1.7970  0.1546
 6294TIP3   OH240372   5.857   5.764   4.813 -0.3769  0.1554  0.0780
 6294TIP3    H140373   5.857   5.773   4.908  0.8848  0.1895  0.0723
 6294TIP3    H240374   5.897   5.845   4.781 -0.9393  0.2175 -0.4918
 6295TIP3   OH240375   4.872   4.324   1.612 -0.0220  0.0910  0.0852
 6295TIP3    H140376   4.862   4.250   1.671  1.4641 -0.2949 -0.1397
 6295TIP3    H240377   4.783   4.341   1.580 -0.8014  0.1686  2.2261
 6296TIP3   OH240378   0.476   4.202   4.099 -0.1834  0.1336  0.0338
 6296TIP3    H140379   0.405   4.217   4.161  1.4669  2.6697  1.3695
 6296TIP3    H240380   0.460   4.265   4.029  0.1895  0.0239 -0.1534
 6297TIP3   OH240381   5.069   2.966   6.332  0.7470 -0.4750 -0.2180
 6297TIP3    H140382   4.995   2.917   6.367 -0.4414  2.4619  1.5176
 6297TIP3    H240383   5.142   2.945   6.390 -0.0634  0.6896  1.2712
 6298TIP3   OH240384   5.547   4.631  14.292  0.0818 -0.4819  0.3585
 6298TIP3    H140385   5.461   4.608  14.327 -0.2052  1.4881  1.0219
 6298TIP3    H240386   5.529   4.688  14.217  0.7901  1.9145  1.9404
 6299TIP3   OH240387   1.258   4.873   3.253  0.3403  0.2700  0.8827
 6299TIP3    H140388   1.230   4.828   3.173  1.1992 -1.0268  1.2888
 6299TIP3    H240389   1.307   4.949   3.222 -1.8407  1.4284  0.1824
 6300TIP3   OH240390   5.683   5.368  13.831  0.2336  0.1714 -0.2761
 6300TIP3    H140391   5.744   5.405  13.768 -0.9394 -0.4876 -1.8173
 6300TIP3    H240392   5.651   5.444  13.880 -0.2221  0.9146 -1.6929
 6301TIP3   OH240393   4.442   4.970   5.267 -0.1963 -0.4081 -0.1956
 6301TIP3    H140394   4.455   5.034   5.336 -0.1103  0.1427 -0.7174
 6301TIP3    H240395   4.501   4.997   5.197  0.9970 -1.9533  0.1752
 6302TIP3   OH240396   0.207   5.348  14.062 -0.1167  0.0526  0.1500
 6302TIP3    H140397   0.232   5.440  14.073  2.6927 -0.6999  0.5867
 6302TIP3    H240398   0.195   5.337  13.968  0.2788  0.7025  0.0166
 6303TIP3   OH240399   3.339   2.556  10.303 -0.3036  0.9793 -0.3866
 6303TIP3    H140400   3.341   2.468  10.340  1.2902  1.5484  0.9380
 6303TIP3    H240401   3.424   2.593  10.325 -1.1438  3.0245 -0.5192
 6304TIP3   OH240402   4.776   5.615  11.598  0.4378 -0.1211 -0.5261
 6304TIP3    H140403   4.773   5.595  11.505  0.8337 -0.0533 -0.5520
 6304TIP3    H240404   4.731   5.542  11.640  0.4535 -0.2606 -0.7522
 6305TIP3   OH240405   1.454   5.487   1.218 -0.0525 -0.4017  0.0053
 6305TIP3    H140406   1.443   5.454   1.307  0.1762 -1.8762 -0.5047
 6305TIP3    H240407   1.548   5.485   1.202 -0.0054  0.8372  0.0896
 6306TIP3   OH240408   4.370   1.802  16.894  0.1581  0.4417 -0.5613
 6306TIP3    H140409   4.396   1.806  16.802  0.1683  0.4125 -0.5597
 6306TIP3    H240410   4.276   1.783  16.893 -0.1365  1.8324 -0.5878
 6307TIP3   OH240411   6.169   3.346   1.547 -0.0875 -0.2322  0.5434
 6307TIP3    H140412   6.151   3.259   1.582  1.1863 -1.4733 -1.8114
 6307TIP3    H240413   6.122   3.348   1.463  0.1011  1.2520  0.4625
 6308TIP3   OH240414   5.916   5.086  13.421 -0.3132  0.1561 -0.5666
 6308TIP3    H140415   5.934   5.008  13.474  1.4752  0.4002 -0.7553
 6308TIP3    H240416   5.923   5.056  13.330  0.3980  0.5089 -0.6396
 6309TIP3   OH240417   6.217   1.357  14.828  0.3032 -0.2965 -0.0226
 6309TIP3    H140418   6.146   1.304  14.793 -0.2929 -0.7711  1.8356
 6309TIP3    H240419   6.182   1.392  14.910  1.9966 -0.0367  0.6090
 6310TIP3   OH240420   3.334   6.761  16.151  0.6288  0.3719 -0.1284
 6310TIP3    H140421   3.357   6.712  16.072 -0.0575 -0.6644  0.3104
 6310TIP3    H240422   3.252   6.805  16.129  0.8470  0.7194 -0.2585
 6311TIP3   OH240423   5.946   1.453  14.524  0.2962  0.1282  0.0913
 6311TIP3    H140424   5.963   1.433  14.432  0.3820  0.6169 -0.0021
 6311TIP3    H240425   5.979   1.542  14.535 -1.9584  1.0054 -0.0257
 6312TIP3   OH240426   3.869   5.100  16.488  0.2428 -0.2466  0.7266
 6312TIP3    H140427   3.853   5.030  16.550  0.3795 -1.2213 -0.3178
 6312TIP3    H240428   3.961   5.124  16.502 -0.3380  1.0257  2.3805
 6313TIP3   OH240429   1.117   6.780   1.838 -0.5393  0.1229  0.3281
 6313TIP3    H140430   1.088   6.830   1.914  0.0453  0.4876  0.3130
 6313TIP3    H240431   1.201   6.818   1.814 -0.1405 -0.7965  0.2466
 6314TIP3   OH240432   6.423   4.609   3.704 -0.0484  0.3696 -0.0766
 6314TIP3    H140433   6.508   4.583   3.668 -0.4365  2.2176 -2.4249
 6314TIP3    H240434   6.440   4.691   3.750 -0.1687 -0.3857  1.3554
 6315TIP3   OH240435   0.773   0.338  17.290  0.0072 -0.1258 -0.0543
 6315TIP3    H140436   0.839   0.272  17.309  1.8697  1.6340 -0.2037
 6315TIP3    H240437   0.794   0.368  17.202 -0.0509  1.5376  0.4869
 6316TIP3   OH240438   0.979   4.516   5.715 -0.4140  0.0548  0.4555
 6316TIP3    H140439   1.040   4.585   5.739 -1.2842  0.3649  1.8608
 6316TIP3    H240440   0.923   4.505   5.792  0.6907 -3.3279  0.8799
 6317TIP3   OH240441   3.781   4.428  12.337 -0.5113  0.2493  0.2595
 6317TIP3    H140442   3.864   4.430  12.289 -1.5970 -0.8220 -1.7302
 6317TIP3    H240443   3.717   4.467  12.276 -1.6116  0.3664  1.4667
 6318TIP3   OH240444   6.549   0.153   2.388  0.3866 -0.3594 -0.1249
 6318TIP3    H140445   6.557   0.229   2.330  1.1162 -1.4314 -1.4829
 6318TIP3    H240446   6.637   0.116   2.392  0.6804  0.5733  2.9645
 6319TIP3   OH240447   1.339   3.248   2.174  0.2508 -0.3093 -0.2587
 6319TIP3    H140448   1.260   3.213   2.132  0.0256  0.5552 -0.5594
 6319TIP3    H240449   1.408   3.185   2.152 -0.3672 -1.1112  0.0687
 6320TIP3   OH240450   4.993   3.975  15.951 -0.0999 -0.2782 -0.0206
 6320TIP3    H140451   4.918   3.929  15.914 -0.3485  0.5819 -0.6253
 6320TIP3    H240452   4.960   4.063  15.970  0.9632  0.3746 -1.0966
 6321TIP3   OH240453   5.450   3.155   3.720  0.1350 -0.1054  0.2024
 6321TIP3    H140454   5.511   3.221   3.754  0.7574 -0.0944 -0.9029
 6321TIP3    H240455   5.449   3.087   3.787 -0.8335  1.2003  1.5570
 6322TIP3   OH240456   4.770   5.401  12.211  0.0110  0.3757 -0.6034
 6322TIP3    H140457   4.765   5.429  12.120 -3.4464  2.6411  0.1971
 6322TIP3    H240458   4.728   5.315  12.212  1.7111 -0.5038 -1.3834
 6323TIP3   OH240459   1.747   2.568   0.863  0.8208 -0.1866  0.4665
 6323TIP3    H140460   1.797   2.649   0.852 -0.4172  0.6228  0.6919
 6323TIP3    H240461   1.794   2.519   0.930  1.7029  0.2484  0.1690
 6324TIP3   OH240462   2.522   5.041  16.842  0.1669  0.2710  0.1294
 6324TIP3    H140463   2.518   4.950  16.816 -0.8459  0.7973 -1.6303
 6324TIP3    H240464   2.609   5.071  16.813 -0.2916  0.4009 -1.1153
 6325TIP3   OH240465   0.065   6.183   4.031  0.8598  0.0777 -0.2413
 6325TIP3    H140466  -0.005   6.242   4.004  0.4285 -0.4973 -0.3759
 6325TIP3    H240467   0.026   6.096   4.029  1.1599 -0.0967  1.0898
 6326TIP3   OH240468   5.554   1.646  10.658  0.1294 -0.2654  0.8106
 6326TIP3    H140469   5.592   1.733  10.651 -0.1386 -0.1552  0.7291
 6326TIP3    H240470   5.562   1.623  10.751 -0.4808  0.1546  0.9712
 6327TIP3   OH240471   2.452   1.620  12.434  0.1918 -0.1435 -0.2469
 6327TIP3    H140472   2.518   1.555  12.459  0.9069  0.2576 -1.0663
 6327TIP3    H240473   2.456   1.686  12.503  1.5866  0.5480 -0.9630
 6328TIP3   OH240474   6.393   3.259   6.478  0.4461 -0.3336  0.2394
 6328TIP3    H140475   6.337   3.271   6.555 -0.4165 -1.5352 -0.1779
 6328TIP3    H240476   6.459   3.196   6.507 -1.4737 -2.8958 -0.7627
 6329TIP3   OH240477   4.683   6.213   5.808  0.0357  0.1189 -0.2493
 6329TIP3    H140478   4.638   6.256   5.881 -1.4957  0.8799 -1.6218
 6329TIP3    H240479   4.712   6.286   5.752  0.4724 -0.5020 -0.8331
 6330TIP3   OH240480   6.515   3.897  15.244 -0.0981 -0.2846  0.1961
 6330TIP3    H140481   6.559   3.925  15.324 -1.6324 -1.3994  1.4476
 6330TIP3    H240482   6.422   3.911  15.260 -0.3732  0.1734 -1.6764
 6331TIP3   OH240483   1.208   3.561  14.858 -0.4188  0.1383 -1.3200
 6331TIP3    H140484   1.276   3.599  14.803 -0.8941  0.5666 -1.6121
 6331TIP3    H240485   1.130   3.614  14.841 -0.3705  0.8010  0.3554
 6332TIP3   OH240486   2.565   3.920  15.347 -0.2116  0.0696  0.0186
 6332TIP3    H140487   2.514   3.924  15.428  1.4405  1.6523  1.0206
 6332TIP3    H240488   2.598   4.009  15.336 -1.0722  0.0630 -2.8569
 6333TIP3   OH240489   1.655   4.536   0.208 -0.1168  0.3696 -0.3236
 6333TIP3    H140490   1.605   4.544   0.289  1.7220 -0.2593  0.9097
 6333TIP3    H240491   1.643   4.445   0.181  0.8134  0.0687  0.2758
 6334TIP3   OH240492   0.106   1.945   5.004  0.3895  0.1947  0.1998
 6334TIP3    H140493   0.182   1.910   4.958  1.1889 -0.9096  2.3182
 6334TIP3    H240494   0.035   1.941   4.939  2.1285  1.4222 -1.8457
 6335TIP3   OH240495   6.429   4.026  12.868  0.1712 -0.5256  0.5262
 6335TIP3    H140496   6.367   4.001  12.937 -0.3637 -1.7308 -0.3795
 6335TIP3    H240497   6.507   4.055  12.915  0.5046 -3.0866  1.6272
 6336TIP3   OH240498   6.296   2.761  13.074  0.1357  0.2883  0.3929
 6336TIP3    H140499   6.293   2.835  13.014  0.2860  0.5826  0.7441
 6336TIP3    H240500   6.215   2.768  13.124 -0.3046 -0.3454 -0.2362
 6337TIP3   OH240501   5.264   3.534   2.083 -0.7641  0.7559  0.0979
 6337TIP3    H140502   5.338   3.480   2.057 -0.8469  0.9386 -0.5124
 6337TIP3    H240503   5.194   3.511   2.022 -1.0959  0.8637  0.4304
 6338TIP3   OH240504   6.205   3.664  11.814  0.3170 -0.1113  0.2257
 6338TIP3    H140505   6.170   3.742  11.771  0.4065 -0.1300  0.1200
 6338TIP3    H240506   6.251   3.697  11.891 -0.4519 -0.1318  0.7037
 6339TIP3   OH240507   3.197   1.766   5.171  0.1580 -0.1805 -0.3853
 6339TIP3    H140508   3.166   1.849   5.135 -0.8363  0.6601  2.3040
 6339TIP3    H240509   3.272   1.743   5.117 -0.1826  1.9467 -1.8183
 6340TIP3   OH240510   0.523   5.907   5.623 -0.2989 -0.0451 -0.5214
 6340TIP3    H140511   0.464   5.854   5.676  1.0185 -0.3872  0.6587
 6340TIP3    H240512   0.496   5.892   5.532 -0.9373 -1.5066 -0.0926
 6341TIP3   OH240513   0.373   3.689   0.099 -1.0648 -0.0330  0.3951
 6341TIP3    H140514   0.286   3.650   0.097 -0.9194 -0.4019  1.0546
 6341TIP3    H240515   0.431   3.618   0.124 -0.7387  0.5087  1.1962
 6342TIP3   OH240516   4.033   6.178   3.113 -0.5506  0.6533  1.0044
 6342TIP3    H140517   4.104   6.241   3.124  0.6293 -0.2761 -1.0356
 6342TIP3    H240518   3.994   6.171   3.200  2.3716  0.5858  2.3696
 6343TIP3   OH240519   0.860   3.413  16.485  1.0381  0.0616 -0.6029
 6343TIP3    H140520   0.935   3.470  16.469  0.8578  0.4047 -0.2223
 6343TIP3    H240521   0.850   3.412  16.580  0.7248 -0.2005 -0.6386
 6344TIP3   OH240522   2.777   0.335  10.755 -0.1782  0.3153 -0.0811
 6344TIP3    H140523   2.682   0.349  10.764  0.0972  2.0714  0.2843
 6344TIP3    H240524   2.814   0.424  10.751  1.6717 -0.2987  2.1799
 6345TIP3   OH240525   0.754   6.533  13.054 -0.7809  0.8128  0.3304
 6345TIP3    H140526   0.705   6.455  13.080  0.8579 -0.8863 -1.5292
 6345TIP3    H240527   0.718   6.556  12.968  1.5345 -0.4262 -1.0367
 6346TIP3   OH240528   4.845   6.562   3.098 -0.6092  0.0759 -0.1184
 6346TIP3    H140529   4.920   6.618   3.118 -0.1712 -0.5039 -0.1195
 6346TIP3    H240530   4.825   6.519   3.182  0.3449 -1.3012 -0.5820
 6347TIP3   OH240531   2.364   0.542   2.606  0.0508  1.0190 -0.1626
 6347TIP3    H140532   2.353   0.448   2.621 -1.1779  1.1182 -0.3729
 6347TIP3    H240533   2.363   0.581   2.693  1.0454  0.7893 -0.0473
 6348TIP3   OH240534   4.372   1.189  14.723 -0.3192 -0.3795  0.4362
 6348TIP3    H140535   4.343   1.098  14.733 -1.7067 -0.0605 -0.4435
 6348TIP3    H240536   4.369   1.204  14.628 -0.7078  0.7653  0.6213
 6349TIP3   OH240537   0.931   5.875  10.884  0.9038  0.5623 -0.2335
 6349TIP3    H140538   0.884   5.883  10.801  0.3527 -1.6389 -0.1650
 6349TIP3    H240539   0.892   5.941  10.941 -0.2333  0.5879 -1.0375
 6350TIP3   OH240540   3.114   2.210   4.964  0.4846  0.0430 -0.4385
 6350TIP3    H140541   3.119   2.117   4.942  0.1914 -0.7343  2.5206
 6350TIP3    H240542   3.172   2.220   5.039 -1.7153  1.6158  1.1218
 6351TIP3   OH240543   2.816   6.303   4.105 -0.5657 -0.7752 -0.1561
 6351TIP3    H140544   2.900   6.263   4.083  0.0164 -0.3247  1.1846
 6351TIP3    H240545   2.821   6.391   4.068 -0.7505 -1.0059 -0.7312
 6352TIP3   OH240546   1.712   4.755   4.935  0.1266 -0.4420  0.1141
 6352TIP3    H140547   1.764   4.802   4.870 -1.1017 -1.4921 -1.6647
 6352TIP3    H240548   1.775   4.732   5.004  1.8650 -0.9722 -1.5957
 6353TIP3   OH240549   3.594   4.581   3.866  0.2907  0.0077 -0.2051
 6353TIP3    H140550   3.553   4.536   3.940  1.9533  2.4008  2.2702
 6353TIP3    H240551   3.688   4.565   3.877  0.6505  1.3851 -1.1112
 6354TIP3   OH240552   5.594   4.031   0.871 -0.0038 -0.0834 -0.2238
 6354TIP3    H140553   5.654   3.998   0.938 -0.6920  2.2929  1.6026
 6354TIP3    H240554   5.620   4.122   0.859 -1.5883  0.2325 -1.3111
 6355TIP3   OH240555   2.585   6.408   0.421  0.5377 -0.7373 -0.2259
 6355TIP3    H140556   2.571   6.496   0.458  2.1168 -1.4480  2.1881
 6355TIP3    H240557   2.509   6.393   0.366 -1.1251  1.0775  1.4915
 6356TIP3   OH240558   3.477   0.728  13.484 -0.1141 -0.4706  0.4380
 6356TIP3    H140559   3.506   0.651  13.435 -0.8452 -0.4907  0.0191
 6356TIP3    H240560   3.530   0.728  13.564  2.7605  0.8152 -1.3527
 6357TIP3   OH240561   4.303   2.868   5.876 -0.1398 -0.0719  0.0230
 6357TIP3    H140562   4.244   2.834   5.943 -1.4226 -0.1856 -1.1488
 6357TIP3    H240563   4.301   2.963   5.888 -0.5881 -0.0737 -0.0346
 6358TIP3   OH240564   1.343   2.103   4.263  0.8387  0.4841 -0.5209
 6358TIP3    H140565   1.263   2.156   4.266  0.1477 -0.6047  0.6342
 6358TIP3    H240566   1.363   2.095   4.170 -1.0359 -0.1645 -0.8862
 6359TIP3   OH240567   1.793   6.194  13.724  0.3776  0.3594  0.1136
 6359TIP3    H140568   1.883   6.225  13.719  0.1458  0.8033 -1.9499
 6359TIP3    H240569   1.765   6.188  13.632 -1.0994 -1.4817  0.6501
 6360TIP3   OH240570   1.094   0.226   4.630  0.1383 -0.3860 -0.7418
 6360TIP3    H140571   1.130   0.271   4.706  1.7107 -1.4302 -0.8342
 6360TIP3    H240572   1.141   0.264   4.555 -2.1180  1.3495 -1.3010
 6361TIP3   OH240573   0.006   2.482  16.655 -0.4910 -0.0018 -0.5106
 6361TIP3    H140574   0.080   2.516  16.606 -0.5414  1.0476  0.1224
 6361TIP3    H240575  -0.017   2.553  16.715 -0.4669 -1.2399  0.9740
 6362TIP3   OH240576   2.721   1.781  10.396 -0.2146  0.2141  0.2399
 6362TIP3    H140577   2.663   1.725  10.344 -1.1852  1.6126 -0.1944
 6362TIP3    H240578   2.778   1.719  10.442  0.2084 -1.0908 -1.9342
 6363TIP3   OH240579   0.426   2.822   0.539 -0.0580 -0.0613 -0.4645
 6363TIP3    H140580   0.421   2.809   0.444  1.4244 -3.4237 -0.1437
 6363TIP3    H240581   0.479   2.749   0.571 -0.5202  1.0059  2.9681
 6364TIP3   OH240582   3.299   3.500   5.189  0.4347 -0.7634 -0.7612
 6364TIP3    H140583   3.203   3.503   5.195  0.5017 -0.3962  0.2037
 6364TIP3    H240584   3.317   3.510   5.095 -0.4681 -0.7400 -0.9400
 6365TIP3   OH240585   0.640   4.700   2.888 -0.2268 -0.3970 -0.4310
 6365TIP3    H140586   0.690   4.622   2.863 -2.2365 -2.0440  0.5046
 6365TIP3    H240587   0.627   4.748   2.806  2.0048 -0.4566 -0.8336
 6366TIP3   OH240588   5.732   4.319   0.735 -0.0841  0.3977 -0.1938
 6366TIP3    H140589   5.639   4.316   0.715  0.0199 -0.6740 -0.5539
 6366TIP3    H240590   5.760   4.407   0.711 -1.0277  0.7511  0.0117
 6367TIP3   OH240591   2.616   5.728  15.455 -0.3183  0.1314 -0.2453
 6367TIP3    H140592   2.674   5.767  15.390 -0.6872  0.4150 -0.4070
 6367TIP3    H240593   2.647   5.762  15.539 -1.2623  1.5897 -0.4636
 6368TIP3   OH240594   0.431   1.911  15.406  0.1681  0.7871  0.3475
 6368TIP3    H140595   0.421   2.006  15.401  0.2883  0.9400  2.4083
 6368TIP3    H240596   0.510   1.892  15.355 -0.9496  1.5343 -1.7131
 6369TIP3   OH240597   2.863   4.395  15.138 -0.0630  0.0048  0.1583
 6369TIP3    H140598   2.862   4.438  15.224  2.6841  0.7302 -0.1145
 6369TIP3    H240599   2.937   4.335  15.142 -0.0816 -0.1687 -1.5905
 6370TIP3   OH240600   5.558   4.921   1.927  0.3849 -0.1404  0.4259
 6370TIP3    H140601   5.591   4.959   2.008 -3.1941  0.2565  1.7741
 6370TIP3    H240602   5.518   4.994   1.880 -1.0670 -1.0858  0.1598
 6371TIP3   OH240603   2.647   4.895   2.972  0.3128  0.0998  0.3171
 6371TIP3    H140604   2.724   4.862   2.927  0.9653 -0.8415  2.0545
 6371TIP3    H240605   2.588   4.923   2.903  2.1755  0.7328 -1.0326
 6372TIP3   OH240606   2.763   3.791   4.572 -0.0022  0.1487  0.1335
 6372TIP3    H140607   2.728   3.716   4.526 -0.3717  0.7867 -0.6327
 6372TIP3    H240608   2.724   3.787   4.659 -0.2801 -0.3543 -0.0159
 6373TIP3   OH240609   4.900   0.463  15.761 -0.2000  0.4300 -0.3363
 6373TIP3    H140610   4.962   0.425  15.698 -0.0194  0.0002  0.1039
 6373TIP3    H240611   4.930   0.553  15.772 -0.6157  0.7041 -1.3612
 6374TIP3   OH240612   6.144   3.305  15.042  0.1432  0.2660  0.2588
 6374TIP3    H140613   6.132   3.328  14.950 -1.5184 -0.2883  0.3042
 6374TIP3    H240614   6.161   3.388  15.086 -0.8449  0.7653 -0.2922
 6375TIP3   OH240615   4.727   3.122  16.167  0.2491 -0.0265 -0.0640
 6375TIP3    H140616   4.821   3.136  16.157  0.4742 -0.4869  1.3068
 6375TIP3    H240617   4.693   3.208  16.193  0.6741 -0.4220  1.9024
 6376TIP3   OH240618   3.096   0.542   3.593  0.5499  0.1149  0.6265
 6376TIP3    H140619   3.168   0.602   3.575  0.3989  0.2475  0.4625
 6376TIP3    H240620   3.077   0.501   3.509  2.5962 -2.3546  1.2937
 6377TIP3   OH240621   3.502   0.611   0.605  0.6900 -0.1794 -0.0704
 6377TIP3    H140622   3.489   0.553   0.680  2.1344 -1.2358 -0.6134
 6377TIP3    H240623   3.432   0.588   0.544  0.4462 -0.4075  0.2973
 6378TIP3   OH240624   0.785   4.914   2.407 -0.1317  0.0313  0.2123
 6378TIP3    H140625   0.690   4.920   2.402 -0.3500 -3.0595 -0.1267
 6378TIP3    H240626   0.817   4.951   2.325 -1.0758  0.0193 -0.1591
 6379TIP3   OH240627   2.522   6.810  15.767  0.1335  0.4121 -0.4387
 6379TIP3    H140628   2.560   6.728  15.798  1.2855  0.8400 -0.6868
 6379TIP3    H240629   2.440   6.784  15.724 -1.3418 -0.2480  2.5911
 6380TIP3   OH240630   4.165   6.560   3.357  0.2725 -0.7587  0.0565
 6380TIP3    H140631   4.194   6.498   3.290 -0.8508 -2.5492  1.1690
 6380TIP3    H240632   4.180   6.514   3.440  1.5000  1.3475  1.0586
 6381TIP3   OH240633   1.258   2.933  13.089 -0.1340 -0.4103  0.6959
 6381TIP3    H140634   1.337   2.942  13.142  1.0732 -0.3869 -1.0441
 6381TIP3    H240635   1.254   3.015  13.039 -1.4394 -0.2843  1.0065
 6382TIP3   OH240636   6.456   0.177  13.626  0.1096  0.2075 -0.2250
 6382TIP3    H140637   6.531   0.180  13.685 -0.1896 -0.1722  0.1796
 6382TIP3    H240638   6.483   0.120  13.555  0.7714  1.3182 -0.8846
 6383TIP3   OH240639   4.636   2.309  12.210  0.0093  0.4187 -0.9095
 6383TIP3    H140640   4.710   2.312  12.148  0.5083  0.6116 -0.3108
 6383TIP3    H240641   4.607   2.400  12.215 -0.5677  0.2701 -1.4933
 6384TIP3   OH240642   6.690   5.955  15.683  0.1019  0.0027  0.2615
 6384TIP3    H140643   6.785   5.970  15.687  0.1779  0.1295 -1.4774
 6384TIP3    H240644   6.680   5.861  15.697  0.5505 -0.1152 -0.1652
 6385TIP3   OH240645   1.780   2.453  11.951 -0.0547 -0.4643 -0.2377
 6385TIP3    H140646   1.831   2.415  11.880 -1.7143 -0.4861 -1.4538
 6385TIP3    H240647   1.792   2.393  12.024  1.9656 -0.2459 -0.3510
 6386TIP3   OH240648   4.516   5.770  14.098  0.0217 -0.5330 -0.1163
 6386TIP3    H140649   4.566   5.740  14.022 -0.5741  1.8613 -1.5193
 6386TIP3    H240650   4.580   5.819  14.150 -0.1359 -0.0510 -0.3696
 6387TIP3   OH240651   1.191   3.777  11.174  0.0794  0.5114  0.1420
 6387TIP3    H140652   1.111   3.821  11.203 -0.4552 -0.9437  0.9425
 6387TIP3    H240653   1.161   3.697  11.131  1.0888 -0.1934  0.7009
 6388TIP3   OH240654   5.009   5.879   6.652  0.5979 -0.0353 -0.1286
 6388TIP3    H140655   4.968   5.927   6.724 -0.7105 -0.4128 -0.6017
 6388TIP3    H240656   4.946   5.885   6.580 -0.3473 -3.7935  0.2766
 6389TIP3   OH240657   1.964   1.850  14.255 -0.6234 -0.4195  0.1479
 6389TIP3    H140658   2.059   1.849  14.239 -0.5012 -3.7304  0.7827
 6389TIP3    H240659   1.926   1.872  14.170  0.6990  1.9763  0.1085
 6390TIP3   OH240660   0.750   5.878  14.185 -1.0749  0.2210 -0.5817
 6390TIP3    H140661   0.742   5.793  14.228  1.4045  0.7865  1.0829
 6390TIP3    H240662   0.676   5.930  14.220 -0.5657 -0.1418  1.0943
 6391TIP3   OH240663   1.779   2.138   2.289  0.5874 -0.1344 -0.3488
 6391TIP3    H140664   1.763   2.119   2.197  1.1908 -0.0551 -0.4759
 6391TIP3    H240665   1.873   2.159   2.293  0.9943 -1.9800  0.5896
 6392TIP3   OH240666   6.550   5.281   3.018 -0.2754  0.5057 -0.4096
 6392TIP3    H140667   6.569   5.205   3.074 -0.6636  0.9921  0.4005
 6392TIP3    H240668   6.544   5.354   3.079 -1.6961  0.8825 -0.9701
 6393TIP3   OH240669   0.807   1.942   1.466 -0.2458 -0.0245 -0.4482
 6393TIP3    H140670   0.884   1.982   1.505 -0.7394  0.7159 -0.2264
 6393TIP3    H240671   0.745   2.014   1.457 -1.7417 -1.0360  1.4383
 6394TIP3   OH240672   2.759   5.636  11.318  0.2361 -0.1885 -0.1072
 6394TIP3    H140673   2.818   5.562  11.333  1.8115  0.5655 -2.4248
 6394TIP3    H240674   2.802   5.711  11.360  0.6961  0.2622 -1.3796
 6395TIP3   OH240675   5.920   0.515  13.708 -0.3403  0.3236  0.0884
 6395TIP3    H140676   5.905   0.454  13.781  1.4915 -0.5806 -0.2484
 6395TIP3    H240677   5.891   0.600  13.742 -1.1906 -0.3980  1.2308
 6396TIP3   OH240678   4.342   4.987   0.680 -0.0265  0.3899  0.6758
 6396TIP3    H140679   4.280   5.001   0.608  0.4041 -1.0359 -0.0071
 6396TIP3    H240680   4.424   4.965   0.636  0.7056  1.2844  1.5871
 6397TIP3   OH240681   2.819   0.928   3.710  0.3823  0.0885  0.1628
 6397TIP3    H140682   2.770   0.973   3.641 -0.4928 -0.9719  0.0763
 6397TIP3    H240683   2.898   0.981   3.721 -0.6708  1.7208  0.1566
 6398TIP3   OH240684   2.216   2.398   2.344  0.2796  0.9738 -0.5940
 6398TIP3    H140685   2.286   2.358   2.398 -1.0764 -0.1710  0.3513
 6398TIP3    H240686   2.261   2.467   2.295  2.0545  0.3863  0.1384
 6399TIP3   OH240687   6.707   5.151  10.571  0.3210 -0.2067  0.0216
 6399TIP3    H140688   6.797   5.172  10.547  1.1251 -1.4532  1.7783
 6399TIP3    H240689   6.673   5.232  10.611  0.0545  0.8067 -2.1815
 6400TIP3   OH240690   0.097   5.933   0.591 -0.3685  0.1785 -0.2922
 6400TIP3    H140691   0.189   5.931   0.616  0.2485 -0.7922 -2.5076
 6400TIP3    H240692   0.076   5.842   0.567 -2.2127  0.1697  1.2311
 6401TIP3   OH240693   0.582   1.230  16.044  0.1501  0.1443  0.7866
 6401TIP3    H140694   0.644   1.239  16.116 -1.4715  1.2992  2.0764
 6401TIP3    H240695   0.631   1.255  15.966  1.5396  0.2186  1.6853
 6402TIP3   OH240696   3.877   0.198  12.073  0.0065  0.1475  0.0272
 6402TIP3    H140697   3.860   0.144  12.150 -0.3876 -1.3146 -1.0394
 6402TIP3    H240698   3.965   0.174  12.045  0.2958  0.9526  0.2407
 6403TIP3   OH240699   5.214   6.565   2.158  0.2081  0.0931 -0.2966
 6403TIP3    H140700   5.290   6.509   2.170 -0.1129 -0.4236 -0.6528
 6403TIP3    H240701   5.197   6.601   2.245 -0.8763 -2.0349  0.4053
 6404TIP3   OH240702   5.953   2.001  13.869 -0.0968  0.1278  0.4284
 6404TIP3    H140703   5.925   1.932  13.809 -0.9813 -1.1575  2.2421
 6404TIP3    H240704   6.018   1.958  13.925 -1.2896  0.4716  2.1359
 6405TIP3   OH240705   1.122   0.350  11.927  0.3676  0.3533  0.4007
 6405TIP3    H140706   1.057   0.280  11.936  0.3142  0.5998  2.0972
 6405TIP3    H240707   1.194   0.309  11.880 -0.5823 -0.2065 -0.6086
 6406TIP3   OH240708   2.916   1.230   4.266  0.0594  0.4718 -0.6827
 6406TIP3    H140709   2.949   1.168   4.201  0.7800 -0.4212  0.5270
 6406TIP3    H240710   2.986   1.294   4.275  0.3603  0.0515 -0.0611
 6407TIP3   OH240711   5.171   6.132  13.142 -0.1863  0.2791 -0.6464
 6407TIP3    H140712   5.194   6.119  13.051  1.0110  0.5050 -0.3825
 6407TIP3    H240713   5.082   6.167  13.140 -0.0804  0.4859 -1.7295
 6408TIP3   OH240714   5.821   0.987  10.330  0.0862 -0.8087 -0.3152
 6408TIP3    H140715   5.841   1.079  10.318 -0.3486 -0.6344  0.3062
 6408TIP3    H240716   5.743   0.971  10.277  0.2445 -0.8544 -0.5356
 6409TIP3   OH240717   1.127   1.074  16.201 -0.2554  0.2396 -0.1370
 6409TIP3    H140718   1.141   1.055  16.294  0.2069 -0.2145 -0.2945
 6409TIP3    H240719   1.071   1.002  16.171  0.2718 -0.0712 -0.3927
 6410TIP3   OH240720   4.734   5.966  16.073 -0.1162  0.5020 -0.3805
 6410TIP3    H140721   4.664   5.973  16.137 -0.0692  0.7804 -0.3565
 6410TIP3    H240722   4.695   5.923  15.998  0.0914 -0.7428  0.2229
 6411TIP3   OH240723   2.325   3.946  11.468 -0.0545 -0.9946  0.1295
 6411TIP3    H140724   2.312   4.034  11.505 -1.6120 -0.9130 -0.5883
 6411TIP3    H240725   2.407   3.916  11.507  1.3768  1.4498 -0.8900
 6412TIP3   OH240726   2.761   6.769  11.885  0.3933  0.3102 -0.2159
 6412TIP3    H140727   2.765   6.829  11.959  0.2308  1.4951 -1.1528
 6412TIP3    H240728   2.829   6.800  11.825  1.3674 -1.3980 -0.0170
 6413TIP3   OH240729   1.752   1.347   1.675  0.0061  0.4608  0.2608
 6413TIP3    H140730   1.731   1.355   1.582 -1.4790  0.0576  0.5529
 6413TIP3    H240731   1.721   1.260   1.699 -0.4208  0.9035  1.3337
 6414TIP3   OH240732   3.015   6.025  12.208  0.1475 -0.5408  0.4251
 6414TIP3    H140733   3.106   6.046  12.187 -0.0749  0.2177  0.1942
 6414TIP3    H240734   2.965   6.097  12.169 -0.3887  0.2067  2.4369
 6415TIP3   OH240735   3.263   2.209   0.573  0.0445  0.0122 -0.6869
 6415TIP3    H140736   3.306   2.190   0.490 -0.4701  1.1982 -1.2444
 6415TIP3    H240737   3.257   2.125   0.617  1.6983 -0.3863 -1.1839
 6416TIP3   OH240738   4.914   0.383  13.081  0.4146  0.4519 -0.1043
 6416TIP3    H140739   4.859   0.358  13.007  1.2960  0.9225 -0.9216
 6416TIP3    H240740   5.000   0.348  13.060  0.5059 -0.0311  1.0393
 6417TIP3   OH240741   2.137   5.604  13.228  0.1791 -0.2625 -0.4217
 6417TIP3    H140742   2.126   5.699  13.221  0.7606 -0.2357 -0.9820
 6417TIP3    H240743   2.051   5.572  13.255  0.6456  0.6746  2.2691
 6418TIP3   OH240744   5.588   5.815   2.752  0.1219 -0.0474 -0.2359
 6418TIP3    H140745   5.517   5.794   2.812 -1.1356  0.5460 -1.4994
 6418TIP3    H240746   5.559   5.781   2.667  1.3590  0.1816 -0.7681
 6419TIP3   OH240747   2.553   4.444  10.931  0.4012  0.2524  0.1519
 6419TIP3    H140748   2.557   4.355  10.897 -1.1530  0.1092  0.3395
 6419TIP3    H240749   2.644   4.465  10.952  1.0164 -0.6416 -1.5356
 6420TIP3   OH240750   2.845   3.448  11.382 -0.1673 -0.0503 -0.0053
 6420TIP3    H140751   2.846   3.525  11.325 -3.4470  0.6116  0.7048
 6420TIP3    H240752   2.930   3.448  11.425 -0.5021  3.8908  0.8530
 6421TIP3   OH240753   0.081   3.381   5.635  0.2793  0.0698  0.0208
 6421TIP3    H140754   0.043   3.323   5.569  2.0002 -0.4101 -0.6012
 6421TIP3    H240755   0.010   3.441   5.659 -1.9235 -3.0601  1.6252
 6422TIP3   OH240756   6.707   0.309  15.531  0.1125  0.3085 -0.0990
 6422TIP3    H140757   6.771   0.303  15.601  0.4018 -0.0351 -0.3912
 6422TIP3    H240758   6.633   0.356  15.569  0.1870 -0.0529  0.4945
 6423TIP3   OH240759   2.074   1.076  11.679  0.3145 -0.0170  0.1856
 6423TIP3    H140760   2.017   1.052  11.605  0.9503  2.2227 -1.0558
 6423TIP3    H240761   2.150   1.019  11.669  0.5980  0.5832 -1.1537
 6424TIP3   OH240762   2.725   6.202  13.152  0.0679  0.4254 -0.2143
 6424TIP3    H140763   2.697   6.289  13.182  1.4913  0.6935  0.3597
 6424TIP3    H240764   2.797   6.220  13.092 -0.8430 -0.2713 -1.5215
 6425TIP3   OH240765   1.701   0.988   4.347  0.3985 -0.0880 -0.8219
 6425TIP3    H140766   1.655   0.924   4.400  1.2485  1.0514  1.3424
 6425TIP3    H240767   1.641   1.062   4.341  1.6037  1.1142  1.4079
 6426TIP3   OH240768   2.829   1.925  16.943 -0.1755 -0.6072  0.2672
 6426TIP3    H140769   2.824   1.844  16.994 -0.1818 -0.5056  0.4263
 6426TIP3    H240770   2.908   1.969  16.974 -1.1791  0.3422  1.5104
 6427TIP3   OH240771   6.614   6.193   1.259  0.0041  0.4376 -0.7959
 6427TIP3    H140772   6.678   6.168   1.192  1.0351 -1.3897  0.8193
 6427TIP3    H240773   6.667   6.225   1.331 -0.9828  0.2825  0.0007
 6428TIP3   OH240774   2.073   0.443   3.175 -0.9028 -0.1194 -0.1551
 6428TIP3    H140775   2.043   0.388   3.102  0.8654  0.5413 -1.4093
 6428TIP3    H240776   2.159   0.408   3.198 -0.9581  0.4106  0.8717
 6429TIP3   OH240777   1.370   1.244   5.676  0.0329  0.1055 -0.9481
 6429TIP3    H140778   1.326   1.275   5.755  0.1961  0.5708 -1.0381
 6429TIP3    H240779   1.415   1.165   5.704 -0.8416 -0.3669 -0.8489
 6430TIP3   OH240780   5.623   4.726  12.162 -0.0097  0.0730  0.0574
 6430TIP3    H140781   5.626   4.637  12.126 -2.4826  0.1283 -0.4054
 6430TIP3    H240782   5.566   4.719  12.238  1.0174  0.9866  0.9221
 6431TIP3   OH240783   0.502   2.111  16.528 -0.5671  0.1805 -0.2765
 6431TIP3    H140784   0.478   2.204  16.535 -3.0058 -0.3044 -1.6216
 6431TIP3    H240785   0.502   2.093  16.434 -2.0515 -1.6464  0.0410
 6432TIP3   OH240786   6.018   1.203   0.405  0.2006  0.2699  0.0477
 6432TIP3    H140787   6.110   1.201   0.376  0.0956  0.3381 -0.2876
 6432TIP3    H240788   5.969   1.170   0.330 -0.1417  1.1644 -0.1209
 6433TIP3   OH240789   5.320   1.612   0.200  0.3892  0.5745  0.1495
 6433TIP3    H140790   5.262   1.587   0.128  0.0154 -0.0641  0.6714
 6433TIP3    H240791   5.338   1.705   0.185 -0.1103  0.5739 -0.4739
 6434TIP3   OH240792   4.069   2.333   0.115  0.1653 -0.3030 -0.0139
 6434TIP3    H140793   4.144   2.324   0.056  0.3425 -0.7443  0.2749
 6434TIP3    H240794   4.066   2.426   0.136  0.0466 -0.1295 -0.7937
 6435TIP3   OH240795   2.927   4.241  16.367 -0.5832 -1.0460 -0.1556
 6435TIP3    H140796   2.888   4.313  16.417  0.1489 -1.3715  0.9165
 6435TIP3    H240797   2.922   4.166  16.426 -0.3098 -1.6023 -0.8344
 6436TIP3   OH240798   3.745   5.363   0.790 -0.3820  0.0300 -0.6056
 6436TIP3    H140799   3.694   5.423   0.844 -1.4793  1.0947 -2.7437
 6436TIP3    H240800   3.832   5.362   0.830 -1.1877  0.6867  1.2125
 6437TIP3   OH240801   0.131   1.423  15.085  0.0864 -0.3140  0.3335
 6437TIP3    H140802   0.222   1.450  15.075 -0.0951  1.0893  2.2897
 6437TIP3    H240803   0.109   1.382  15.001  1.8566  1.2317 -0.9214
 6438TIP3   OH240804   4.150   2.731   6.077  0.6172 -0.3647 -0.1147
 6438TIP3    H140805   4.062   2.769   6.065  0.6011  0.0463  1.2653
 6438TIP3    H240806   4.137   2.658   6.137  1.2879 -0.0599  0.4000
 6439TIP3   OH240807   0.410   0.039   3.841 -0.8139  0.1202  0.2584
 6439TIP3    H140808   0.383   0.017   3.930 -0.8616  1.0158  0.4757
 6439TIP3    H240809   0.412   0.135   3.840  0.2977  0.1017 -0.3643
 6440TIP3   OH240810   4.215   6.499   4.400 -0.2333  0.8629 -0.2530
 6440TIP3    H140811   4.306   6.470   4.407 -0.5663  0.2725  1.9307
 6440TIP3    H240812   4.168   6.424   4.364 -0.3039  0.2710  1.0731
 6441TIP3   OH240813   6.174   4.075   0.334 -0.3503  0.2140  0.3526
 6441TIP3    H140814   6.120   4.139   0.380  1.3533  2.1245 -0.2063
 6441TIP3    H240815   6.199   4.012   0.402  0.2963  1.7527  1.5762
 6442TIP3   OH240816   0.655   1.812  11.295 -0.1991 -0.7871  0.1072
 6442TIP3    H140817   0.600   1.780  11.224  1.0729 -2.4513 -0.1654
 6442TIP3    H240818   0.741   1.772  11.279  0.2990 -0.5846  2.1461
 6443TIP3   OH240819   6.632   0.004  11.056 -1.0308  0.3690 -0.1852
 6443TIP3    H140820   6.653   0.014  10.963 -2.4084 -0.2490 -0.5672
 6443TIP3    H240821   6.576  -0.073  11.060 -1.2254  0.5697  1.1223
 6444TIP3   OH240822   3.320   1.163  14.590  0.3375 -0.2503  0.9257
 6444TIP3    H140823   3.347   1.110  14.516 -0.9000  0.2345  0.1152
 6444TIP3    H240824   3.231   1.133  14.611 -0.0110  0.8509  1.0545
 6445TIP3   OH240825   5.119   3.971   1.968  0.1028 -0.0890 -0.2050
 6445TIP3    H140826   5.167   4.043   1.926  0.0118 -0.8915 -1.7190
 6445TIP3    H240827   5.160   3.892   1.934 -0.9678 -0.7703  0.0760
 6446TIP3   OH240828   2.117   4.123  11.392  0.2734 -0.4766  0.1645
 6446TIP3    H140829   2.197   4.167  11.419  0.5263 -1.6483  1.3565
 6446TIP3    H240830   2.102   4.153  11.302  1.7346  0.1804  0.1338
 6447TIP3   OH240831   5.221   4.682  14.660 -0.3999  0.2044  0.0218
 6447TIP3    H140832   5.137   4.698  14.619  0.0208  2.9785  0.0978
 6447TIP3    H240833   5.279   4.748  14.622  1.4385 -0.9196  0.8064
 6448TIP3   OH240834   3.787   1.186   2.194 -0.1959  0.2361  0.3498
 6448TIP3    H140835   3.820   1.242   2.124 -2.0157  3.0505  1.6421
 6448TIP3    H240836   3.698   1.217   2.209 -1.4058 -3.2814  0.8986
 6449TIP3   OH240837   3.208   6.080   5.994  1.0867  0.7326  0.8831
 6449TIP3    H140838   3.217   6.165   5.950 -2.3343  0.7354  0.1084
 6449TIP3    H240839   3.132   6.090   6.051 -0.4719 -2.3464 -0.5264
 6450TIP3   OH240840   3.880   4.583   1.926 -0.2815  0.6085  0.4590
 6450TIP3    H140841   3.824   4.514   1.963 -1.2656  0.7288 -0.7613
 6450TIP3    H240842   3.951   4.535   1.882  0.3348  0.4445  1.6141
 6451TIP3   OH240843   1.587   4.191   0.771 -0.1832  0.1792 -0.2411
 6451TIP3    H140844   1.603   4.252   0.699  1.8192 -1.1502 -0.9590
 6451TIP3    H240845   1.518   4.133   0.738 -0.1887  0.3772 -0.5833
 6452TIP3   OH240846   6.198   2.964   0.489 -0.0232 -0.5252 -0.2409
 6452TIP3    H140847   6.204   2.983   0.582  0.6368 -1.1488 -0.1510
 6452TIP3    H240848   6.108   2.986   0.465  0.5433  2.1652 -0.0324
 6453TIP3   OH240849   2.060   4.680  13.415  0.5514 -0.1543 -0.1637
 6453TIP3    H140850   1.998   4.722  13.355  0.1816 -1.4081 -0.6638
 6453TIP3    H240851   2.020   4.692  13.502  0.3823  0.4129 -0.3161
 6454TIP3   OH240852   2.255   3.078   1.792  0.3389 -0.0902  0.1417
 6454TIP3    H140853   2.293   3.037   1.870 -0.9784  0.1912  0.9379
 6454TIP3    H240854   2.231   3.004   1.736  3.1039 -0.2564 -0.9055
 6455TIP3   OH240855   1.434   0.435  11.634  0.4890  0.0115  0.0746
 6455TIP3    H140856   1.472   0.362  11.585  1.4243  1.6233 -1.6544
 6455TIP3    H240857   1.497   0.507  11.624 -0.8839  1.3754  0.9182
 6456TIP3   OH240858   2.908   3.857   4.988  0.2021  0.5553 -0.4758
 6456TIP3    H140859   2.902   3.952   4.973  0.9686  0.5242 -1.0144
 6456TIP3    H240860   2.837   3.820   4.935 -1.6532  0.9938  1.6086
 6457TIP3   OH240861   5.244   6.117  14.576  0.6134 -0.1627  0.2938
 6457TIP3    H140862   5.184   6.164  14.518 -0.3594 -0.4992  1.0124
 6457TIP3    H240863   5.310   6.182  14.600  0.8246  0.0760 -0.9068
 6458TIP3   OH240864   3.815   4.264  16.556 -0.4347 -0.3498  0.2101
 6458TIP3    H140865   3.854   4.181  16.528 -1.5297 -1.1077  0.8784
 6458TIP3    H240866   3.769   4.296  16.478 -1.7311 -1.4173  0.5040
 6459TIP3   OH240867   1.853   5.848   0.652  0.0181 -0.0110  0.1390
 6459TIP3    H140868   1.802   5.910   0.599 -0.9164 -0.2606  0.7237
 6459TIP3    H240869   1.886   5.785   0.589 -1.2919 -0.4435 -0.1355
 6460TIP3   OH240870   2.027   2.247  11.075  0.1081  0.1767 -0.3661
 6460TIP3    H140871   2.091   2.275  11.010 -0.1023 -0.1168 -0.7054
 6460TIP3    H240872   2.074   2.252  11.159  0.8010 -0.7110 -0.6871
 6461TIP3   OH240873   0.916   1.645   1.538 -0.3558 -0.1892 -0.2320
 6461TIP3    H140874   0.897   1.736   1.512 -1.9980 -0.0343  1.4022
 6461TIP3    H240875   0.993   1.651   1.594 -0.5550  0.2247  0.0001
 6462TIP3   OH240876   3.818   5.730   5.110 -0.4756 -0.2349 -0.1567
 6462TIP3    H140877   3.913   5.719   5.104 -0.4878  0.0650 -1.0241
 6462TIP3    H240878   3.784   5.642   5.124 -0.0533 -0.3079  0.4261
 6463TIP3   OH240879   3.773   4.958  14.695 -0.2450 -0.7667 -0.5380
 6463TIP3    H140880   3.868   4.960  14.704 -0.4444  0.7921  1.5381
 6463TIP3    H240881   3.749   5.047  14.669 -1.2978 -0.5135  1.1758
 6464TIP3   OH240882   4.914   6.532   0.475  0.1119  0.4719  0.4593
 6464TIP3    H140883   4.952   6.559   0.391  0.3849  0.8130  0.6922
 6464TIP3    H240884   4.863   6.455   0.453  0.4086  0.3918  0.0232
 6465TIP3   OH240885   1.074   0.696  16.869  0.1367  0.3407  0.4507
 6465TIP3    H140886   1.144   0.684  16.804 -0.4990 -0.2284 -0.1331
 6465TIP3    H240887   1.104   0.647  16.945 -0.3400 -1.2211 -0.3484
 6466TIP3   OH240888   3.189   6.294  13.619  0.2122  0.2179  0.1690
 6466TIP3    H140889   3.121   6.289  13.687  0.7130 -0.1734  0.6391
 6466TIP3    H240890   3.239   6.213  13.629 -0.6557 -0.5615 -1.6825
 6467TIP3   OH240891   3.962   4.691   5.675  0.1933  0.3382  0.5284
 6467TIP3    H140892   4.018   4.709   5.599  0.9166  0.2619  1.0444
 6467TIP3    H240893   3.880   4.660   5.637  0.4926  0.4642 -0.2324
 6468TIP3   OH240894   1.690   3.945   6.074  0.5023  0.5491 -0.7299
 6468TIP3    H140895   1.777   3.912   6.050  0.8185  1.6480 -1.1328
 6468TIP3    H240896   1.705   4.036   6.099 -0.6408  0.9692 -1.5092
 6469TIP3   OH240897   1.717   2.455  12.412 -0.3202  0.3256 -0.6580
 6469TIP3    H140898   1.804   2.488  12.388  0.0386 -0.5818 -0.6483
 6469TIP3    H240899   1.728   2.359  12.414 -1.1994  0.2305 -0.1965
 6470TIP3   OH240900   2.850   1.876  11.400  0.4919  0.1075 -0.1795
 6470TIP3    H140901   2.875   1.868  11.308 -0.5699 -1.4885 -0.3558
 6470TIP3    H240902   2.886   1.798  11.442 -0.8950 -0.2997  0.2984
 6471TIP3   OH240903   1.747   2.858   1.369  0.0008 -0.0722 -0.2562
 6471TIP3    H140904   1.763   2.951   1.386 -0.6739  0.1071 -0.5770
 6471TIP3    H240905   1.653   2.847   1.385  0.0384 -0.6519 -0.4391
 6472TIP3   OH240906   1.987   1.065  11.281 -0.0533 -0.2058 -0.0991
 6472TIP3    H140907   2.052   1.042  11.215 -0.9415 -1.1766 -0.6465
 6472TIP3    H240908   1.956   1.152  11.255 -0.3651 -0.5647 -0.9264
 6473TIP3   OH240909   1.165   4.167  15.665  0.3532  0.4430 -0.6244
 6473TIP3    H140910   1.210   4.178  15.581 -0.8411  1.0368 -1.1901
 6473TIP3    H240911   1.113   4.247  15.675  1.6595  1.0834  1.4075
 6474TIP3   OH240912   1.055   1.585  16.492 -0.2557 -0.0136 -0.7186
 6474TIP3    H140913   1.139   1.550  16.519  0.4183  0.0511 -2.6549
 6474TIP3    H240914   1.074   1.640  16.416 -2.0742 -0.2310 -1.3726
 6475TIP3   OH240915   3.371   4.669   5.017  0.3878  0.4783 -0.1233
 6475TIP3    H140916   3.365   4.735   5.086 -0.2007 -0.3028  0.5799
 6475TIP3    H240917   3.306   4.603   5.041  0.0955  0.2613 -1.4941
 6476TIP3   OH240918   5.411   0.353  12.001 -0.0837 -0.3278  0.3789
 6476TIP3    H140919   5.422   0.423  12.065  1.3401 -0.4689  0.3068
 6476TIP3    H240920   5.391   0.398  11.919 -0.9148 -0.1015  0.6950
 6477TIP3   OH240921   0.350   2.128   6.135  0.5355  0.1982 -0.8501
 6477TIP3    H140922   0.369   2.072   6.060  3.3137 -1.9950  1.3606
 6477TIP3    H240923   0.402   2.207   6.120  2.3909 -0.9100 -0.5615
 6478TIP3   OH240924   0.491   5.041   3.054 -0.5525 -0.0304 -0.5092
 6478TIP3    H140925   0.550   5.073   2.987 -1.3329 -0.7194 -1.5376
 6478TIP3    H240926   0.519   5.086   3.134  2.7791 -2.0018 -0.4845
 6479TIP3   OH240927   3.800   5.401   0.004 -0.3883 -0.1553  0.4668
 6479TIP3    H140928   3.881   5.390   0.054  0.3272  0.2028 -0.6007
 6479TIP3    H240929   3.761   5.313   0.001  0.2914 -0.4537  0.4365
 6480TIP3   OH240930   3.150   2.313  11.393  0.0301  0.1210 -0.1654
 6480TIP3    H140931   3.098   2.271  11.461 -0.1478  0.9159  0.1945
 6480TIP3    H240932   3.112   2.400  11.384  1.4594  0.7976  0.2704
 6481TIP3   OH240933   5.793   5.477   0.532  0.1651 -0.2343 -0.7164
 6481TIP3    H140934   5.781   5.534   0.457  1.8018 -0.7262 -1.3761
 6481TIP3    H240935   5.885   5.451   0.528  0.4189  0.1837  1.7832
 6482TIP3   OH240936   0.515   1.027  15.633 -0.7288  0.7606 -0.1519
 6482TIP3    H140937   0.528   1.042  15.540  0.6983 -0.8777 -0.2412
 6482TIP3    H240938   0.591   1.067  15.675 -0.4691 -0.0573  0.1636
 6483TIP3   OH240939   3.091   3.449  11.178 -1.0100 -0.1097  0.2451
 6483TIP3    H140940   3.038   3.380  11.218 -2.1500  0.5879 -0.0300
 6483TIP3    H240941   3.030   3.495  11.120 -0.3342  1.2882  0.6234
 6484TIP3   OH240942   5.423   4.422  12.928  0.7747  0.3138  0.2762
 6484TIP3    H140943   5.455   4.479  12.857 -1.0805 -0.8099 -1.5164
 6484TIP3    H240944   5.488   4.352  12.933  0.2722 -0.2972 -1.2440
 6485TIP3   OH240945   2.824   3.798   0.131  0.2500 -0.5964  0.3571
 6485TIP3    H140946   2.867   3.795   0.046 -0.8779  0.4160 -0.2637
 6485TIP3    H240947   2.885   3.846   0.187 -0.0873  0.8793 -0.5250
 6486TIP3   OH240948   5.885   0.968  14.009 -0.1149 -0.0429 -0.1298
 6486TIP3    H140949   5.802   0.961  14.057  0.0605  0.9609  0.3358
 6486TIP3    H240950   5.927   0.883  14.024 -0.6675 -0.2411  0.3688
 6487TIP3   OH240951   0.402   1.650  13.259  0.1573  0.2349 -0.1418
 6487TIP3    H140952   0.408   1.607  13.174  1.0269  0.9715 -0.4578
 6487TIP3    H240953   0.407   1.578  13.322  0.3849 -0.2392 -0.6920
 6488TIP3   OH240954   4.526   6.109   1.463 -0.3543 -0.0588  0.2344
 6488TIP3    H140955   4.549   6.017   1.477  2.8274  0.6474  0.0256
 6488TIP3    H240956   4.607   6.149   1.431 -1.9677  2.6194 -0.6200
 6489TIP3   OH240957   1.908   6.220  14.055  0.1425 -0.1026  0.3423
 6489TIP3    H140958   1.918   6.292  14.117  1.0729 -0.6000  0.7756
 6489TIP3    H240959   1.822   6.182  14.075  0.5437 -0.4169  1.4897
 6490TIP3   OH240960   3.453   2.818  14.013  0.0902  0.1603 -0.4939
 6490TIP3    H140961   3.485   2.907  14.023 -0.5006  0.2594  0.6138
 6490TIP3    H240962   3.458   2.781  14.101 -1.7441 -0.1848 -0.5157
 6491TIP3   OH240963   3.632   5.787   2.253  0.4951  0.7530  0.7779
 6491TIP3    H140964   3.599   5.756   2.169 -2.1926 -0.0214  2.0649
 6491TIP3    H240965   3.659   5.877   2.236  0.3353  0.4840 -1.0088
 6492TIP3   OH240966   3.118   3.329  11.514 -0.1908  0.4273 -0.3074
 6492TIP3    H140967   3.174   3.267  11.562  0.6613 -0.5624 -2.5128
 6492TIP3    H240968   3.177   3.401  11.491  0.2513 -0.6243 -2.6497
 6493TIP3   OH240969   1.299   0.238  12.964 -0.2122 -0.0449  0.1872
 6493TIP3    H140970   1.215   0.275  12.939 -1.1118 -1.7161  0.6584
 6493TIP3    H240971   1.362   0.282  12.908 -1.3948  1.1788 -0.2202
 6494TIP3   OH240972   6.376   4.398   1.668  0.2556 -0.5453 -0.5027
 6494TIP3    H140973   6.454   4.438   1.706 -0.5746  0.5500  0.0790
 6494TIP3    H240974   6.387   4.410   1.573  1.4589 -1.6620 -0.5182
 6495TIP3   OH240975   6.205   5.935   4.705 -0.4745  0.2993 -0.0912
 6495TIP3    H140976   6.211   5.844   4.677  0.5062  0.5649 -0.8053
 6495TIP3    H240977   6.222   5.933   4.799  2.4157  0.0273 -0.5712
 6496TIP3   OH240978   5.055   1.187   3.075  0.0333  0.5942 -0.1765
 6496TIP3    H140979   5.057   1.194   3.170 -1.0438  0.2268 -0.1153
 6496TIP3    H240980   5.105   1.262   3.044 -2.1882  2.4531  0.6302
 6497TIP3   OH240981   6.124   5.956   1.364  0.0311 -0.3321 -0.3534
 6497TIP3    H140982   6.084   6.033   1.405 -1.0366  0.7097 -3.2264
 6497TIP3    H240983   6.216   5.979   1.356  0.1594 -0.3473  0.9857
 6498TIP3   OH240984   6.796   6.244  15.856  0.1297  0.2716 -0.4379
 6498TIP3    H140985   6.851   6.176  15.817  0.0970 -0.0246  0.0215
 6498TIP3    H240986   6.823   6.247  15.948 -0.5287  0.2161 -0.2389
 6499TIP3   OH240987   0.032   2.364  12.938  0.1162  0.4773 -0.2309
 6499TIP3    H140988  -0.033   2.310  12.984 -0.6341 -0.4355 -2.3236
 6499TIP3    H240989   0.115   2.321  12.955  0.1346  1.2918  1.9364
 6500TIP3   OH240990   0.658   2.631   2.481  0.5622 -0.2950 -0.2191
 6500TIP3    H140991   0.609   2.712   2.465  1.6999  0.4471  0.0543
 6500TIP3    H240992   0.743   2.660   2.513  0.5809 -1.6366  0.9572
 6501TIP3   OH240993   3.072   2.752  12.513  0.5180 -0.2944 -0.1915
 6501TIP3    H140994   3.104   2.663  12.526  1.9765  0.5173  2.0137
 6501TIP3    H240995   3.142   2.796  12.465  0.1648 -0.0822 -0.5217
 6502TIP3   OH240996   2.257   1.911   4.944  0.1590 -0.1026 -0.5539
 6502TIP3    H140997   2.189   1.873   4.999  2.7637 -2.9111  0.8606
 6502TIP3    H240998   2.261   1.854   4.868  1.2944 -0.2630 -0.3797
 6503TIP3   OH240999   3.193   5.950   1.493  0.1997 -0.9075 -0.0217
 6503TIP3    H141000   3.193   6.042   1.520  0.4944 -1.5486  2.2820
 6503TIP3    H241001   3.285   5.923   1.499 -0.0679 -1.6972  0.6310
 6504TIP3   OH241002   0.627   5.058  15.267  0.3345 -0.2307  0.0726
 6504TIP3    H141003   0.591   5.012  15.343 -1.1372  0.3571 -0.2540
 6504TIP3    H241004   0.584   5.144  15.269  0.4602 -0.1298 -1.2989
 6505TIP3   OH241005   0.810   4.054   4.946 -0.3699 -0.0030  0.9594
 6505TIP3    H141006   0.870   4.098   5.006  0.7250  0.0997 -0.1764
 6505TIP3    H241007   0.864   3.988   4.902 -0.4096  1.7306 -1.8667
 6506TIP3   OH241008   2.043   6.411   4.893 -0.2771  0.2728 -0.3100
 6506TIP3    H141009   2.080   6.467   4.825  0.4010  0.7916  0.4739
 6506TIP3    H241010   1.960   6.454   4.917  0.4236  1.1696  0.5571
 6507TIP3   OH241011   6.182   1.533  12.651 -0.2264 -0.4353  0.2473
 6507TIP3    H141012   6.230   1.524  12.568 -0.8490 -3.4028  0.1639
 6507TIP3    H241013   6.091   1.545  12.624 -0.3706 -0.9809  0.4843
 6508TIP3   OH241014   4.279   2.062  12.541  0.6418 -0.5780 -0.1418
 6508TIP3    H141015   4.288   1.986  12.599  1.0777 -0.7229 -0.3929
 6508TIP3    H241016   4.369   2.084  12.516  0.3446 -2.1022 -2.7933
 6509TIP3   OH241017   0.317   3.362  17.199  0.2936 -0.4952 -0.3240
 6509TIP3    H141018   0.279   3.399  17.279 -3.3395 -1.3471 -1.5464
 6509TIP3    H241019   0.394   3.313  17.230  0.1765  0.9031  2.3666
 6510TIP3   OH241020   4.985   1.707  16.269 -0.4731 -0.0019  0.5554
 6510TIP3    H141021   5.041   1.763  16.322 -1.5739  1.0191  0.6614
 6510TIP3    H241022   4.898   1.746  16.276 -0.8792 -0.5875 -0.9703
 6511TIP3   OH241023   1.125   2.730   5.169 -0.2240  0.1120  0.0466
 6511TIP3    H141024   1.054   2.756   5.109 -0.8853 -0.6067  0.5122
 6511TIP3    H241025   1.114   2.786   5.245 -0.7351 -0.4917  0.4204
 6512TIP3   OH241026   4.441   5.533   1.530 -0.2341 -0.5347 -0.0184
 6512TIP3    H141027   4.443   5.547   1.435  1.0778  0.8068  0.1896
 6512TIP3    H241028   4.525   5.568   1.561  0.1402 -2.6479  1.4238
 6513TIP3   OH241029   2.352   1.390   4.884  0.4083 -0.2127  0.4465
 6513TIP3    H141030   2.292   1.449   4.929 -0.9807  0.0909 -1.7698
 6513TIP3    H241031   2.439   1.426   4.902 -0.4393  2.8377 -1.3330
 6514TIP3   OH241032   5.487   6.611   5.188 -0.0629  0.3455  0.9426
 6514TIP3    H141033   5.440   6.529   5.203 -0.9224  0.6299 -0.1184
 6514TIP3    H241034   5.574   6.597   5.226 -0.7851 -0.4233  2.3299
 6515TIP3   OH241035   5.898   4.438  12.409 -0.1548  0.1620 -0.1980
 6515TIP3    H141036   5.977   4.423  12.461 -0.5138 -0.1191  0.2683
 6515TIP3    H241037   5.922   4.413  12.320  0.1638 -0.3027  0.0164
 6516TIP3   OH241038   0.628   2.906  17.063  0.0114 -0.1374 -0.1838
 6516TIP3    H141039   0.548   2.882  17.109 -0.9911  2.5440 -0.4729
 6516TIP3    H241040   0.601   2.974  17.001  2.7298  1.7189  0.5849
 6517TIP3   OH241041   3.015   1.997   1.710 -0.0325  0.2344 -0.9074
 6517TIP3    H141042   3.039   2.070   1.768  0.7349 -0.4699 -0.3298
 6517TIP3    H241043   2.957   1.943   1.763  1.6302 -1.0540 -0.3621
 6518TIP3   OH241044   0.453   5.713  15.987 -0.3509 -0.6826 -0.5843
 6518TIP3    H141045   0.525   5.651  15.973 -0.2739 -0.6082 -0.5259
 6518TIP3    H241046   0.480   5.791  15.938  0.1213 -0.2691  0.3219
 6519TIP3   OH241047   3.133   2.773   5.449 -0.2137 -0.2513 -0.2009
 6519TIP3    H141048   3.086   2.719   5.512 -0.3311 -0.6728 -0.6451
 6519TIP3    H241049   3.097   2.747   5.364 -1.2443  1.4817 -0.3251
 6520TIP3   OH241050   1.126   5.690  13.812 -0.3422  0.1314  0.4134
 6520TIP3    H141051   1.168   5.716  13.894  0.2514  0.6762 -0.0506
 6520TIP3    H241052   1.087   5.604  13.831 -1.1426  0.7381  1.5651
 6521TIP3   OH241053   3.789   2.086  15.091  0.2679 -0.4427  0.0628
 6521TIP3    H141054   3.699   2.056  15.109 -0.2437 -0.2956 -2.1444
 6521TIP3    H241055   3.813   2.135  15.169 -1.4944 -0.6862  0.7944
 6522TIP3   OH241056   4.378   1.733   5.924  0.0651  0.1933  0.4756
 6522TIP3    H141057   4.345   1.656   5.878  3.3488 -1.9685  1.5462
 6522TIP3    H241058   4.368   1.713   6.017  3.5583 -0.2927  0.8313
 6523TIP3   OH241059   4.370   6.416   5.132  0.1637 -0.8250  0.1628
 6523TIP3    H141060   4.290   6.442   5.177  0.9582  1.0438  0.5557
 6523TIP3    H241061   4.353   6.433   5.040  0.0336 -0.6105  0.2270
 6524TIP3   OH241062   3.802   3.785  12.183  0.7020 -0.1448 -0.1068
 6524TIP3    H141063   3.744   3.850  12.222  0.4630 -0.2173 -0.3431
 6524TIP3    H241064   3.745   3.711  12.163  0.9524 -0.3843  0.0537
 6525TIP3   OH241065   3.961   3.699  14.755 -0.2136  0.1489  0.0514
 6525TIP3    H141066   3.957   3.639  14.830  0.6302  0.9970  0.7859
 6525TIP3    H241067   3.871   3.707  14.726 -0.3376 -1.4867 -0.0607
 6526TIP3   OH241068   1.155   2.834  11.355  0.1742 -0.1364 -0.9686
 6526TIP3    H141069   1.196   2.881  11.283  2.4893 -1.4110 -0.5425
 6526TIP3    H241070   1.217   2.764  11.376 -1.3398 -0.9274  1.0111
 6527TIP3   OH241071   2.073   2.693   6.302  0.2332  0.2662 -0.3770
 6527TIP3    H141072   2.007   2.719   6.365 -0.2856 -1.2378 -0.2885
 6527TIP3    H241073   2.105   2.608   6.334 -1.0533 -1.2130 -2.8841
 6528TIP3   OH241074   1.959   4.881  16.934  0.1091  0.6337 -0.9669
 6528TIP3    H141075   1.903   4.831  16.875 -0.4606 -0.0506  0.1386
 6528TIP3    H241076   1.995   4.816  16.994 -0.2756  1.4650  0.1857
 6529TIP3   OH241077   2.285   2.884  13.186  0.1823  0.0866  0.3312
 6529TIP3    H141078   2.380   2.879  13.173  0.1047 -0.8137  0.0701
 6529TIP3    H241079   2.273   2.865  13.279  0.2861  0.6443  0.4620
 6530TIP3   OH241080   1.974   4.936  12.356  0.0991 -0.3356 -0.3986
 6530TIP3    H141081   2.042   4.870  12.341 -0.9845 -1.5444 -0.0948
 6530TIP3    H241082   1.917   4.897  12.422 -0.2690  1.1361  0.1744
 6531TIP3   OH241083   4.531   5.188  14.574  0.1185  0.5861  0.4812
 6531TIP3    H141084   4.609   5.212  14.624  0.5467 -1.4891  0.8236
 6531TIP3    H241085   4.484   5.128  14.630 -0.0221 -0.7944 -1.0888
 6532TIP3   OH241086   2.712   2.303  12.605  0.2736  0.2520  0.9043
 6532TIP3    H141087   2.756   2.231  12.650 -0.5955 -0.6212  0.3868
 6532TIP3    H241088   2.685   2.266  12.521  0.7694  1.4993  0.1720
 6533TIP3   OH241089   1.058   2.364  11.994 -0.6975  0.2463 -0.4980
 6533TIP3    H141090   1.064   2.457  12.013  0.3948  0.1569 -0.4202
 6533TIP3    H241091   1.143   2.341  11.957  0.3398 -1.4836  2.8195
 6534TIP3   OH241092   2.149   4.884  15.376 -0.0637 -0.1964  0.0783
 6534TIP3    H141093   2.090   4.958  15.388  0.8746  0.8601 -1.6513
 6534TIP3    H241094   2.100   4.824  15.319 -0.0604 -0.0193 -0.1093
 6535TIP3   OH241095   5.840   2.702  13.236  0.2606 -0.1783  0.2167
 6535TIP3    H141096   5.827   2.782  13.185  1.0874 -0.6856 -0.8101
 6535TIP3    H241097   5.929   2.711  13.271  0.6323 -0.9714 -0.5087
 6536TIP3   OH241098   2.265   3.441   4.842  0.0230 -0.2437  0.2451
 6536TIP3    H141099   2.327   3.491   4.790 -0.0586 -1.0264 -0.6104
 6536TIP3    H241100   2.298   3.448   4.932  1.4374 -0.7890 -0.2182
 6537TIP3   OH241101   6.407   5.158   4.204 -0.0407 -0.1008 -0.5753
 6537TIP3    H141102   6.489   5.119   4.175  0.6991  1.4530 -0.5990
 6537TIP3    H241103   6.376   5.100   4.274  0.7879 -0.9977 -0.9522
 6538TIP3   OH241104   4.201   1.115  16.319 -0.7249 -0.1682  0.1726
 6538TIP3    H141105   4.226   1.191  16.267  1.7388 -0.7027  0.5168
 6538TIP3    H241106   4.281   1.090  16.365 -1.2634 -3.4828 -0.5797
 6539TIP3   OH241107   6.607   1.672  17.126 -0.6253  0.0024 -0.2664
 6539TIP3    H141108   6.622   1.586  17.086 -0.0545 -0.3254  0.6382
 6539TIP3    H241109   6.691   1.696  17.164 -0.9680  0.6512  0.0898
 6540TIP3   OH241110   1.600   0.977  14.852  0.0808 -0.1800  0.7373
 6540TIP3    H141111   1.516   0.930  14.848  0.5634 -0.9410 -0.7214
 6540TIP3    H241112   1.650   0.931  14.919  0.1312 -1.0767  0.0956
 6541TIP3   OH241113   2.200   6.046  15.528  0.0614  0.2034 -0.0105
 6541TIP3    H141114   2.123   6.087  15.489  0.9300  0.3380 -1.6206
 6541TIP3    H241115   2.166   5.993  15.599 -1.5887 -0.2391 -1.1129
 6542TIP3   OH241116   4.027   5.670  16.896 -0.4055  0.2646  0.2504
 6542TIP3    H141117   4.015   5.654  16.990  0.3681  0.5834  0.4062
 6542TIP3    H241118   3.992   5.758  16.882 -1.0168  0.0033  0.1385
 6543TIP3   OH241119   6.214   1.531   2.348  0.2060  0.5333 -0.9241
 6543TIP3    H141120   6.206   1.624   2.367  1.7302  0.5747 -0.4655
 6543TIP3    H241121   6.293   1.503   2.394 -0.0188 -0.9019 -1.3740
 6544TIP3   OH241122   1.484   0.086   6.651 -0.2901  0.7189  0.6143
 6544TIP3    H141123   1.556   0.145   6.671 -0.5367  0.9389  0.8568
 6544TIP3    H241124   1.408   0.125   6.694 -0.1637 -0.5362  2.0032
 6545TIP3   OH241125   0.029   5.495   2.502  0.0330  0.4677  0.4869
 6545TIP3    H141126  -0.059   5.524   2.476 -1.0308 -0.6059  2.7103
 6545TIP3    H241127   0.075   5.481   2.419 -2.6229 -1.1238 -0.7926
 6546TIP3   OH241128   4.839   0.275  16.552  0.5550  0.0825  0.1334
 6546TIP3    H141129   4.834   0.217  16.476 -2.3823 -0.6731  0.8628
 6546TIP3    H241130   4.924   0.255  16.591  1.4559 -0.5818 -2.0981
 6547TIP3   OH241131   4.649   1.018  15.935 -0.0565  0.2622  0.1181
 6547TIP3    H141132   4.737   1.053  15.945  0.4311 -0.8703 -0.1013
 6547TIP3    H241133   4.647   0.941  15.992 -1.3425  1.0509  1.1596
 6548TIP3   OH241134   3.433   1.238  14.187 -0.2177  0.8282 -0.5384
 6548TIP3    H141135   3.477   1.250  14.102  1.9861 -0.8771  0.3209
 6548TIP3    H241136   3.452   1.148  14.211 -2.4969  0.6958  0.8787
 6549TIP3   OH241137   1.024   3.346  15.960 -0.9477  0.3788  0.4387
 6549TIP3    H141138   1.102   3.397  15.939 -1.5006  0.5805 -1.2287
 6549TIP3    H241139   1.041   3.260  15.923 -0.3465 -0.4447  2.5581
 6550TIP3   OH241140   3.910   4.274  13.597 -0.4961  0.2729  0.4859
 6550TIP3    H141141   3.963   4.295  13.673  0.4058  1.8692 -0.5446
 6550TIP3    H241142   3.865   4.356  13.576 -1.2188 -0.3196 -0.3244
 6551TIP3   OH241143   0.953   2.657   0.346  0.2665 -0.5623  0.0523
 6551TIP3    H141144   1.006   2.680   0.422  0.2273  0.6591 -0.2865
 6551TIP3    H241145   1.010   2.673   0.271  0.0736 -1.1104 -0.2111
 6552TIP3   OH241146   4.519   4.612  14.154  0.4506 -0.6189  0.4929
 6552TIP3    H141147   4.582   4.631  14.224  0.5654 -2.0768  0.7931
 6552TIP3    H241148   4.466   4.541  14.189  0.7760 -1.6423 -1.0768
 6553TIP3   OH241149   4.588   2.776   0.106  0.0558  0.0844  0.4192
 6553TIP3    H141150   4.523   2.843   0.084  0.9837  0.7326 -0.4150
 6553TIP3    H241151   4.578   2.763   0.200  0.6861  2.2814  0.8070
 6554TIP3   OH241152   0.462   4.895  14.829 -0.0680  0.7774 -0.4578
 6554TIP3    H141153   0.523   4.847  14.886  0.1935 -0.6830 -1.9105
 6554TIP3    H241154   0.378   4.892  14.876 -0.1729 -1.5635 -0.7006
 6555TIP3   OH241155   2.189   1.283   5.277 -0.2464 -0.4391  0.2241
 6555TIP3    H141156   2.153   1.331   5.201  0.7804  0.8887  0.5696
 6555TIP3    H241157   2.125   1.299   5.347  1.0464  2.0806  0.8921
 6556TIP3   OH241158   1.859   1.658  10.421  0.1113  0.5725  0.5799
 6556TIP3    H141159   1.809   1.732  10.455 -0.4120  0.4865  0.0195
 6556TIP3    H241160   1.798   1.584  10.424 -0.1078  0.6784 -0.9976
 6557TIP3   OH241161   5.154   6.307   5.932  0.5157 -0.0068  0.3629
 6557TIP3    H141162   5.194   6.220   5.935  1.6497  0.4896  0.1268
 6557TIP3    H241163   5.061   6.292   5.947  0.4984 -1.3947 -0.9909
 6558TIP3   OH241164   3.452   5.896   4.691  0.1822  0.5908  0.5467
 6558TIP3    H141165   3.392   5.863   4.757  0.6461 -0.6790  0.3332
 6558TIP3    H241166   3.510   5.823   4.672 -1.0631  0.3665 -2.5857
 6559TIP3   OH241167   4.248   5.394   5.199 -0.5177 -0.8543  0.0181
 6559TIP3    H141168   4.215   5.429   5.282 -1.1654  0.0199 -0.5920
 6559TIP3    H241169   4.335   5.360   5.220 -0.3668  0.0530  0.8951
 6560TIP3   OH241170   4.550   2.014  12.148 -0.8077 -0.3890  0.5997
 6560TIP3    H141171   4.572   2.107  12.162 -2.2711  0.1894 -0.8010
 6560TIP3    H241172   4.633   1.973  12.125 -0.3096  0.7613  0.2907
 6561TIP3   OH241173   2.649   2.449   4.654 -0.4833  0.3938  0.4811
 6561TIP3    H141174   2.727   2.501   4.674 -0.5133  0.1338  1.3086
 6561TIP3    H241175   2.632   2.401   4.735 -1.1629  0.0114  0.1091
 6562TIP3   OH241176   6.159   2.005  12.226  0.0857 -0.6478 -0.3743
 6562TIP3    H141177   6.233   1.946  12.211  2.0282  1.4742  0.5022
 6562TIP3    H241178   6.152   2.055  12.144 -0.7279 -1.1766 -0.6370
 6563TIP3   OH241179   5.638   2.664  17.082  0.1649  0.2817  0.1514
 6563TIP3    H141180   5.594   2.580  17.073 -4.1030  2.3183  0.4441
 6563TIP3    H241181   5.677   2.663  17.169  1.5499 -1.9504 -0.4749
 6564TIP3   OH241182   3.347   0.607  15.989 -0.4409  0.5387  0.1188
 6564TIP3    H141183   3.257   0.638  15.992 -0.2736  0.9705  0.7412
 6564TIP3    H241184   3.382   0.642  15.907 -0.8733  0.2630 -0.1851
 6565TIP3   OH241185   5.617   0.547   3.790 -0.1284  0.2046  0.0661
 6565TIP3    H141186   5.530   0.587   3.792 -0.1732  0.1306 -0.4376
 6565TIP3    H241187   5.670   0.605   3.843 -0.4482  0.3438  0.2374
 6566TIP3   OH241188   5.859   2.024   0.739 -0.1484 -0.1400  0.3526
 6566TIP3    H141189   5.917   1.950   0.753 -2.6041 -2.3496 -0.6885
 6566TIP3    H241190   5.917   2.100   0.736  2.7040 -2.2674 -0.9422
 6567TIP3   OH241191   5.939   5.127  15.984  0.7465  0.1125  0.8955
 6567TIP3    H141192   5.868   5.174  16.029  1.3860  0.4289  1.5874
 6567TIP3    H241193   6.004   5.194  15.966  0.3739  0.0432 -0.7892
 6568TIP3   OH241194   4.201   6.156   1.661 -0.4323  0.6866 -0.0269
 6568TIP3    H141195   4.196   6.100   1.584 -0.9223  1.0218 -0.2485
 6568TIP3    H241196   4.187   6.098   1.736  3.3859 -0.2169  0.0623
 6569TIP3   OH241197   3.894   5.932   4.742  0.1338  0.4796 -0.1082
 6569TIP3    H141198   3.959   5.965   4.680 -1.5176  0.9579 -1.5889
 6569TIP3    H241199   3.861   6.010   4.786  0.2737  0.2620  0.3992
 6570TIP3   OH241200   0.728   2.392   1.925 -0.9935  0.1364 -0.4593
 6570TIP3    H141201   0.678   2.470   1.948 -0.0913  0.5078  0.2690
 6570TIP3    H241202   0.818   2.413   1.947 -0.4109 -0.3298 -2.2346
 6571TIP3   OH241203   0.607   0.667  15.453  0.5349  0.2763 -0.5224
 6571TIP3    H141204   0.689   0.656  15.502  1.1209  1.6465 -1.1746
 6571TIP3    H241205   0.628   0.637  15.364 -0.8616 -3.3802  0.3028
 6572TIP3   OH241206   0.668   0.157  15.519 -0.3719 -0.2759  0.0723
 6572TIP3    H141207   0.722   0.229  15.550  1.4231 -2.2322  1.6305
 6572TIP3    H241208   0.615   0.195  15.448  0.3824  2.5709  0.9830
 6573TIP3   OH241209   1.016   3.401  11.214  0.0591 -0.5705 -0.0881
 6573TIP3    H141210   1.020   3.317  11.167  1.0381 -1.2483  1.1812
 6573TIP3    H241211   0.975   3.461  11.152  0.7192 -1.6125 -1.5647
 6574TIP3   OH241212   6.499   5.379  15.600  0.1901 -0.4145 -0.8197
 6574TIP3    H141213   6.430   5.336  15.652 -0.2967  0.5050 -0.6872
 6574TIP3    H241214   6.462   5.465  15.579  0.6762 -0.5201 -2.1023
 6575TIP3   OH241215   4.864   2.848   1.304 -0.0963  0.0663 -0.5479
 6575TIP3    H141216   4.778   2.844   1.346  0.4647 -0.4424  0.5856
 6575TIP3    H241217   4.856   2.915   1.237 -1.7362 -0.8279 -1.2542
 6576TIP3   OH241218   3.310   4.968   5.150 -0.1982 -0.1173 -0.2708
 6576TIP3    H141219   3.290   4.913   5.226 -1.2880  0.6284 -0.0135
 6576TIP3    H241220   3.226   5.004   5.123  0.7512  2.9792  0.7482
 6577TIP3   OH241221   2.314   1.059   3.814 -0.4151 -0.2860  0.7114
 6577TIP3    H141222   2.281   1.089   3.899 -1.1966  1.1487 -0.0872
 6577TIP3    H241223   2.409   1.050   3.828 -0.6161 -0.6639  1.9049
 6578TIP3   OH241224   6.637   4.326   0.687  0.2735 -0.1287  0.6228
 6578TIP3    H141225   6.675   4.330   0.775  1.0840  0.5823  0.2453
 6578TIP3    H241226   6.699   4.272   0.638 -0.2519 -0.6405  0.5143
 6579TIP3   OH241227   0.989   0.761  15.351  0.5450  0.7398 -0.0259
 6579TIP3    H141228   0.950   0.707  15.420  0.1310  2.7738  1.3676
 6579TIP3    H241229   0.931   0.748  15.275 -0.2558  0.1983  0.6646
 6580TIP3   OH241230   5.180   6.492   2.757  0.3673  0.8291 -0.1812
 6580TIP3    H141231   5.161   6.586   2.756  0.3567  0.9861  4.9212
 6580TIP3    H241232   5.274   6.487   2.772  0.2934 -0.0224 -0.0063
 6581TIP3   OH241233   5.492   0.944   5.199 -0.3571 -0.6430 -0.1274
 6581TIP3    H141234   5.440   1.023   5.213  0.8192  0.0854  0.2276
 6581TIP3    H241235   5.436   0.887   5.147 -0.8743  0.7992 -1.1946
 6582TIP3   OH241236   3.408   2.734   0.704 -0.3618 -0.1117 -0.5374
 6582TIP3    H141237   3.430   2.641   0.700 -2.8887 -0.7132 -2.3353
 6582TIP3    H241238   3.325   2.737   0.751 -1.4699  0.9571 -2.4805
 6583TIP3   OH241239   1.798   4.400  16.747 -0.3289  0.3852  0.1930
 6583TIP3    H141240   1.871   4.339  16.737  0.2973  1.2559 -0.7097
 6583TIP3    H241241   1.766   4.386  16.836  0.4044 -0.5986  0.3018
 6584TIP3   OH241242   0.929   2.357   2.723  0.2136 -0.0104 -0.3291
 6584TIP3    H141243   0.857   2.349   2.786  0.8242  1.5941  0.6119
 6584TIP3    H241244   0.894   2.320   2.642 -1.5998  0.5246  0.1737
 6585TIP3   OH241245   0.073   6.110   3.391  0.7001 -0.4513 -0.2909
 6585TIP3    H141246  -0.008   6.156   3.370  0.1052 -1.3961 -0.0930
 6585TIP3    H241247   0.066   6.027   3.343  0.3044 -1.7188  1.9056
 6586TIP3   OH241248   0.145   2.369  15.519 -0.6676 -0.6738  0.5853
 6586TIP3    H141249   0.228   2.393  15.480 -0.2113 -3.7387 -0.4290
 6586TIP3    H241250   0.101   2.453  15.535  0.8469  0.8199 -2.6629
 6587TIP3   OH241251   6.171   0.203   2.573  0.0033 -0.4508  0.9838
 6587TIP3    H141252   6.083   0.236   2.591  0.8219  1.5867  1.3625
 6587TIP3    H241253   6.229   0.275   2.598  1.7835 -1.7792  0.7615
 6588TIP3   OH241254   5.082   6.606   5.612  0.1381  0.6816 -0.0835
 6588TIP3    H141255   5.078   6.596   5.707  1.7687  1.4565  0.0807
 6588TIP3    H241256   5.010   6.665   5.591 -0.2043  0.5443  0.6567
 6589TIP3   OH241257   5.713   4.721   1.771 -0.7427  0.3122  0.3813
 6589TIP3    H141258   5.661   4.789   1.813  0.5290  2.3177 -1.2048
 6589TIP3    H241259   5.767   4.685   1.841 -2.1951  0.1902  1.4539
 6590TIP3   OH241260   0.124   1.962   3.488  0.3183 -0.3724 -0.1339
 6590TIP3    H141261   0.175   2.042   3.501  0.8960 -0.6685 -0.5718
 6590TIP3    H241262   0.121   1.951   3.393 -1.0369 -0.0537 -0.1369
 6591TIP3   OH241263   2.959   3.248   2.442 -0.1430  0.4976  0.1213
 6591TIP3    H141264   2.991   3.200   2.365 -0.7117 -0.4429  0.4626
 6591TIP3    H241265   2.866   3.262   2.424 -0.4541 -0.4240  0.9829
 6592TIP3   OH241266   4.058   5.706  14.436  0.0314  0.2792  0.0299
 6592TIP3    H141267   4.088   5.796  14.423  1.0768  0.1568  1.5363
 6592TIP3    H241268   4.082   5.662  14.355  1.4573  0.8556  0.1192
 6593TIP3   OH241269   1.160   6.379   3.685 -0.1670  0.8076 -0.1843
 6593TIP3    H141270   1.216   6.435   3.739 -1.9329  0.4429  2.1484
 6593TIP3    H241271   1.187   6.290   3.707  0.2034  0.6776 -1.1537
 6594TIP3   OH241272   1.672   3.238   0.668 -0.0688  0.1066  0.5114
 6594TIP3    H141273   1.737   3.225   0.738 -0.3815  0.1340  0.8101
 6594TIP3    H241274   1.618   3.159   0.670  2.0831 -1.5131 -2.0603
 6595TIP3   OH241275   5.889   3.539   1.690 -0.2618  0.0902 -0.1856
 6595TIP3    H141276   5.920   3.624   1.720  0.9731 -0.5711  0.4304
 6595TIP3    H241277   5.944   3.518   1.614 -0.1592 -0.4248  0.0284
 6596TIP3   OH241278   3.105   2.884  16.530 -0.0387 -0.5449 -0.5294
 6596TIP3    H141279   3.062   2.937  16.463 -2.9183 -0.1523  1.5441
 6596TIP3    H241280   3.118   2.944  16.603 -0.1033 -1.8281  0.5442
 6597TIP3   OH241281   2.550   5.229  12.538  0.0315 -0.2554  0.4520
 6597TIP3    H141282   2.483   5.241  12.470  1.7798 -0.6797 -1.3778
 6597TIP3    H241283   2.526   5.292  12.606 -2.1425 -0.2982 -0.2274
 6598TIP3   OH241284   5.451   4.980  10.828  0.1597  0.4575  0.2478
 6598TIP3    H141285   5.359   4.969  10.855  0.1248  0.1482  0.0051
 6598TIP3    H241286   5.478   4.892  10.801  0.2863  0.7098 -0.4405
 6599TIP3   OH241287   6.306   4.875  11.778  0.0369  0.2607  0.6649
 6599TIP3    H141288   6.315   4.823  11.698  0.9595 -0.7811  1.4247
 6599TIP3    H241289   6.221   4.851  11.814  0.4748 -0.7870  1.0328
 6600TIP3   OH241290   2.831   2.500  16.963 -0.7705 -0.1242 -0.3386
 6600TIP3    H141291   2.813   2.406  16.959 -1.4195 -0.0616  0.9495
 6600TIP3    H241292   2.752   2.541  16.925 -1.5435 -0.0103  1.3761
 6601TIP3   OH241293   3.312   5.518  10.683  0.1514 -0.7111 -0.1284
 6601TIP3    H141294   3.277   5.466  10.611 -2.1493  1.0497 -0.3271
 6601TIP3    H241295   3.348   5.596  10.641  2.4584 -1.4851  0.2953
 6602TIP3   OH241296   3.110   5.738   5.050  0.0496  0.2750 -0.2793
 6602TIP3    H141297   3.115   5.726   4.955  1.0314 -0.5589 -0.1395
 6602TIP3    H241298   3.023   5.704   5.074  0.1210 -0.2762 -0.7809
 6603TIP3   OH241299   1.187   2.771   2.059  0.5525 -0.5173 -0.0324
 6603TIP3    H141300   1.166   2.832   1.989  0.6509  0.9271  1.1618
 6603TIP3    H241301   1.274   2.799   2.089 -0.2039 -0.0236  1.7808
 6604TIP3   OH241302   4.890   5.023   2.143  0.4545 -0.0224 -0.3668
 6604TIP3    H141303   4.960   5.082   2.114 -0.4560  0.9153 -0.6843
 6604TIP3    H241304   4.911   4.939   2.102  2.2386 -0.1585  0.7841
 6605TIP3   OH241305   0.304   3.416   2.301  0.6742  0.2306 -0.2356
 6605TIP3    H141306   0.294   3.343   2.363  0.1907  0.4060 -0.1040
 6605TIP3    H241307   0.218   3.459   2.301  0.2638 -0.5289 -1.9713
 6606TIP3   OH241308   4.853   4.315   0.020  0.2479 -0.0947 -0.2549
 6606TIP3    H141309   4.895   4.364   0.091  1.6103 -0.0937 -1.0395
 6606TIP3    H241310   4.817   4.383  -0.037 -0.9642 -0.0988  0.4978
 6607TIP3   OH241311   6.026   5.572   5.948 -0.3059  0.0000  0.3287
 6607TIP3    H141312   6.042   5.481   5.920 -1.3894  0.2326 -1.0859
 6607TIP3    H241313   6.039   5.570   6.043  0.5840 -1.4413  0.1947
 6608TIP3   OH241314   6.362   0.210  12.249  0.2429  0.2612 -0.5415
 6608TIP3    H141315   6.426   0.139  12.245  0.1871  0.2052 -0.4338
 6608TIP3    H241316   6.339   0.217  12.341  0.5581  0.6936 -0.4892
 6609TIP3   OH241317   1.896   6.402   2.180 -0.2226 -0.4775  0.5344
 6609TIP3    H141318   1.827   6.394   2.115  0.5358 -0.9753 -0.2215
 6609TIP3    H241319   1.911   6.312   2.210 -0.2136 -0.3150  1.0319
 6610TIP3   OH241320   5.785   1.854  15.882  0.5708 -0.3928  0.7179
 6610TIP3    H141321   5.867   1.901  15.866 -0.6728  2.2714  1.8884
 6610TIP3    H241322   5.738   1.860  15.799  0.3531  0.5959  0.9050
 6611TIP3   OH241323   3.428   4.039   2.309 -0.3921 -0.2141 -0.5991
 6611TIP3    H141324   3.435   3.964   2.250  1.3466  0.1713 -0.9084
 6611TIP3    H241325   3.382   4.005   2.386 -2.4080 -0.8035 -2.0087
 6612TIP3   OH241326   3.504   5.521   2.266  0.8867  0.2300 -0.4408
 6612TIP3    H141327   3.598   5.516   2.250  1.1344  0.0296  1.0194
 6612TIP3    H241328   3.473   5.593   2.211  1.7766 -0.1294 -1.4221
 6613TIP3   OH241329   4.420   4.056  17.067 -0.2512 -0.0458  0.5504
 6613TIP3    H141330   4.429   4.147  17.039  0.0866 -0.0956  0.5050
 6613TIP3    H241331   4.509   4.025  17.079 -0.2806 -1.0875 -1.7135
 6614TIP3   OH241332   2.552   1.616  14.453  0.1705  0.9870  0.2120
 6614TIP3    H141333   2.523   1.696  14.496 -0.2685  1.0054 -0.1055
 6614TIP3    H241334   2.612   1.575  14.514  1.2041  2.0890 -0.0581
 6615TIP3   OH241335   3.436   4.694   3.146 -0.2265 -0.0945  0.0772
 6615TIP3    H141336   3.509   4.683   3.086 -0.1853  0.4137  0.0316
 6615TIP3    H241337   3.406   4.605   3.164  0.7224 -0.3436  0.4867
 6616TIP3   OH241338   6.403   6.180   6.361 -0.6547 -0.3266 -0.0699
 6616TIP3    H141339   6.403   6.137   6.447 -0.6666  2.6679  1.5003
 6616TIP3    H241340   6.354   6.261   6.375 -0.3960  0.3651 -2.8590
 6617TIP3   OH241341   3.807   2.687   5.368 -0.4194 -0.3256 -0.0351
 6617TIP3    H141342   3.812   2.699   5.273  0.8126 -0.5212 -0.0092
 6617TIP3    H241343   3.804   2.592   5.379  0.2529 -0.3250  0.1530
 6618TIP3   OH241344   3.407   1.738   4.995 -0.4165 -0.1093  0.0822
 6618TIP3    H141345   3.369   1.748   4.908 -1.3408 -1.5258  0.3122
 6618TIP3    H241346   3.501   1.742   4.981 -0.5568 -0.6346 -1.0261
 6619TIP3   OH241347   5.287   0.936   3.195 -0.3843  0.2333 -0.4211
 6619TIP3    H141348   5.358   0.950   3.133 -2.4938  1.9541 -2.5337
 6619TIP3    H241349   5.246   1.022   3.205  0.7523  0.3699  4.5025
 6620TIP3   OH241350   6.359   3.145   2.960 -0.1327  0.1067 -0.0094
 6620TIP3    H141351   6.388   3.175   2.874  0.4522  0.3251  0.2629
 6620TIP3    H241352   6.270   3.179   2.968 -0.9201 -1.5375 -1.3284
 6621TIP3   OH241353   0.724   6.752   4.301 -0.5776  0.3561 -0.1508
 6621TIP3    H141354   0.725   6.723   4.210 -1.4630  0.5419 -0.2221
 6621TIP3    H241355   0.668   6.829   4.301 -1.7403 -0.4853  0.7977
 6622TIP3   OH241356   6.195   1.413   0.475 -0.4225 -0.3975 -0.3869
 6622TIP3    H141357   6.155   1.426   0.389  0.1803 -2.9193 -1.1090
 6622TIP3    H241358   6.201   1.500   0.513 -2.7097  0.5095 -2.0049
 6623TIP3   OH241359   4.110   1.424  14.660  0.7178  0.5188  0.4953
 6623TIP3    H141360   4.114   1.342  14.709  0.6871  1.3175  1.8471
 6623TIP3    H241361   4.195   1.464  14.673  0.8945  0.5014 -0.5469
 6624TIP3   OH241362   1.272   6.352  16.843  0.0482  0.2036  0.2149
 6624TIP3    H141363   1.209   6.391  16.904  0.0483 -0.8503  0.9050
 6624TIP3    H241364   1.228   6.272  16.812  0.9517 -0.4149  0.5273
 6625TIP3   OH241365   4.253   4.098  15.949 -0.8383  0.0450 -0.4427
 6625TIP3    H141366   4.256   4.158  15.875  0.9404  0.1154 -0.3241
 6625TIP3    H241367   4.304   4.141  16.018  0.9153 -1.7996 -0.5232
 6626TIP3   OH241368   0.775   6.664   4.036  0.5334  0.4141  0.2381
 6626TIP3    H141369   0.735   6.581   4.009 -1.3450  1.1263  0.7294
 6626TIP3    H241370   0.859   6.667   3.989  0.0819 -1.2018 -0.7142
 6627TIP3   OH241371   4.559   6.094   2.312 -0.4804 -0.2644 -0.7992
 6627TIP3    H141372   4.600   6.011   2.289  3.6918  1.4216  0.0427
 6627TIP3    H241373   4.575   6.151   2.236  0.5116  1.0107  0.3387
 6628TIP3   OH241374   4.875   1.524  11.271 -0.2447  0.2907 -0.1860
 6628TIP3    H141375   4.951   1.536  11.328  1.0374  0.9192 -1.9821
 6628TIP3    H241376   4.801   1.557  11.322  0.8853  0.9105  1.0749
 6629TIP3   OH241377   3.267   5.921   1.134  0.0834  0.6033 -0.7771
 6629TIP3    H141378   3.274   5.990   1.200  1.2162 -1.9620  1.9074
 6629TIP3    H241379   3.172   5.908   1.124 -0.1296 -0.2134  1.7740
 6630TIP3   OH241380   4.801   0.892   6.318 -0.0631  0.1374  0.1036
 6630TIP3    H141381   4.711   0.916   6.295 -0.1058 -0.3666 -0.2522
 6630TIP3    H241382   4.792   0.824   6.385  0.0577  0.5089  0.4998
 6631TIP3   OH241383   6.288   6.057   3.089 -0.2458  0.4937  0.3364
 6631TIP3    H141384   6.239   6.018   3.017  0.6743 -1.6932  0.8750
 6631TIP3    H241385   6.233   6.044   3.166  0.4823 -0.5964  0.6785
 6632TIP3   OH241386   1.360   2.253   3.101 -0.3908 -0.7751  0.2391
 6632TIP3    H141387   1.405   2.220   3.179  0.0489 -3.1386 -0.9738
 6632TIP3    H241388   1.409   2.332   3.077  0.3715 -0.8513  1.5056
 6633TIP3   OH241389   4.592   1.003  16.242 -0.0442 -0.8761  0.3391
 6633TIP3    H141390   4.536   1.044  16.308  0.9808  1.6758 -0.3062
 6633TIP3    H241391   4.550   1.025  16.159  2.8576  2.8012 -0.2886
 6634TIP3   OH241392   0.758   4.665   3.740  0.0204  0.5958  0.1161
 6634TIP3    H141393   0.743   4.571   3.742  0.0747  0.5963  1.1914
 6634TIP3    H241394   0.745   4.690   3.649  0.4594 -0.5223 -0.2615
 6635TIP3   OH241395   3.199   6.519  13.279 -0.3439  0.1519 -0.2354
 6635TIP3    H141396   3.294   6.536  13.281 -0.4427  0.9065 -1.3097
 6635TIP3    H241397   3.186   6.471  13.197 -0.8895  0.0463 -0.0849
 6636TIP3   OH241398   2.594   0.513   0.058 -0.1173 -0.8139  0.3649
 6636TIP3    H141399   2.544   0.582   0.102 -1.7964 -1.2243 -0.8327
 6636TIP3    H241400   2.660   0.559   0.006  0.3151 -0.2255  1.4248
 6637TIP3   OH241401   2.532   6.351   4.056 -0.0946  0.6702  0.0363
 6637TIP3    H141402   2.487   6.321   4.134  1.4393 -0.7980  0.3929
 6637TIP3    H241403   2.625   6.339   4.076  0.3151  0.0865 -2.0773
 6638TIP3   OH241404   6.092   1.400  15.323  0.3350 -0.3506  0.4622
 6638TIP3    H141405   6.182   1.387  15.354  0.4165  1.8029  1.2456
 6638TIP3    H241406   6.068   1.486  15.357 -1.3497 -0.0769 -1.3458
 6639TIP3   OH241407   5.817   4.331   6.777  0.0568 -0.6259  0.6235
 6639TIP3    H141408   5.740   4.334   6.833 -1.0911 -0.8719 -0.8935
 6639TIP3    H241409   5.797   4.264   6.712  1.2308 -0.1569 -0.2546
 6640TIP3   OH241410   1.261   6.782   6.978  0.3070  0.1716  1.0391
 6640TIP3    H141411   1.281   6.863   6.930  0.0279 -0.3192  0.0747
 6640TIP3    H241412   1.334   6.724   6.956 -1.4270 -1.1550 -1.3756
 6641TIP3   OH241413   6.465   0.847   4.036 -0.3150 -0.3832  0.0637
 6641TIP3    H141414   6.446   0.910   3.966 -2.1521 -0.8202  0.1565
 6641TIP3    H241415   6.509   0.900   4.103  2.7607 -0.2304 -1.9468
 6642TIP3   OH241416   4.874   0.977  15.449  0.4589  0.2325  0.0450
 6642TIP3    H141417   4.927   0.970  15.528 -2.2934 -0.7621  1.8617
 6642TIP3    H241418   4.886   0.894  15.403  2.3992  0.9785 -0.8513
 6643TIP3   OH241419   6.338   5.310  11.963 -0.2730  0.0809  0.3962
 6643TIP3    H141420   6.420   5.321  11.915 -0.8488  0.6056 -0.4747
 6643TIP3    H241421   6.313   5.398  11.988 -1.6551  0.1494 -1.1678
 6644TIP3   OH241422   5.483   3.370   6.644 -0.6336 -0.1577  0.4396
 6644TIP3    H141423   5.570   3.386   6.608 -1.5093  0.1671 -1.6119
 6644TIP3    H241424   5.483   3.277   6.669 -0.2850 -0.6056 -1.2190
 6645TIP3   OH241425   4.078   5.219   2.489  0.2105 -0.1895 -0.0716
 6645TIP3    H141426   3.984   5.235   2.476 -0.1223 -1.1668  1.0785
 6645TIP3    H241427   4.083   5.127   2.516  1.5270 -0.2031 -0.3381
 6646TIP3   OH241428   2.272   2.336   1.943  0.3047 -0.1936  0.2347
 6646TIP3    H141429   2.300   2.289   2.022 -2.1156 -0.3873  0.9996
 6646TIP3    H241430   2.191   2.380   1.968  0.6231  1.4799 -1.5420
 6647TIP3   OH241431   4.074   2.059   2.296 -0.1950  0.3486 -0.1457
 6647TIP3    H141432   4.072   1.994   2.367 -2.6545 -1.3387 -1.6962
 6647TIP3    H241433   4.164   2.056   2.264  0.9218  0.9799  2.7040
 6648TIP3   OH241434   5.474   4.326   0.016  0.3704  0.4405 -0.0530
 6648TIP3    H141435   5.444   4.297  -0.071  2.6654 -0.0626 -0.6985
 6648TIP3    H241436   5.436   4.414   0.026  0.7060  0.8209 -1.9081
 6649TIP3   OH241437   1.690   6.290   5.809 -0.0504 -0.2648  0.1823
 6649TIP3    H141438   1.595   6.292   5.819 -0.2268 -0.9316 -1.2221
 6649TIP3    H241439   1.710   6.369   5.758  0.1403 -0.2200  0.3246
 6650TIP3   OH241440   1.166   2.138   5.376  0.2758  0.1842  0.0103
 6650TIP3    H141441   1.239   2.164   5.321  2.4421 -0.4276  2.5087
 6650TIP3    H241442   1.131   2.060   5.335  1.8880 -0.2915 -0.4741
 6651TIP3   OH241443   1.695   5.760  11.306 -0.0845 -0.1500 -0.4783
 6651TIP3    H141444   1.649   5.685  11.345  1.1236 -0.8400 -0.3375
 6651TIP3    H241445   1.694   5.827  11.374  2.5357 -1.5609  1.0424
 6652TIP3   OH241446   2.794   3.268   4.735 -0.6156 -0.1058 -0.7944
 6652TIP3    H141447   2.857   3.242   4.803 -0.6991 -1.5145 -1.2527
 6652TIP3    H241448   2.843   3.329   4.680  0.2150 -0.8262 -0.8663
 6653TIP3   OH241449   5.720   0.368  13.442 -0.0429  0.2745 -0.5018
 6653TIP3    H141450   5.689   0.444  13.394 -2.0826  0.5118  1.1065
 6653TIP3    H241451   5.805   0.395  13.479  0.1094  1.1107 -1.4506
 6654TIP3   OH241452   6.698   6.296  14.630  0.4274 -0.4206  0.2418
 6654TIP3    H141453   6.692   6.390  14.651  3.7280 -0.3839  1.3344
 6654TIP3    H241454   6.699   6.253  14.716 -3.5368 -1.7042 -0.2802
 6655TIP3   OH241455   5.340   1.974  11.156  0.3336  0.5967  0.1880
 6655TIP3    H141456   5.341   1.982  11.251  0.4166  1.0849  0.1430
 6655TIP3    H241457   5.247   1.972  11.133  0.2988  2.6152  0.0911
 6656TIP3   OH241458   3.508   6.619   2.787  0.2208  0.3256 -0.0624
 6656TIP3    H141459   3.588   6.658   2.750  0.3832 -0.0764 -0.1390
 6656TIP3    H241460   3.448   6.616   2.713 -0.2615  1.6771  0.2613
 6657TIP3   OH241461   4.265   1.444   3.701  0.3691 -0.0347  0.2904
 6657TIP3    H141462   4.242   1.523   3.750  0.8103  0.4164 -0.2243
 6657TIP3    H241463   4.210   1.376   3.739  0.1394  0.4747  0.8841
 6658TIP3   OH241464   4.978   5.818   5.660  0.2500 -0.1890 -0.3644
 6658TIP3    H141465   4.917   5.872   5.711  1.0134  0.0077  0.3492
 6658TIP3    H241466   4.988   5.738   5.711 -0.4415 -0.7790 -1.1469
 6659TIP3   OH241467   6.153   4.932   4.071  0.1079  0.7295 -0.4745
 6659TIP3    H141468   6.084   4.866   4.065 -1.4156  2.2383  0.0485
 6659TIP3    H241469   6.177   4.933   4.164 -0.4726  1.4993 -0.3298
 6660TIP3   OH241470   6.281   5.534   3.106  0.0303  0.1104 -0.1273
 6660TIP3    H141471   6.253   5.446   3.132 -1.6104  0.7227  0.1861
 6660TIP3    H241472   6.377   5.529   3.105 -0.0133 -1.2984  1.2026
 6661TIP3   OH241473   2.593   5.754   2.203  0.4150  0.0228 -0.6814
 6661TIP3    H141474   2.581   5.660   2.216  0.7764  0.2623  1.6191
 6661TIP3    H241475   2.650   5.761   2.127  0.0215 -1.6002 -1.1363
 6662TIP3   OH241476   1.909   2.262   4.931 -0.0298  0.3712 -1.1082
 6662TIP3    H141477   1.875   2.332   4.987 -1.4942  0.2498 -1.8288
 6662TIP3    H241478   2.000   2.251   4.959 -0.4460  1.0151  0.5392
 6663TIP3   OH241479   5.721   0.089   2.175 -0.0271 -0.0524  0.3230
 6663TIP3    H141480   5.789   0.148   2.142 -0.5204  0.1560 -0.3412
 6663TIP3    H241481   5.698   0.124   2.261 -0.9691  1.2928 -0.4501
 6664TIP3   OH241482   4.214   1.337  11.884  0.2051  0.2110  0.0585
 6664TIP3    H141483   4.181   1.423  11.859 -0.5455 -0.1790 -0.3186
 6664TIP3    H241484   4.156   1.275  11.840  0.6958 -0.4889  0.3781
 6665TIP3   OH241485   1.115   5.665  13.270  0.3754  0.7422  0.2660
 6665TIP3    H141486   1.114   5.759  13.291 -0.3614  0.8720 -0.3257
 6665TIP3    H241487   1.128   5.662  13.175  1.3583  0.2170  0.4099
 6666TIP3   OH241488   2.442   6.679   0.934 -0.0167  0.1941  0.1281
 6666TIP3    H141489   2.508   6.634   0.881  0.9147 -0.9668  2.2191
 6666TIP3    H241490   2.490   6.746   0.982 -0.6288  0.3949  0.4707
 6667TIP3   OH241491   4.196   0.704  11.684  0.2891 -0.8964  0.5473
 6667TIP3    H141492   4.290   0.699  11.700  0.4720 -1.8925 -0.7751
 6667TIP3    H241493   4.164   0.768  11.748  2.0429  0.3137  0.2485
 6668TIP3   OH241494   4.569   2.046  10.896  0.2711  0.5979  0.2355
 6668TIP3    H141495   4.560   2.107  10.969 -0.4884 -0.1417  0.7693
 6668TIP3    H241496   4.590   2.101  10.821 -4.0590  2.0220 -0.1016
 6669TIP3   OH241497   5.716   3.512   2.749  0.0490  0.1412 -0.1772
 6669TIP3    H141498   5.670   3.484   2.828 -2.0045  2.0564 -0.6491
 6669TIP3    H241499   5.666   3.474   2.677  2.6024 -2.6000 -0.5846
 6670TIP3   OH241500   3.797   0.808   0.760  0.2415  0.1920  0.0597
 6670TIP3    H141501   3.772   0.783   0.849  0.0201 -0.4650 -0.1855
 6670TIP3    H241502   3.879   0.762   0.745 -0.8418 -1.4850 -0.8796
 6671TIP3   OH241503   4.573   5.167  15.848 -0.0373 -0.0867  0.1365
 6671TIP3    H141504   4.559   5.082  15.890  0.6697 -0.6017 -0.6468
 6671TIP3    H241505   4.533   5.230  15.907 -0.8042 -0.9938  0.5959
 6672TIP3   OH241506   6.270   1.838  15.474  0.1962  0.4856 -0.1327
 6672TIP3    H141507   6.223   1.917  15.502 -2.4780 -1.4436  1.0012
 6672TIP3    H241508   6.282   1.787  15.554  0.5194 -0.9545 -1.0849
 6673TIP3   OH241509   1.813   4.927   1.847 -0.6551 -0.5529 -0.0724
 6673TIP3    H141510   1.909   4.929   1.846 -0.6713 -0.0085 -0.7552
 6673TIP3    H241511   1.790   4.960   1.934 -0.2190 -0.7894  0.1336
 6674TIP3   OH241512   0.913   3.726   1.075  0.0576  0.0624  0.1879
 6674TIP3    H141513   0.922   3.636   1.107 -0.4893  0.4335  1.3832
 6674TIP3    H241514   0.848   3.766   1.132  0.0348  1.1247 -0.5624
 6675TIP3   OH241515   4.379   3.160   5.019 -0.5334 -0.0870  0.3901
 6675TIP3    H141516   4.327   3.083   5.041 -1.1651  0.3792  0.5552
 6675TIP3    H241517   4.396   3.152   4.925 -1.1591 -0.0931  0.2745
 6676TIP3   OH241518   1.374   1.018  13.948  0.4322  0.2030  0.0186
 6676TIP3    H141519   1.438   0.954  13.916  1.0012  0.6283  0.2907
 6676TIP3    H241520   1.428   1.087  13.986 -0.2417 -0.7629  2.8078
 6677TIP3   OH241521   0.544   4.484  14.902 -0.1235 -0.2555  0.1669
 6677TIP3    H141522   0.451   4.479  14.926 -0.5055  0.2486 -1.1495
 6677TIP3    H241523   0.579   4.398  14.923 -0.4306  0.1733  2.5187
 6678TIP3   OH241524   0.516   1.400  11.984 -0.1286 -0.1212  0.6016
 6678TIP3    H141525   0.472   1.348  12.051  0.5098  0.3399  1.3910
 6678TIP3    H241526   0.444   1.435  11.931 -0.6495 -0.4092  1.1038
 6679TIP3   OH241527   2.535   5.136   2.437 -0.4132  0.3002  0.9006
 6679TIP3    H141528   2.473   5.113   2.368  0.2211  1.3682 -0.0389
 6679TIP3    H241529   2.604   5.185   2.392  0.7784 -0.3003  2.0361
 6680TIP3   OH241530   4.452   5.601   2.571  0.3927  0.4932  0.9338
 6680TIP3    H141531   4.516   5.537   2.604  0.6972  0.0264 -0.5075
 6680TIP3    H241532   4.367   5.559   2.587  0.6414 -1.0434 -1.4532
 6681TIP3   OH241533   1.794   3.133   0.886  0.1372 -0.2659 -0.5813
 6681TIP3    H141534   1.753   3.087   0.959 -0.2631  0.1160 -0.5614
 6681TIP3    H241535   1.888   3.124   0.901  0.0670  0.6293  0.5039
 6682TIP3   OH241536   2.569   4.290  13.520 -0.2349  0.5003 -0.1158
 6682TIP3    H141537   2.596   4.350  13.450 -2.7612 -0.2801 -1.8020
 6682TIP3    H241538   2.489   4.329  13.556 -0.2776 -0.3635  0.7391
 6683TIP3   OH241539   0.160   2.491  11.845 -0.4528  0.1238 -0.6339
 6683TIP3    H141540   0.172   2.584  11.831 -2.1364  0.3368 -0.7014
 6683TIP3    H241541   0.140   2.455  11.759  2.1372 -0.6314 -0.9583
 6684TIP3   OH241542   3.370   1.808  11.470 -0.3819  0.0424  0.3112
 6684TIP3    H141543   3.403   1.861  11.543  1.7759 -2.4696  1.2156
 6684TIP3    H241544   3.437   1.817  11.402  1.0079 -3.1129  1.2238
 6685TIP3   OH241545   4.071   3.922   3.172 -0.2213  0.4965  0.6535
 6685TIP3    H141546   3.984   3.932   3.134  0.3034 -1.3608 -1.1321
 6685TIP3    H241547   4.124   3.989   3.128 -0.3475  0.4038  0.3553
 6686TIP3   OH241548   2.616   2.093  12.410  0.1306  0.1270 -0.4743
 6686TIP3    H141549   2.706   2.094  12.377 -0.3272  2.4464 -1.7762
 6686TIP3    H241550   2.580   2.011  12.375  1.1935  0.0678 -1.5002
 6687TIP3   OH241551   3.710   0.742  15.022 -0.0762  0.1030  0.4673
 6687TIP3    H141552   3.684   0.826  15.060  0.8219  0.5026  0.2144
 6687TIP3    H241553   3.635   0.684  15.037 -0.1677  0.5611  1.8867
 6688TIP3   OH241554   2.556   1.854  11.441  0.2867  0.7306 -0.5070
 6688TIP3    H141555   2.651   1.848  11.434  0.1237 -1.0442 -1.2794
 6688TIP3    H241556   2.522   1.787  11.381 -1.4661  2.0151 -1.0127
 6689TIP3   OH241557   3.405   0.811  11.962 -0.3618 -0.7466  0.4924
 6689TIP3    H141558   3.325   0.861  11.943 -0.5989 -0.4004  2.3148
 6689TIP3    H241559   3.472   0.878  11.977 -0.0484 -1.0191  0.3209
 6690TIP3   OH241560   0.506   4.540  11.412  0.1709  0.2796  0.4317
 6690TIP3    H141561   0.568   4.470  11.434 -0.3231 -1.2627 -2.6750
 6690TIP3    H241562   0.422   4.508  11.443  0.0066 -0.3751 -0.6516
 6691TIP3   OH241563   4.132   5.954  14.440  0.3747  0.4196  0.1912
 6691TIP3    H141564   4.121   6.008  14.362  0.8557  1.0285  0.5443
 6691TIP3    H241565   4.095   6.006  14.511 -0.9953 -0.5669  0.2062
 6692TIP3   OH241566   3.006   3.395   3.810 -0.7840 -0.0927 -0.3094
 6692TIP3    H141567   2.962   3.315   3.840 -0.4204 -0.3358 -0.4143
 6692TIP3    H241568   3.041   3.372   3.724 -1.8049  0.5963 -0.9130
 6693TIP3   OH241569   2.811   0.929   3.419  0.1293  0.2268  0.4102
 6693TIP3    H141570   2.720   0.900   3.410  0.0415  1.0451 -1.7084
 6693TIP3    H241571   2.850   0.911   3.334  1.7528  0.6052  1.0598
 6694TIP3   OH241572   1.377   3.110  13.331  0.3017  0.0044 -0.3724
 6694TIP3    H141573   1.406   3.180  13.390  1.0083 -0.8172  0.2558
 6694TIP3    H241574   1.378   3.031  13.384  0.4480 -0.6562 -1.3458
 6695TIP3   OH241575   4.966   4.833   0.421  0.1780  0.2525 -0.2461
 6695TIP3    H141576   4.899   4.879   0.472 -0.0577 -0.7995  0.4001
 6695TIP3    H241577   4.964   4.876   0.335 -1.2309  0.3271 -0.1915
 6696TIP3   OH241578   5.910   6.334  11.219  0.4777 -0.3950 -0.0413
 6696TIP3    H141579   5.949   6.364  11.136  0.6300 -1.8578 -0.5092
 6696TIP3    H241580   5.816   6.340  11.204  0.5048 -0.1738 -0.1379
 6697TIP3   OH241581   0.481   4.026  11.949  0.2214  0.1101  0.4576
 6697TIP3    H141582   0.435   3.945  11.926  2.0484 -0.7367 -0.3553
 6697TIP3    H241583   0.416   4.095  11.940 -1.8957 -1.4833  3.0518
 6698TIP3   OH241584   6.742   0.079  15.695  0.0508 -0.2152  0.4789
 6698TIP3    H141585   6.814   0.092  15.634 -1.1251  0.9291 -0.6928
 6698TIP3    H241586   6.717   0.167  15.723 -1.4544 -0.5217  0.1810
 6699TIP3   OH241587   0.101   0.198   0.849 -0.2172  0.2894  0.7475
 6699TIP3    H141588   0.174   0.260   0.842 -0.4129  0.4427  0.0056
 6699TIP3    H241589   0.034   0.233   0.791 -0.3805 -0.5464  0.4222
 6700TIP3   OH241590   3.002   3.683  13.791 -0.1129 -0.7949 -0.2982
 6700TIP3    H141591   3.009   3.590  13.770  2.4689 -0.4034 -1.3962
 6700TIP3    H241592   3.059   3.694  13.867 -1.1068 -0.2461  0.3811
 6701TIP3   OH241593   6.680   0.659   5.793  0.0249 -0.2490 -0.3214
 6701TIP3    H141594   6.711   0.569   5.802 -0.0881 -0.3637 -1.0797
 6701TIP3    H241595   6.667   0.689   5.883  4.2294  0.4662  0.1637
 6702TIP3   OH241596   1.062   2.927  16.746 -0.2245 -0.4910 -0.2953
 6702TIP3    H141597   1.061   2.853  16.807  1.4843 -0.9309 -0.7879
 6702TIP3    H241598   1.135   2.982  16.775 -0.4984  0.1930 -0.8922
 6703TIP3   OH241599   4.798   4.580  14.814  0.4487 -0.3656  0.5466
 6703TIP3    H141600   4.886   4.569  14.849  0.6185 -1.3560 -0.1658
 6703TIP3    H241601   4.744   4.518  14.864  0.2451 -0.0848  0.6761
 6704TIP3   OH241602   3.882   2.094   5.730  0.2042 -0.6661  0.0102
 6704TIP3    H141603   3.938   2.061   5.800 -0.1509 -2.5219 -0.5447
 6704TIP3    H241604   3.833   2.165   5.771  1.5165 -0.3284  1.0480
 6705TIP3   OH241605   1.011   5.397  16.618  0.3573 -0.6000 -0.0590
 6705TIP3    H141606   0.974   5.484  16.625 -0.3644 -1.0560  2.0975
 6705TIP3    H241607   1.080   5.405  16.552  0.1152  1.5147 -0.0714
 6706TIP3   OH241608   3.059   2.023  13.055  0.0487 -0.8766 -0.0468
 6706TIP3    H141609   3.099   2.110  13.055 -0.0446 -0.8281 -0.6087
 6706TIP3    H241610   2.974   2.036  13.097  0.2478 -0.7979  0.3308
 6707TIP3   OH241611   1.552   5.174   1.522 -0.5248 -0.0109  0.6956
 6707TIP3    H141612   1.647   5.186   1.520 -0.3483 -1.2311  1.3900
 6707TIP3    H241613   1.526   5.199   1.611 -0.9634  1.0080  0.2959
 6708TIP3   OH241614   3.413   1.606   1.229  0.0682  0.2547 -0.4589
 6708TIP3    H141615   3.479   1.561   1.281 -1.6094 -1.1229  0.5312
 6708TIP3    H241616   3.458   1.683   1.194  2.1019 -0.5192  0.4018
 6709TIP3   OH241617   4.084   0.171  16.789 -0.4543 -0.0443 -0.1068
 6709TIP3    H141618   4.048   0.259  16.781 -1.8837 -0.5652  0.4752
 6709TIP3    H241619   4.122   0.152  16.703  1.0276  1.6398  0.1683
 6710TIP3   OH241620   2.074   0.548   2.855  0.0640  0.0897 -0.6792
 6710TIP3    H141621   2.054   0.459   2.882 -0.1191 -0.0962 -1.4219
 6710TIP3    H241622   2.028   0.603   2.919 -0.6523 -0.3448 -0.8121
 6711TIP3   OH241623   2.410   5.350   0.638 -0.1482  0.1579  0.4826
 6711TIP3    H141624   2.318   5.335   0.616  0.0571  0.2288 -0.4342
 6711TIP3    H241625   2.421   5.309   0.724 -1.4828  1.7875  1.4341
 6712TIP3   OH241626   5.715   5.122  13.020 -0.4357  0.2907 -0.2308
 6712TIP3    H141627   5.672   5.207  13.023 -3.2716 -1.1371  2.1160
 6712TIP3    H241628   5.647   5.059  13.043  1.9544 -2.4848 -0.3902
 6713TIP3   OH241629   5.143   4.178  11.371  0.4146 -0.0919  0.2194
 6713TIP3    H141630   5.225   4.185  11.420  0.8493  1.1859 -0.6644
 6713TIP3    H241631   5.163   4.213  11.285 -0.7204 -1.0131 -0.4409
 6714TIP3   OH241632   3.414   2.713   5.693 -0.2069  0.5765  0.2175
 6714TIP3    H141633   3.361   2.733   5.771  1.4478 -1.7579  2.0249
 6714TIP3    H241634   3.376   2.632   5.659  0.7710  0.1315  0.1837
 6715TIP3   OH241635   4.736   5.542  14.200 -0.3504 -0.0499 -0.4971
 6715TIP3    H141636   4.818   5.529  14.153  1.6661 -1.0408  3.0858
 6715TIP3    H241637   4.750   5.620  14.253 -1.6807 -0.2969  0.2602
 6716TIP3   OH241638   6.215   5.196   5.975 -0.5400  0.2120 -0.7172
 6716TIP3    H141639   6.146   5.129   5.979 -1.5522  1.2195 -1.0582
 6716TIP3    H241640   6.178   5.264   5.919  0.7268  0.7831 -0.8676
 6717TIP3   OH241641   0.410   6.131   5.298  0.4794 -0.0463  0.2387
 6717TIP3    H141642   0.334   6.084   5.333 -0.1009  0.3435 -0.4738
 6717TIP3    H241643   0.442   6.076   5.227  0.0167  0.4439 -0.3618
 6718TIP3   OH241644   1.835   5.666   5.417 -0.2400 -0.0876 -0.1036
 6718TIP3    H141645   1.875   5.651   5.502  0.6579  1.5820 -0.2180
 6718TIP3    H241646   1.855   5.587   5.367  0.5266 -0.4325  0.7355
 6719TIP3   OH241647   1.569   5.389  15.548 -0.6108 -0.6504  0.1642
 6719TIP3    H141648   1.501   5.421  15.489 -0.2844 -2.1060 -1.0441
 6719TIP3    H241649   1.597   5.466  15.598  0.2797  0.9821 -2.7352
 6720TIP3   OH241650   6.066   2.842   0.141  0.1326 -0.0350 -0.5447
 6720TIP3    H141651   6.098   2.782   0.208 -1.0481 -0.0330  0.0267
 6720TIP3    H241652   6.140   2.853   0.081  1.6081  0.9395  1.4195
 6721TIP3   OH241653   4.128   0.994   4.571  0.4217 -0.0659  0.0463
 6721TIP3    H141654   4.121   1.023   4.480  0.2415  0.3597  0.1940
 6721TIP3    H241655   4.100   0.903   4.569  0.8338 -0.1847 -0.3984
 6722TIP3   OH241656   1.225   5.184  13.168 -0.2434 -0.3611 -0.4496
 6722TIP3    H141657   1.205   5.132  13.246 -0.6065 -2.0568 -1.6664
 6722TIP3    H241658   1.146   5.235  13.152 -1.3425 -2.3687 -1.5559
 6723TIP3   OH241659   2.919   3.134  15.099 -0.7005  0.2774 -0.6859
 6723TIP3    H141660   2.856   3.064  15.116 -0.7362  0.4206 -0.2365
 6723TIP3    H241661   3.004   3.090  15.097 -0.5507  0.4492  1.1614
 6724TIP3   OH241662   5.543   2.534   5.702 -0.4486 -0.5786  0.1962
 6724TIP3    H141663   5.458   2.524   5.745  0.0411  0.2007  1.3746
 6724TIP3    H241664   5.522   2.554   5.611 -1.5204 -0.6784  0.4184
 6725TIP3   OH241665   3.942   4.512   6.319  0.1511  0.6394 -0.0995
 6725TIP3    H141666   4.035   4.520   6.299  0.0158 -1.6926 -1.8258
 6725TIP3    H241667   3.901   4.492   6.235 -1.4175 -1.9127  1.2108
 6726TIP3   OH241668   1.756   2.454  14.242 -0.2010 -0.3130 -0.3419
 6726TIP3    H141669   1.786   2.542  14.264  2.1854 -0.9963 -0.7601
 6726TIP3    H241670   1.765   2.448  14.147  0.0904 -1.1548 -0.2655
 6727TIP3   OH241671   4.815   6.766   6.325  0.3206 -0.0442  0.8804
 6727TIP3    H141672   4.837   6.713   6.402  1.3985  0.8526  1.2006
 6727TIP3    H241673   4.783   6.703   6.261  0.9455 -0.9964  1.4914
 6728TIP3   OH241674   6.798   6.796   5.877  0.1635 -0.5579  0.1017
 6728TIP3    H141675   6.779   6.890   5.872 -0.8872 -0.7802 -0.3305
 6728TIP3    H241676   6.740   6.763   5.946  1.4843 -0.6720  1.1861
 6729TIP3   OH241677   6.148   2.594  14.799 -0.2754 -0.0368 -0.2076
 6729TIP3    H141678   6.183   2.591  14.710  0.9376 -3.0092  0.2983
 6729TIP3    H241679   6.225   2.607  14.855 -0.8295  0.2699  0.4914
 6730TIP3   OH241680   3.708   1.415   5.606  0.0177 -0.0567  0.0979
 6730TIP3    H141681   3.799   1.432   5.582  0.3450 -1.4038  0.3222
 6730TIP3    H241682   3.702   1.439   5.698  0.7329 -2.0392  0.6864
 6731TIP3   OH241683   3.278   4.990   0.803 -0.0418  0.1918 -0.6526
 6731TIP3    H141684   3.205   4.948   0.757  0.1715  0.4528 -1.2378
 6731TIP3    H241685   3.250   4.994   0.894 -0.2407 -0.8418 -0.6575
 6732TIP3   OH241686   5.396   1.595   5.444 -0.5037 -0.8200 -0.1585
 6732TIP3    H141687   5.424   1.520   5.391  1.2419  0.2040 -0.7318
 6732TIP3    H241688   5.332   1.640   5.390  0.1632 -0.6211 -0.7986
 6733TIP3   OH241689   4.920   1.639  15.605 -0.2614  0.3862 -0.2890
 6733TIP3    H141690   4.870   1.582  15.663 -0.1114 -0.9914 -1.4755
 6733TIP3    H241691   4.922   1.724  15.649 -0.3434 -0.5808  1.5958
 6734TIP3   OH241692   2.008   3.599   5.262 -0.1524 -0.9034 -0.4730
 6734TIP3    H141693   2.013   3.544   5.184 -1.3563 -3.1634  0.9670
 6734TIP3    H241694   1.918   3.585   5.295 -0.0943  1.0448  0.5584
 6735TIP3   OH241695   5.714   1.082   5.303  0.7778 -0.2976 -0.4920
 6735TIP3    H141696   5.776   1.017   5.337 -0.6783 -1.1335  0.5950
 6735TIP3    H241697   5.633   1.033   5.290 -0.8054  1.6545  1.8571
 6736TIP3   OH241698   0.725   1.951  11.905  0.4258  0.2035  0.5028
 6736TIP3    H141699   0.667   1.970  11.831  2.3542 -0.6484 -1.2891
 6736TIP3    H241700   0.802   2.007  11.890  1.0780 -0.4041  1.5291
 6737TIP3   OH241701   5.562   3.919  14.229 -0.1119  0.0507  0.2252
 6737TIP3    H141702   5.481   3.967  14.245 -1.4278 -1.9587 -0.2067
 6737TIP3    H241703   5.534   3.829  14.210  2.1825 -0.5863 -0.3923
 6738TIP3   OH241704   5.230   3.049  16.289  0.4996  0.2158 -0.3331
 6738TIP3    H141705   5.304   3.002  16.250  0.0903 -0.7750  0.0844
 6738TIP3    H241706   5.226   3.016  16.379 -0.3449  0.3949 -0.3052
 6739TIP3   OH241707   2.056   1.678  12.918  0.0159 -0.0741 -0.7182
 6739TIP3    H141708   2.035   1.719  12.834 -2.0601 -0.7470 -0.5437
 6739TIP3    H241709   1.976   1.632  12.943  0.3211  0.8633  2.0856
 6740TIP3   OH241710   0.725   2.594   5.866  0.0880 -0.8137  0.1498
 6740TIP3    H141711   0.698   2.681   5.836  1.4540 -0.8518 -1.2469
 6740TIP3    H241712   0.765   2.610   5.951  0.0160 -0.1199  0.0624
 6741TIP3   OH241713   2.184   3.186   6.405 -0.0394 -0.3861  0.8040
 6741TIP3    H141714   2.182   3.091   6.409  0.7260 -0.3688  1.8428
 6741TIP3    H241715   2.274   3.207   6.380  0.1829  0.1007  1.9941
 6742TIP3   OH241716   0.017   5.335  12.353 -0.1753  0.2888 -0.4737
 6742TIP3    H141717   0.090   5.369  12.404  0.0954  0.0539 -0.7019
 6742TIP3    H241718   0.054   5.319  12.266 -0.9149  1.7564 -1.0739
 6743TIP3   OH241719   3.991   6.559  16.410  0.1838 -0.0095 -0.4913
 6743TIP3    H141720   3.993   6.578  16.316  2.8547 -0.6916 -0.6197
 6743TIP3    H241721   4.058   6.616  16.448  0.7841 -1.4219  0.6323
 6744TIP3   OH241722   0.163   1.170  11.236  0.0927 -0.2405  0.2663
 6744TIP3    H141723   0.234   1.218  11.193 -0.0923 -1.8844 -1.9657
 6744TIP3    H241724   0.207   1.101  11.286  0.1059 -0.7143 -0.4027
 6745TIP3   OH241725   6.785   2.165  15.463 -0.1345  0.8173  0.0464
 6745TIP3    H141726   6.864   2.111  15.461  0.4049  1.5712  0.4456
 6745TIP3    H241727   6.817   2.254  15.444 -0.9932  1.0036 -0.5344
 6746TIP3   OH241728   4.502   5.153   0.418 -0.4878 -0.0627 -0.3947
 6746TIP3    H141729   4.499   5.245   0.390 -1.0532 -0.1995 -0.8116
 6746TIP3    H241730   4.592   5.127   0.403 -0.6107  0.0797 -1.4376
 6747TIP3   OH241731   5.382   3.418  13.562  0.2645 -0.0560  0.2071
 6747TIP3    H141732   5.365   3.359  13.489  0.8865  1.2805 -1.0483
 6747TIP3    H241733   5.471   3.396  13.590  0.1440 -0.3571  0.3492
 6748TIP3   OH241734   5.426   1.126  11.045  0.2504  0.3735 -0.0555
 6748TIP3    H141735   5.360   1.067  11.008 -1.8749  2.2175  0.6547
 6748TIP3    H241736   5.414   1.118  11.140 -0.5485  2.4096  0.0517
 6749TIP3   OH241737   3.205   2.086   4.365 -0.2434 -0.1756 -0.2801
 6749TIP3    H141738   3.122   2.050   4.334 -0.8123  0.1158  0.8831
 6749TIP3    H241739   3.215   2.168   4.316 -1.7748  0.9285  1.1732
 6750TIP3   OH241740   3.164   5.844  11.660 -0.1443  0.4552  0.3671
 6750TIP3    H141741   3.072   5.858  11.681 -0.4845 -0.6541 -0.2992
 6750TIP3    H241742   3.172   5.870  11.568  0.3714  1.2601  0.6415
 6751TIP3   OH241743   5.974   1.013  16.411  0.1929  0.4549 -0.7057
 6751TIP3    H141744   5.951   1.003  16.504  1.3380  1.3159 -0.3073
 6751TIP3    H241745   5.892   1.037  16.368 -0.8188 -2.1237 -0.3104
 6752TIP3   OH241746   0.250   1.960   3.776 -0.1275 -0.4425  0.1238
 6752TIP3    H141747   0.212   2.042   3.744 -0.8271 -1.0125 -0.5238
 6752TIP3    H241748   0.183   1.923   3.833 -0.2586 -1.0809 -0.4306
 6753TIP3   OH241749   2.381   2.175   2.829 -0.0852  0.1982  0.2049
 6753TIP3    H141750   2.407   2.143   2.915  0.2759 -0.8958 -0.3029
 6753TIP3    H241751   2.451   2.235   2.803  0.3925 -0.3834  0.1582
 6754TIP3   OH241752   0.814   6.234  17.105 -0.3665  0.2838 -0.1873
 6754TIP3    H141753   0.771   6.150  17.089 -2.0376  0.8289  1.2370
 6754TIP3    H241754   0.902   6.210  17.136 -0.3827 -0.9065 -1.0250
 6755TIP3   OH241755   4.761   2.555   3.843  0.0466  0.6974 -0.0093
 6755TIP3    H141756   4.672   2.531   3.868 -0.2502  1.1171 -0.6583
 6755TIP3    H241757   4.795   2.477   3.799  0.1887  0.3486  0.7077
 6756TIP3   OH241758   3.210   4.790  12.545  0.4586  0.7808 -0.0854
 6756TIP3    H141759   3.278   4.730  12.575 -0.4820  0.3656  1.2971
 6756TIP3    H241760   3.160   4.811  12.625 -0.9774  1.1160 -1.0503
 6757TIP3   OH241761   5.652   2.201   3.695  0.0912  0.3224  0.1152
 6757TIP3    H141762   5.691   2.179   3.611  0.0900  0.5067  0.0668
 6757TIP3    H241763   5.724   2.240   3.745  0.0485  0.3687  0.1402
 6758TIP3   OH241764   1.224   1.740  10.871  0.3373  1.1522 -0.5915
 6758TIP3    H141765   1.310   1.755  10.912  1.1457 -0.4495 -1.6467
 6758TIP3    H241766   1.235   1.659  10.821 -1.9285  0.6875 -0.3973
 6759TIP3   OH241767   5.954   2.741  13.737  0.5210  0.3238  0.1397
 6759TIP3    H141768   5.889   2.672  13.720  1.1405  0.1069 -1.4404
 6759TIP3    H241769   5.963   2.742  13.832  0.5093 -1.7932  0.1842
 6760TIP3   OH241770   4.169   4.793   1.772 -0.0832 -0.3956  0.4129
 6760TIP3    H141771   4.181   4.866   1.832 -0.0557  0.6315 -0.8271
 6760TIP3    H241772   4.253   4.746   1.774 -0.4215 -0.9742  1.9369
 6761TIP3   OH241773   3.218   0.881  10.434 -0.0459  0.0056 -0.4161
 6761TIP3    H141774   3.299   0.831  10.426 -0.0506  0.1079 -1.1963
 6761TIP3    H241775   3.220   0.941  10.359 -1.0320 -0.2733 -0.6732
 6762TIP3   OH241776   0.222   1.353   3.819 -0.0477  0.3576 -0.2057
 6762TIP3    H141777   0.272   1.322   3.895 -0.0362 -0.3733 -0.5099
 6762TIP3    H241778   0.265   1.435   3.794  0.8902 -0.1710 -0.3506
 6763TIP3   OH241779   6.525   4.379   5.964 -0.1257  0.2086  0.1347
 6763TIP3    H141780   6.568   4.453   6.007  0.1248  0.4486 -0.5220
 6763TIP3    H241781   6.499   4.321   6.036 -1.6880  1.6561  0.7885
 6764TIP3   OH241782   2.440   5.724  13.664 -0.3170 -0.3626  1.1546
 6764TIP3    H141783   2.441   5.692  13.574  2.6215  1.4718  0.4688
 6764TIP3    H241784   2.449   5.645  13.718 -1.2140 -1.3803 -0.1720
 6765TIP3   OH241785   1.598   5.302   3.591  0.3034 -0.1789  0.2421
 6765TIP3    H141786   1.690   5.279   3.602  0.0115 -1.3408  0.3037
 6765TIP3    H241787   1.559   5.225   3.550 -0.5653  0.4485 -0.1173
 6766TIP3   OH241788   1.066   6.184  17.204  0.1565 -0.1290 -0.7501
 6766TIP3    H141789   1.116   6.104  17.185 -0.6474 -0.0692 -3.1422
 6766TIP3    H241790   1.054   6.181  17.299  3.4250 -0.8978 -0.2776
 6767TIP3   OH241791   5.268   0.965   0.770  0.0537  0.1438  0.0092
 6767TIP3    H141792   5.223   1.031   0.823 -0.9795  0.3982 -1.1371
 6767TIP3    H241793   5.252   0.993   0.680  1.2235 -0.6341 -0.4567
 6768TIP3   OH241794   5.728   3.547   4.602 -0.5851  0.0469  0.0790
 6768TIP3    H141795   5.710   3.547   4.696  0.1020 -1.4967  0.2140
 6768TIP3    H241796   5.818   3.515   4.595 -0.8035 -0.2988 -1.1395
 6769TIP3   OH241797   1.438   1.301  16.449  0.5507  0.5596  0.1610
 6769TIP3    H141798   1.508   1.290  16.385  0.6531 -0.9917  0.5313
 6769TIP3    H241799   1.478   1.276  16.533 -0.8026 -1.6275  0.1788
 6770TIP3   OH241800   0.476   4.195  13.663 -0.2034 -0.5897  0.5138
 6770TIP3    H141801   0.526   4.276  13.651 -1.8904  0.5791  1.1836
 6770TIP3    H241802   0.397   4.208  13.611 -1.0841 -1.2580  1.6679
 6771TIP3   OH241803   5.167   5.005   2.357  0.0536 -0.5688 -0.2510
 6771TIP3    H141804   5.073   4.999   2.346 -0.0333 -0.4054  0.3482
 6771TIP3    H241805   5.185   5.099   2.355  0.2105 -0.6041 -0.4527
 6772TIP3   OH241806   0.957   0.563  11.950  0.4813  0.0697  0.1943
 6772TIP3    H141807   1.019   0.492  11.935  1.2888  0.9391 -0.6501
 6772TIP3    H241808   0.990   0.609  12.026  0.5963  0.2439  0.0369
 6773TIP3   OH241809   2.778   4.010  14.282 -0.2001  0.1087 -0.5232
 6773TIP3    H141810   2.699   3.981  14.328 -0.1562  1.2500  0.2918
 6773TIP3    H241811   2.850   3.985  14.340  0.1159 -1.6256 -1.6173
 6774TIP3   OH241812   3.457   4.510  16.104  0.4720  0.2879 -0.2653
 6774TIP3    H141813   3.450   4.579  16.169  1.6990 -0.6349  0.8929
 6774TIP3    H241814   3.368   4.475  16.095  0.0327  1.3841 -0.1649
 6775TIP3   OH241815   6.354   3.362   3.412 -0.4606  0.0243  0.2949
 6775TIP3    H141816   6.352   3.267   3.402 -0.1236  0.1538 -1.1480
 6775TIP3    H241817   6.283   3.394   3.356  0.1936  0.6844 -0.1790
 6776TIP3   OH241818   2.884   0.635  11.594 -0.2098  0.0209  0.3285
 6776TIP3    H141819   2.840   0.717  11.619 -0.9184 -0.5665  1.0460
 6776TIP3    H241820   2.814   0.569  11.596 -0.1637 -0.2055 -2.5275
 6777TIP3   OH241821   3.024   2.634  11.618  0.5739 -0.7495 -0.2821
 6777TIP3    H141822   3.119   2.635  11.630  0.6534  0.5542 -0.9709
 6777TIP3    H241823   2.994   2.717  11.654 -0.2891 -1.0293 -0.3361
 6778TIP3   OH241824   4.474   5.233  15.616  0.6157  0.1124  0.1811
 6778TIP3    H141825   4.505   5.203  15.701 -0.0305  0.0896  0.4150
 6778TIP3    H241826   4.416   5.307  15.636  2.2704  1.5805 -0.3971
 6779TIP3   OH241827   5.089   2.029  13.253 -0.5218  0.2774 -0.2862
 6779TIP3    H141828   5.048   1.962  13.307  0.9551  0.3347  0.9462
 6779TIP3    H241829   5.169   1.988  13.221  1.5922  2.1311  2.3497
 6780TIP3   OH241830   5.372   5.231  13.043  0.2646 -0.0999  0.1807
 6780TIP3    H141831   5.409   5.143  13.046 -0.3901 -0.3865 -0.1553
 6780TIP3    H241832   5.374   5.261  13.134  0.3566 -0.5110  0.3175
 6781TIP3   OH241833   0.407   2.477   1.441  0.1154  0.0769 -0.1345
 6781TIP3    H141834   0.405   2.560   1.392 -0.6751 -0.5763 -1.2203
 6781TIP3    H241835   0.326   2.433   1.416  0.8606 -1.3344 -0.0796
 6782TIP3   OH241836   4.473   5.266   1.292  0.4043 -1.0266 -0.3883
 6782TIP3    H141837   4.483   5.332   1.223  1.6617 -1.5851 -0.7521
 6782TIP3    H241838   4.424   5.195   1.250 -0.7988 -0.4171 -0.0461
 6783TIP3   OH241839   2.078   5.261   5.102 -0.4292 -0.1319 -0.0852
 6783TIP3    H141840   2.042   5.188   5.053 -0.4680  0.4792 -0.9689
 6783TIP3    H241841   2.095   5.225   5.189 -4.2039 -0.1545  0.7276
 6784TIP3   OH241842   4.587   6.457   1.424  0.2089 -0.5086  0.2519
 6784TIP3    H141843   4.533   6.398   1.478  3.3378 -1.7731  2.1891
 6784TIP3    H241844   4.632   6.398   1.364  0.9025  0.3020 -0.0168
 6785TIP3   OH241845   5.939   6.391  11.562  0.0328 -0.3979 -0.5015
 6785TIP3    H141846   5.949   6.302  11.596 -1.9836 -1.1834 -1.8835
 6785TIP3    H241847   6.021   6.407  11.514  1.3619 -0.6222  1.6603
 6786TIP3   OH241848   4.495   2.703  14.297 -0.2877  0.3167 -0.2573
 6786TIP3    H141849   4.586   2.677  14.283 -1.0916 -1.7100 -2.0794
 6786TIP3    H241850   4.446   2.621  14.290 -2.2949  1.4336  0.3322
 6787TIP3   OH241851   3.749   1.319   3.307 -0.6258  0.1946 -0.1221
 6787TIP3    H141852   3.737   1.276   3.223 -2.4267 -1.1329  0.7793
 6787TIP3    H241853   3.660   1.340   3.336 -0.0311  0.7042  1.4115
 6788TIP3   OH241854   4.632   0.709  13.402 -0.5249  0.1058  0.2804
 6788TIP3    H141855   4.666   0.662  13.326  1.8893  0.2523  1.2190
 6788TIP3    H241856   4.562   0.764  13.367  0.3056 -0.0952 -1.7754
 6789TIP3   OH241857   1.490   3.279  15.892  0.1257 -1.1815  0.7129
 6789TIP3    H141858   1.546   3.356  15.885  0.8045 -1.6973  0.3854
 6789TIP3    H241859   1.414   3.298  15.837  1.4645 -1.7589 -1.3526
 6790TIP3   OH241860   6.182   0.103   0.047  0.1093 -0.3121  0.0203
 6790TIP3    H141861   6.263   0.115   0.098  1.3100  0.5273 -2.0319
 6790TIP3    H241862   6.113   0.102   0.113  1.5225  1.9215  1.6117
 6791TIP3   OH241863   4.185   3.368   5.967 -0.5291 -0.1068  0.0799
 6791TIP3    H141864   4.181   3.370   6.063 -0.4353  1.2565  0.0569
 6791TIP3    H241865   4.157   3.455   5.940 -0.5126 -0.4765 -1.1401
 6792TIP3   OH241866   4.324   4.811  14.644 -0.7911 -0.1777 -0.9617
 6792TIP3    H141867   4.373   4.736  14.678 -2.1413 -0.3542  0.7194
 6792TIP3    H241868   4.371   4.838  14.565  0.9301 -1.4647 -0.4060
 6793TIP3   OH241869   6.410   2.137   3.335 -0.5192 -0.6051 -0.0306
 6793TIP3    H141870   6.364   2.132   3.419  0.7231  1.1669  0.7987
 6793TIP3    H241871   6.367   2.209   3.288 -0.9807 -1.3595 -0.7704
 6794TIP3   OH241872   6.369   4.594   1.434 -0.1474  0.1406 -0.3280
 6794TIP3    H141873   6.427   4.605   1.359  0.7352 -1.7516  0.0304
 6794TIP3    H241874   6.282   4.588   1.396  0.1904  0.2290 -1.1251
 6795TIP3   OH241875   5.214   1.773  14.768 -0.0683  0.6647 -0.1703
 6795TIP3    H141876   5.225   1.693  14.717  1.5960  1.1606 -0.6154
 6795TIP3    H241877   5.122   1.798  14.754 -0.5329 -1.0008 -0.2350
 6796TIP3   OH241878   5.862   4.039   5.836  0.4454  0.1034  0.0713
 6796TIP3    H141879   5.884   3.962   5.785 -0.1789  0.4383 -0.7141
 6796TIP3    H241880   5.883   4.015   5.926  0.7370 -0.7980 -0.2353
 6797TIP3   OH241881   0.616   4.243  15.577  0.4132  0.3806  0.1796
 6797TIP3    H141882   0.536   4.264  15.625  0.8374 -0.0834  1.0926
 6797TIP3    H241883   0.670   4.195  15.640  0.8249 -0.5374 -0.8640
 6798TIP3   OH241884   4.078   1.637  12.269  0.0833 -0.1093  0.7331
 6798TIP3    H141885   4.138   1.608  12.200  0.8479  0.7704  1.0076
 6798TIP3    H241886   4.130   1.631  12.349 -0.5278 -0.3145  1.1155
 6799TIP3   OH241887   1.331   6.436  16.589 -0.5464 -0.3521  0.3786
 6799TIP3    H141888   1.252   6.480  16.558 -0.8983 -2.1871 -1.4137
 6799TIP3    H241889   1.320   6.433  16.685 -3.1480 -1.4589  0.1080
 6800TIP3   OH241890   4.294   6.030   3.321 -0.0848  0.3652  0.3027
 6800TIP3    H141891   4.293   6.066   3.409 -0.2433  1.0914  0.0077
 6800TIP3    H241892   4.338   6.097   3.268  0.3449 -0.2234 -0.1038
 6801TIP3   OH241893   1.782   1.590   2.930  0.6802  0.2855  0.0133
 6801TIP3    H141894   1.729   1.661   2.894 -0.0755 -0.3974 -0.2359
 6801TIP3    H241895   1.724   1.514   2.930  1.2818 -0.1844  0.8778
 6802TIP3   OH241896   6.109   4.749  13.351  0.4118  0.3453  0.1920
 6802TIP3    H141897   6.119   4.775  13.260 -0.1221  0.0732  0.0584
 6802TIP3    H241898   6.158   4.815  13.400 -0.4077  1.2416 -0.1873
 6803TIP3   OH241899   0.855   5.768   0.717 -0.8502 -0.5854  0.4348
 6803TIP3    H141900   0.817   5.680   0.719 -1.0071 -0.5247  3.9641
 6803TIP3    H241901   0.789   5.822   0.673 -0.5662 -2.2673 -2.1573
 6804TIP3   OH241902   3.973   5.476  16.060 -0.4054  0.0657  0.3181
 6804TIP3    H141903   4.061   5.439  16.063 -0.4611 -0.0713  0.2896
 6804TIP3    H241904   3.981   5.553  16.004 -0.5293 -0.5637 -0.5625
 6805TIP3   OH241905   5.127   2.243  11.467  0.0799  0.0358  0.2231
 6805TIP3    H141906   5.124   2.251  11.563  2.8943  1.1665  0.2661
 6805TIP3    H241907   5.124   2.333  11.435 -0.2434 -0.3112 -0.7167
 6806TIP3   OH241908   1.330   1.585   1.035  0.2861 -0.6763  0.3870
 6806TIP3    H141909   1.234   1.588   1.029  0.4477  2.3379 -1.6332
 6806TIP3    H241910   1.357   1.521   0.970 -0.1820  1.4433 -1.9395
 6807TIP3   OH241911   1.565   4.591   5.487 -0.0083 -0.3263  0.3918
 6807TIP3    H141912   1.581   4.684   5.501 -1.2035  0.0792 -0.7724
 6807TIP3    H241913   1.579   4.578   5.393 -0.0732 -1.2617  0.5102
 6808TIP3   OH241914   4.879   3.397  10.625 -0.0644 -0.6671 -0.5147
 6808TIP3    H141915   4.876   3.490  10.602  1.4352 -0.5693 -0.3664
 6808TIP3    H241916   4.792   3.377  10.658  0.5465  1.4842  2.5205
 6809TIP3   OH241917   2.286   1.464   2.287 -0.3550 -0.3528 -0.3224
 6809TIP3    H141918   2.304   1.558   2.293  0.1340 -0.5816  2.2259
 6809TIP3    H241919   2.204   1.452   2.334 -0.8954 -1.0910 -1.4287
 6810TIP3   OH241920   0.641   0.829  11.314 -0.0343 -0.2170 -0.8499
 6810TIP3    H141921   0.690   0.889  11.258 -0.8415  1.4236  0.1553
 6810TIP3    H241922   0.583   0.782  11.254  1.0009 -0.4189 -1.7190
 6811TIP3   OH241923   4.587   3.431  17.074 -0.1668  0.1987  0.5250
 6811TIP3    H141924   4.504   3.401  17.037  0.2776 -1.6134  0.9573
 6811TIP3    H241925   4.590   3.393  17.161  1.5781 -0.6380  0.1255
 6812TIP3   OH241926   4.787   0.223   3.794 -0.1740 -0.3592  0.5653
 6812TIP3    H141927   4.805   0.136   3.758  0.5683 -0.1978  0.5547
 6812TIP3    H241928   4.793   0.211   3.889  0.6602 -0.1513  0.5365
 6813TIP3   OH241929   2.957   1.791   4.554 -0.0426 -0.0077  0.3509
 6813TIP3    H141930   2.956   1.723   4.622 -0.7595 -0.9336 -0.5523
 6813TIP3    H241931   2.891   1.854   4.583 -1.0906 -0.9203  0.0386
 6814TIP3   OH241932   2.921   4.305  16.926  0.4814  0.4933 -0.1938
 6814TIP3    H141933   2.966   4.355  16.993  0.9097  0.7212 -0.6529
 6814TIP3    H241934   2.977   4.311  16.849  0.3234 -0.3231 -0.3798
 6815TIP3   OH241935   2.959   1.362  16.061 -1.0733  0.0836 -0.3273
 6815TIP3    H141936   2.909   1.407  16.129 -0.2764 -1.7805  1.5842
 6815TIP3    H241937   2.922   1.273  16.060  2.1187 -1.3364  1.1586
 6816TIP3   OH241938   0.150   1.630  12.251 -0.0092 -0.1961  0.1527
 6816TIP3    H141939   0.075   1.674  12.212 -0.4457 -0.5735  0.5507
 6816TIP3    H241940   0.226   1.678  12.218 -0.3682 -0.4104 -1.0342
 6817TIP3   OH241941   5.353   5.070   5.929  0.1002  0.4105 -0.5500
 6817TIP3    H141942   5.418   5.066   6.000 -0.0187 -1.1622 -0.5178
 6817TIP3    H241943   5.370   5.154   5.886  2.3481 -0.0814 -0.7015
 6818TIP3   OH241944   6.820   5.692   0.500  0.1939  0.3718 -0.3789
 6818TIP3    H141945   6.818   5.600   0.474  0.9898  0.2401  0.0294
 6818TIP3    H241946   6.741   5.729   0.461 -0.2240 -0.5232 -0.4029
 6819TIP3   OH241947   1.426   0.446  13.466  0.3324 -0.3416  0.1193
 6819TIP3    H141948   1.388   0.420  13.382  0.5781  1.2999 -0.5272
 6819TIP3    H241949   1.488   0.377  13.487  0.5682 -0.5749 -1.2576
 6820TIP3   OH241950   5.686   5.380  14.230  0.2084  0.2469  0.4118
 6820TIP3    H141951   5.763   5.382  14.174  0.4361 -1.3255  0.6629
 6820TIP3    H241952   5.720   5.396  14.318  0.3038 -0.8421  0.5764
 6821TIP3   OH241953   2.527   0.322  13.467 -0.3599 -0.6138  0.1002
 6821TIP3    H141954   2.533   0.408  13.508  1.2378 -0.5047 -0.3251
 6821TIP3    H241955   2.615   0.306  13.433 -0.9043 -1.9885 -0.6815
 6822TIP3   OH241956   3.282   1.244   3.806  0.0560  0.3103 -0.2414
 6822TIP3    H141957   3.267   1.307   3.736  0.0133 -0.5100 -0.9685
 6822TIP3    H241958   3.263   1.293   3.886  2.0790  1.8726 -0.6638
 6823TIP3   OH241959   0.293   5.129  12.276 -0.1564 -0.1389  0.1464
 6823TIP3    H141960   0.240   5.179  12.214 -2.7785 -0.1556  2.2437
 6823TIP3    H241961   0.294   5.183  12.355  2.1079 -0.6630  0.5084
 6824TIP3   OH241962   4.700   5.411   5.748 -0.4708  0.1761  0.6503
 6824TIP3    H141963   4.609   5.397   5.776 -0.3750 -1.5419  0.1352
 6824TIP3    H241964   4.738   5.323   5.743  0.9794  0.8182  0.0256
 6825TIP3   OH241965   5.249   2.260  11.108 -0.3840  0.2239 -0.5124
 6825TIP3    H141966   5.305   2.315  11.163 -2.7185 -0.2367  2.4801
 6825TIP3    H241967   5.310   2.206  11.059  1.8390  0.1871  2.1522
 6826TIP3   OH241968   6.565   2.850   3.466  0.4735  0.0005 -0.1065
 6826TIP3    H141969   6.614   2.850   3.384  0.3770 -1.1227 -0.1585
 6826TIP3    H241970   6.633   2.844   3.534  0.6622  2.3996 -0.0234
 6827TIP3   OH241971   2.707   1.845  14.886  0.0930  0.1062  0.0452
 6827TIP3    H141972   2.729   1.762  14.929  2.5597  0.1911 -0.9474
 6827TIP3    H241973   2.708   1.909  14.957  2.2301 -0.0745  0.2307
 6828TIP3   OH241974   4.949   4.625  17.277  0.0139  1.0681 -0.0879
 6828TIP3    H141975   4.933   4.695  17.340 -1.0989  0.8331 -0.0925
 6828TIP3    H241976   4.862   4.604  17.242 -0.2457 -2.5647  2.3326
 6829TIP3   OH241977   1.371   4.371   5.085 -0.2771  0.3776  0.1410
 6829TIP3    H141978   1.406   4.402   5.001  0.3014 -1.8043 -0.4608
 6829TIP3    H241979   1.416   4.424   5.151  1.4065  0.1594 -0.8057
 6830TIP3   OH241980   1.415   3.744   0.937 -0.1049  0.2108  0.2705
 6830TIP3    H141981   1.483   3.810   0.952  1.3745 -0.8536 -1.6043
 6830TIP3    H241982   1.350   3.788   0.882 -0.0699  0.6670  0.5881
 6831TIP3   OH241983   2.496   6.015  13.626  0.0235 -0.0014  0.1658
 6831TIP3    H141984   2.579   6.057  13.647  0.4406 -0.7011 -0.0803
 6831TIP3    H241985   2.515   5.921  13.628 -0.8823 -0.1827  0.6391
 6832TIP3   OH241986   0.062   2.044  11.678  0.5068 -0.2388 -0.2647
 6832TIP3    H141987   0.073   2.138  11.691  3.2169 -0.4876 -0.3018
 6832TIP3    H241988   0.071   2.032  11.583  0.2017 -0.5329 -0.2564
 6833TIP3   OH241989   6.478   1.761   4.495  0.3045  0.3758 -0.5214
 6833TIP3    H141990   6.470   1.673   4.458 -0.2984 -0.2935  1.1688
 6833TIP3    H241991   6.458   1.819   4.422 -0.6462 -0.9192 -1.3151
 6834TIP3   OH241992   4.974   6.787  11.717 -0.1261 -0.6494  0.3258
 6834TIP3    H141993   5.049   6.840  11.743  0.6449 -1.3143 -0.5337
 6834TIP3    H241994   4.962   6.805  11.624 -0.7524 -0.8927  0.3567
 6835TIP3   OH241995   1.522   4.521   4.904 -0.1322 -0.0235  0.1314
 6835TIP3    H141996   1.602   4.571   4.888  0.0078 -0.3984 -0.3557
 6835TIP3    H241997   1.530   4.445   4.846 -0.7915 -0.1124  0.1590
 6836TIP3   OH241998   0.915   4.121  15.227 -0.4033 -0.3772 -0.0930
 6836TIP3    H141999   0.870   4.130  15.143  0.2185 -1.0155 -0.4957
 6836TIP3    H242000   0.856   4.068  15.281 -0.8751  0.1682 -0.0698
 6837TIP3   OH242001   0.204   5.359   1.713 -0.0168 -0.4086 -0.0615
 6837TIP3    H142002   0.298   5.339   1.717 -0.0161 -0.3595  0.1877
 6837TIP3    H242003   0.197   5.448   1.748  0.0572  0.2936 -1.7643
 6838TIP3   OH242004   4.051   1.608  15.730 -0.2341  0.0246  0.1699
 6838TIP3    H142005   3.997   1.687  15.726 -1.1551 -0.6195 -0.3211
 6838TIP3    H242006   4.138   1.637  15.700 -0.3771  1.0027  0.6999
 6839TIP3   OH242007   1.214   3.101   1.107  0.0771 -0.4409 -0.0971
 6839TIP3    H142008   1.145   3.112   1.173 -1.3824 -0.4646 -1.5617
 6839TIP3    H242009   1.263   3.183   1.108 -3.2593  1.7132 -2.6570
 6840TIP3   OH242010   3.160   1.785   4.182 -0.0405 -0.3327 -0.1380
 6840TIP3    H142011   3.076   1.774   4.227 -0.3628 -1.1943 -0.9393
 6840TIP3    H242012   3.136   1.807   4.092  0.5986  3.1208  0.4796
 6841TIP3   OH242013   5.808   5.585   0.203  0.1936 -0.3541 -0.0982
 6841TIP3    H142014   5.893   5.629   0.196 -0.5978  0.9881 -1.9173
 6841TIP3    H242015   5.784   5.565   0.112 -2.3654  1.1718  0.1847
 6842TIP3   OH242016   3.316   1.418   2.457 -0.3329  0.1490  0.1078
 6842TIP3    H142017   3.223   1.432   2.443 -0.2903  0.4718  0.1506
 6842TIP3    H242018   3.325   1.412   2.553 -0.3297 -0.0384  0.0979
 6843TIP3   OH242019   0.938   4.587  16.125  0.7137 -0.3608  0.6185
 6843TIP3    H142020   0.909   4.673  16.156  0.9844 -0.2023  0.4366
 6843TIP3    H242021   0.857   4.535  16.119  0.4209  0.1924 -0.2469
 6844TIP3   OH242022   3.822   5.110   0.690  0.0116 -0.2938 -0.1041
 6844TIP3    H142023   3.788   5.172   0.754 -0.3141 -0.7124  0.1347
 6844TIP3    H242024   3.761   5.115   0.616  0.7954  0.7232 -0.6963
 6845TIP3   OH242025   3.097   2.738  12.878 -0.9575  0.1971  0.2102
 6845TIP3    H142026   3.033   2.672  12.853 -2.9721  2.4084 -0.6007
 6845TIP3    H242027   3.122   2.780  12.796  1.3846 -0.4781  0.5448
 6846TIP3   OH242028   2.099   3.088   5.651  0.4684 -0.7710  0.5522
 6846TIP3    H142029   2.123   3.141   5.728 -0.0835 -1.8116  1.4544
 6846TIP3    H242030   2.026   3.136   5.612 -0.6534 -1.3222  1.9103
 6847TIP3   OH242031   6.066   4.505   1.187  0.3685  0.0611  0.5526
 6847TIP3    H142032   6.098   4.565   1.254  0.6496  1.0513 -0.4552
 6847TIP3    H242033   5.982   4.542   1.160  1.0982  0.7315 -0.9373
 6848TIP3   OH242034   5.969   6.543   3.834  0.0780 -0.5874  0.1166
 6848TIP3    H142035   6.061   6.551   3.857  0.3952  1.9757 -1.8900
 6848TIP3    H242036   5.922   6.561   3.916  1.3111  1.9844  0.2999
 6849TIP3   OH242037   1.158   4.501   4.953  0.0943 -0.2342  0.1900
 6849TIP3    H142038   1.221   4.550   4.901  0.4789  0.0509  0.9223
 6849TIP3    H242039   1.204   4.479   5.033 -0.4119 -0.9025  0.3112
 6850TIP3   OH242040   2.621   3.107   2.179  0.2802  0.4175 -0.2197
 6850TIP3    H142041   2.667   3.112   2.262 -1.4393 -0.5171  0.8142
 6850TIP3    H242042   2.550   3.171   2.187  0.8985  1.2902 -1.4935
 6851TIP3   OH242043   0.331   1.752   0.428 -0.4045  0.0702  0.1396
 6851TIP3    H142044   0.263   1.689   0.402  0.5384 -0.9019  0.0001
 6851TIP3    H242045   0.353   1.797   0.347 -0.6994  0.2123  0.1360
 6852TIP3   OH242046   0.985   2.350   3.447  0.2334 -0.1414 -0.1871
 6852TIP3    H142047   0.913   2.317   3.499 -0.0040 -0.3978 -0.6752
 6852TIP3    H242048   0.964   2.325   3.357  0.1421  1.1670 -0.5417
 6853TIP3   OH242049   5.977   6.085  16.184  0.6397 -0.3055  0.0527
 6853TIP3    H142050   5.986   5.999  16.143  0.9835  0.4385 -1.4511
 6853TIP3    H242051   5.895   6.120  16.150 -0.3685 -0.7059  1.9586
 6854TIP3   OH242052   5.349   4.547  16.454  0.0441 -0.5886  0.5818
 6854TIP3    H142053   5.270   4.594  16.481 -0.3182 -0.8873  0.0468
 6854TIP3    H242054   5.400   4.612  16.406  0.2004 -0.3479  1.0759
 6855TIP3   OH242055   0.771   2.568  17.229 -0.5030 -0.2998 -0.3519
 6855TIP3    H142056   0.809   2.653  17.252 -1.1021 -0.3653  0.9112
 6855TIP3    H242057   0.831   2.504  17.267 -0.7346 -0.4276 -0.2004
 6856TIP3   OH242058   2.840   0.150  11.391 -0.1495  0.6933  0.0282
 6856TIP3    H142059   2.880   0.236  11.385  1.1116  0.1248  0.0660
 6856TIP3    H242060   2.911   0.092  11.420 -1.1192 -0.2513  0.5630
 6857TIP3   OH242061   0.075   0.890   0.221  0.6033 -0.0694  0.0610
 6857TIP3    H142062   0.045   0.802   0.246  1.3576 -0.3293  0.0552
 6857TIP3    H242063   0.130   0.875   0.144 -0.2347  0.5401 -0.6590
 6858TIP3   OH242064   5.092   5.099  11.550 -0.2139  0.2643 -0.3553
 6858TIP3    H142065   5.109   5.051  11.630  0.0957 -1.7263 -1.5869
 6858TIP3    H242066   5.052   5.181  11.579  0.2858 -0.2396  1.8323
 6859TIP3   OH242067   3.361   1.184  13.581  0.8338 -0.0947 -0.1707
 6859TIP3    H142068   3.268   1.203  13.595  1.4715  2.3235  1.1923
 6859TIP3    H242069   3.362   1.109  13.522 -1.9807  0.0405 -0.4587
 6860TIP3   OH242070   0.238   5.307  15.750 -0.2136 -0.8747  0.2667
 6860TIP3    H142071   0.151   5.273  15.770 -0.0720 -2.1493 -1.1561
 6860TIP3    H242072   0.253   5.282  15.659  1.5320 -0.4290  0.4087
 6861TIP3   OH242073   2.548   0.190  15.115  0.6232 -0.6686  0.1654
 6861TIP3    H142074   2.531   0.096  15.105  2.9284 -1.3992  2.4294
 6861TIP3    H242075   2.640   0.201  15.091  0.7218  0.7816  1.1031
 6862TIP3   OH242076   5.206   2.647   5.475 -0.2075  0.3901 -0.1567
 6862TIP3    H142077   5.209   2.733   5.434 -0.9774 -0.6446 -2.4850
 6862TIP3    H242078   5.282   2.601   5.439 -1.0737 -0.6317 -0.7056
 6863TIP3   OH242079   0.841   0.186  11.760 -0.0429  0.1177 -0.0644
 6863TIP3    H142080   0.888   0.131  11.697 -1.0427 -0.0212 -0.6859
 6863TIP3    H242081   0.751   0.189  11.728 -0.2473  1.1966  0.5827
 6864TIP3   OH242082   1.992   4.585  12.565 -0.2613  0.3312 -0.3850
 6864TIP3    H142083   2.035   4.663  12.531  1.8989 -0.5209  0.3373
 6864TIP3    H242084   1.945   4.615  12.643  0.5087  0.9143 -0.1462
 6865TIP3   OH242085   4.378   4.071   4.221  0.4910  0.1347  0.1529
 6865TIP3    H142086   4.363   4.125   4.143  0.4812 -1.7493 -1.1957
 6865TIP3    H242087   4.436   4.001   4.190  1.1705 -0.1593  2.0631
 6866TIP3   OH242088   3.323   0.422   4.642 -0.0275  0.7440 -0.1591
 6866TIP3    H142089   3.255   0.468   4.691 -1.1676 -0.2851 -0.7237
 6866TIP3    H242090   3.278   0.393   4.562  1.1439  0.2413 -0.6407
 6867TIP3   OH242091   2.183   4.333   1.448  0.2910  0.2655  0.0224
 6867TIP3    H142092   2.141   4.417   1.430 -0.2346 -0.2575 -1.1929
 6867TIP3    H242093   2.118   4.285   1.499 -0.1717 -0.1478 -0.9606
 6868TIP3   OH242094   0.902   2.832   5.446 -0.1590 -0.0669  0.4571
 6868TIP3    H142095   0.929   2.908   5.498  1.3157 -1.0166  1.1051
 6868TIP3    H242096   0.888   2.868   5.358  1.4075  0.8209  0.5455
 6869TIP3   OH242097   1.193   5.556  16.418  0.2281 -0.3726  0.0339
 6869TIP3    H142098   1.111   5.534  16.375 -0.1456  0.9860  0.0044
 6869TIP3    H242099   1.206   5.649  16.397  1.0642 -0.2216  1.1909
 6870TIP3   OH242100   4.155   4.457  16.823 -0.0323 -0.0798  0.1227
 6870TIP3    H142101   4.062   4.457  16.801  0.4406  1.0316 -1.9087
 6870TIP3    H242102   4.160   4.506  16.905 -1.1339  0.5504 -0.1781
 6871TIP3   OH242103   5.070   2.685   1.171 -0.3944 -0.0152 -0.2210
 6871TIP3    H142104   5.010   2.737   1.224 -0.6060 -1.0529  0.5961
 6871TIP3    H242105   5.157   2.717   1.194 -0.5171 -0.0916  0.3453
 6872TIP3   OH242106   5.966   0.621  14.655 -0.1466  0.6567 -0.7447
 6872TIP3    H142107   5.950   0.643  14.563  1.1032  2.2424 -0.5875
 6872TIP3    H242108   5.918   0.687  14.705  2.0698  1.9709 -0.2823
 6873TIP3   OH242109   6.090   6.338  12.568  0.3037 -0.0782  0.2181
 6873TIP3    H142110   6.031   6.283  12.516  1.3329 -0.6014 -0.4084
 6873TIP3    H242111   6.056   6.332  12.657 -1.2563  0.5200 -0.3127
 6874TIP3   OH242112   3.903   5.452  14.508  0.3694 -0.4215 -0.4146
 6874TIP3    H142113   3.925   5.491  14.593 -0.0724 -0.9938 -0.0335
 6874TIP3    H242114   3.848   5.518  14.466 -1.0141 -0.9289  0.5468
 6875TIP3   OH242115   1.341   3.951  12.940  0.3112 -0.0668 -0.7607
 6875TIP3    H142116   1.369   3.891  12.872  0.3751  1.3409 -2.0143
 6875TIP3    H242117   1.412   4.015  12.946  0.7017 -0.6582  1.2394
 6876TIP3   OH242118   5.714   6.201   0.177 -0.5333  0.0424  0.0618
 6876TIP3    H142119   5.681   6.148   0.105 -0.3743 -0.1684  0.1454
 6876TIP3    H242120   5.748   6.138   0.241  1.3854  0.3011 -0.6681
 6877TIP3   OH242121   6.540   0.289   3.288 -0.1362 -0.9618  0.4138
 6877TIP3    H142122   6.575   0.333   3.366 -1.2110 -1.9876  1.4875
 6877TIP3    H242123   6.457   0.334   3.271  0.2133 -0.5726 -0.3081
 6878TIP3   OH242124   0.881   5.845  14.560 -0.0625  0.2778 -1.1102
 6878TIP3    H142125   0.889   5.941  14.558  1.5582  0.1269 -2.0599
 6878TIP3    H242126   0.837   5.823  14.478 -0.9402  0.2427 -0.6384
 6879TIP3   OH242127   5.034   0.131  14.077 -0.3659  0.7178 -0.5754
 6879TIP3    H142128   5.068   0.140  13.988 -1.5401  1.9975 -0.9282
 6879TIP3    H242129   4.963   0.067  14.070 -2.2558  2.7737 -1.1460
 6880TIP3   OH242130   3.463   2.102  14.762 -0.8819  0.8812 -0.3803
 6880TIP3    H142131   3.388   2.052  14.794  0.0902  0.1893  0.8856
 6880TIP3    H242132   3.440   2.193  14.780 -1.7008  0.7264 -0.6073
 6881TIP3   OH242133   4.755   5.901  12.232  0.3643  0.4295 -0.0337
 6881TIP3    H142134   4.808   5.967  12.278  1.6787 -0.7413  0.1475
 6881TIP3    H242135   4.676   5.892  12.285  1.1245  0.3171  1.0868
 6882TIP3   OH242136   3.980   2.012  15.994 -0.2970 -0.2548  0.3041
 6882TIP3    H142137   3.979   2.108  15.993  0.4593 -0.2488 -0.8174
 6882TIP3    H242138   3.889   1.987  15.978 -0.3948  0.2804  0.0054
 6883TIP3   OH242139   2.492   4.819  10.321 -0.4379  0.3907  0.0590
 6883TIP3    H142140   2.457   4.798  10.407  1.6816 -0.4836  0.7388
 6883TIP3    H242141   2.529   4.907  10.330 -2.3902  1.3073 -0.6521
 6884TIP3   OH242142   0.380   4.939  13.170  0.0559  0.9034  0.1412
 6884TIP3    H142143   0.393   4.968  13.260  0.6693  1.0751 -0.0030
 6884TIP3    H242144   0.454   4.976  13.122  0.1176  0.2185 -0.2962
 6885TIP3   OH242145   0.075   6.777   1.114 -0.1480  0.3026 -0.7887
 6885TIP3    H142146   0.066   6.702   1.055  3.0113  0.0424 -1.0180
 6885TIP3    H242147   0.109   6.739   1.196  0.2993  1.3166 -0.4985
 6886TIP3   OH242148   1.363   2.985   2.719 -0.5093  0.2390 -0.0967
 6886TIP3    H142149   1.399   2.952   2.637  3.5496 -0.6956  1.9172
 6886TIP3    H242150   1.340   2.906   2.768 -2.5344  0.7758 -0.1672
 6887TIP3   OH242151   1.972   6.744   6.194  0.0060 -0.4756  0.3351
 6887TIP3    H142152   2.040   6.721   6.257 -0.0835 -0.1467  0.5526
 6887TIP3    H242153   1.912   6.800   6.243 -0.3059 -0.5871  0.0826
 6888TIP3   OH242154   4.357   0.872   3.628 -0.6328 -0.1515 -0.3575
 6888TIP3    H142155   4.368   0.946   3.687 -1.2507  0.0903 -0.5451
 6888TIP3    H242156   4.287   0.898   3.568  0.2420 -0.2384 -1.4433
 6889TIP3   OH242157   5.997   0.250  15.650 -0.4249  0.0136 -0.3948
 6889TIP3    H142158   5.928   0.195  15.615 -0.4831  0.5324 -1.1088
 6889TIP3    H242159   5.985   0.247  15.745 -2.0167  0.8505 -0.5459
 6890TIP3   OH242160   1.475   3.232  15.318  0.3949  0.0205 -0.0245
 6890TIP3    H142161   1.514   3.315  15.291 -0.2833  1.5111  3.2956
 6890TIP3    H242162   1.388   3.233  15.278  0.8495  0.3230 -1.0193
 6891TIP3   OH242163   4.503   2.153  14.167  0.4101  0.0788  0.1825
 6891TIP3    H142164   4.593   2.130  14.147 -0.6648 -2.7037 -1.8139
 6891TIP3    H242165   4.468   2.189  14.086 -1.4707 -2.9987 -0.4612
 6892TIP3   OH242166   2.175   0.808   2.651  0.2090  0.0399 -0.2790
 6892TIP3    H142167   2.254   0.819   2.704 -0.3421 -0.1064  0.5862
 6892TIP3    H242168   2.207   0.797   2.562  1.2139 -0.8128  0.1686
 6893TIP3   OH242169   6.739   6.512  13.125 -0.0736  0.1121 -0.0497
 6893TIP3    H142170   6.669   6.482  13.066  0.1051 -2.5885  1.0240
 6893TIP3    H242171   6.814   6.458  13.101  0.5814  0.4356  1.2623
 6894TIP3   OH242172   2.392   5.866  12.570 -0.0089 -0.5980  0.0298
 6894TIP3    H142173   2.375   5.880  12.663  1.9373  0.5302  0.2360
 6894TIP3    H242174   2.400   5.954  12.534  2.1288 -1.0324 -0.6325
 6895TIP3   OH242175   1.931   6.445  14.170 -0.7150 -0.1595  0.3718
 6895TIP3    H142176   2.009   6.500  14.173 -0.0507 -0.8912 -2.3403
 6895TIP3    H242177   1.877   6.476  14.242  2.7451 -0.6627  3.3693
 6896TIP3   OH242178   6.288   1.135   4.188 -0.4778  0.8377  0.3647
 6896TIP3    H142179   6.216   1.073   4.202 -0.1105  0.1978 -0.4883
 6896TIP3    H242180   6.348   1.119   4.261  0.3523 -0.9025 -0.6554
 6897TIP3   OH242181   2.529   4.408  15.514 -0.1052 -0.0228  0.4471
 6897TIP3    H142182   2.530   4.413  15.418 -1.5905 -0.9143  0.3695
 6897TIP3    H242183   2.588   4.336  15.535  0.1507  0.1136  0.1985
 6898TIP3   OH242184   5.945   2.539  14.256  0.3739 -0.3896  0.1162
 6898TIP3    H142185   5.910   2.594  14.326  0.4245  0.9024 -0.8506
 6898TIP3    H242186   5.883   2.467  14.248  1.2482 -1.4829  2.6238
 6899TIP3   OH242187   6.314   1.551  15.067  0.7550  0.6592  0.5192
 6899TIP3    H142188   6.356   1.590  15.144  0.8583 -0.3224  0.9772
 6899TIP3    H242189   6.238   1.606  15.050  0.7588  0.9134  1.3011
 6900TIP3   OH242190   0.995   0.404  14.727  0.1721 -0.1901 -0.2206
 6900TIP3    H142191   1.037   0.338  14.783  0.3351 -2.1485 -2.5527
 6900TIP3    H242192   1.059   0.474  14.719  0.7812 -0.6385  0.7337
 6901TIP3   OH242193   5.557   3.050  10.772 -0.4893 -0.6966  0.2753
 6901TIP3    H142194   5.623   3.041  10.841 -0.6302  0.8324  0.6238
 6901TIP3    H242195   5.492   2.983  10.793 -0.2344 -0.6388  1.2859
 6902TIP3   OH242196   4.438   2.310   4.561  0.0598  0.6384  0.2394
 6902TIP3    H142197   4.349   2.292   4.529  0.3358  0.7658 -0.6222
 6902TIP3    H242198   4.477   2.365   4.493  0.9971  0.1026  0.3325
 6903TIP3   OH242199   1.295   5.264   0.244 -0.4918  0.1296  0.6449
 6903TIP3    H142200   1.354   5.214   0.300  0.7893  2.3326  1.3452
 6903TIP3    H242201   1.242   5.315   0.304 -2.2908 -0.9117 -0.0354
 6904TIP3   OH242202   2.216   6.352   4.511  0.0166 -0.5699  0.7702
 6904TIP3    H142203   2.226   6.391   4.598  1.7112 -1.0396  0.8069
 6904TIP3    H242204   2.139   6.395   4.474 -0.4324 -0.0183  2.3142
 6905TIP3   OH242205   3.976   5.778  14.063  0.0735  0.0430  0.0227
 6905TIP3    H142206   4.011   5.696  14.097  0.2120  0.1025  0.0207
 6905TIP3    H242207   3.945   5.826  14.140  0.2902  0.1316  0.0532
 6906TIP3   OH242208   2.736   6.613  16.390 -0.1247 -0.3373  0.0186
 6906TIP3    H142209   2.732   6.521  16.364  0.9587 -0.8649  1.6439
 6906TIP3    H242210   2.647   6.646  16.376 -0.2372 -1.3004 -1.6979
 6907TIP3   OH242211   1.749   5.529   0.004  0.3122  0.3712  0.0315
 6907TIP3    H142212   1.717   5.442  -0.019  1.9827 -0.6157  1.3113
 6907TIP3    H242213   1.796   5.558  -0.074  1.4840 -0.7477  0.2966
 6908TIP3   OH242214   3.135   6.329   5.925 -0.4308  0.1401  0.2696
 6908TIP3    H142215   3.132   6.336   6.020  2.1317  0.2442  0.3651
 6908TIP3    H242216   3.167   6.414   5.895  1.3898 -0.7700 -0.4800
 6909TIP3   OH242217   1.851   2.673   3.736 -0.4166 -0.3084 -0.4230
 6909TIP3    H142218   1.881   2.758   3.704 -0.1972 -0.1367  0.2257
 6909TIP3    H242219   1.918   2.611   3.707 -0.6196 -0.2758 -0.9693
 6910TIP3   OH242220   1.398   5.153  15.512  0.0916 -0.1970 -0.1274
 6910TIP3    H142221   1.326   5.183  15.456  0.2366 -0.2439 -0.3423
 6910TIP3    H242222   1.358   5.141  15.598 -0.3637 -1.0844 -0.4563
 6911TIP3   OH242223   5.372   0.880   5.471  0.5861 -0.0002 -0.3747
 6911TIP3    H142224   5.339   0.818   5.406  1.2170  0.5567 -1.2379
 6911TIP3    H242225   5.459   0.847   5.493 -0.6103 -1.6436  2.1283
 6912TIP3   OH242226   2.929   4.858  15.247  0.4327 -0.0619 -0.1846
 6912TIP3    H142227   2.844   4.820  15.224  0.3296 -2.2204  3.5074
 6912TIP3    H242228   2.986   4.836  15.172 -1.6810 -0.4676 -1.7201
 6913TIP3   OH242229   0.773   3.978   6.440 -0.1188 -0.6146 -0.0113
 6913TIP3    H142230   0.862   4.011   6.427 -0.2127  1.8016  4.4377
 6913TIP3    H242231   0.784   3.902   6.498 -1.0555  1.6197  3.2538
 6914TIP3   OH242232   3.122   4.210  11.673 -0.4032 -0.2893  0.0899
 6914TIP3    H142233   3.198   4.155  11.692 -1.4575 -1.8206 -0.0546
 6914TIP3    H242234   3.060   4.190  11.743 -0.1253  2.0712  1.0754
 6915TIP3   OH242235   4.983   5.054   4.788  0.0814 -0.2301 -0.0342
 6915TIP3    H142236   5.035   5.132   4.768 -0.4621  0.3000  0.5784
 6915TIP3    H242237   5.047   4.983   4.794  0.9520  0.7112  2.3752
 6916TIP3   OH242238   5.848   6.478   0.606  0.1976  0.1148  0.3107
 6916TIP3    H142239   5.786   6.442   0.543  0.9093  1.2068 -1.0522
 6916TIP3    H242240   5.796   6.539   0.658 -0.3853 -0.7608  0.7658
 6917TIP3   OH242241   4.598   6.587   5.508 -0.0634 -0.1522  0.1735
 6917TIP3    H142242   4.599   6.528   5.432  0.0315  1.8181 -1.3910
 6917TIP3    H242243   4.604   6.675   5.470 -1.8981  0.9564  2.3674
 6918TIP3   OH242244   2.430   3.024   1.401  0.2154 -0.2660 -0.2515
 6918TIP3    H142245   2.432   2.931   1.421  0.2347  0.1230  1.6884
 6918TIP3    H242246   2.342   3.041   1.368  0.6129 -1.1997 -1.7791
 6919TIP3   OH242247   2.032   2.131  17.286 -0.1449 -0.7388 -0.6429
 6919TIP3    H142248   1.967   2.061  17.279 -1.8827  0.7866 -0.1024
 6919TIP3    H242249   2.005   2.196  17.221 -0.3323  0.7897  0.9195
 6920TIP3   OH242250   6.599   3.423   0.221 -0.1974 -0.0700  0.3457
 6920TIP3    H142251   6.561   3.352   0.273 -1.6036 -0.3482 -1.0199
 6920TIP3    H242252   6.523   3.468   0.184  0.8052 -0.2561 -1.9795
 6921TIP3   OH242253   0.174   6.626   2.424 -0.2719  0.1302 -0.2210
 6921TIP3    H142254   0.137   6.652   2.509 -0.6149 -1.7238  0.2035
 6921TIP3    H242255   0.129   6.545   2.402 -1.1049  1.2193 -2.7951
 6922TIP3   OH242256   0.835   6.318   2.010 -0.0423 -0.0534  0.0705
 6922TIP3    H142257   0.789   6.399   2.033  1.0960  0.5476  0.2718
 6922TIP3    H242258   0.877   6.290   2.092  0.0104 -0.5589 -0.1280
 6923TIP3   OH242259   5.875   4.813   2.472  0.4976  0.1505  0.5587
 6923TIP3    H142260   5.947   4.874   2.490 -0.6815  1.7831 -0.1426
 6923TIP3    H242261   5.913   4.749   2.413  0.8719  2.1490 -1.4505
 6924TIP3   OH242262   0.133   0.076   5.423 -0.6176 -0.8023 -0.6331
 6924TIP3    H142263   0.059   0.016   5.410  0.6033 -2.9365  1.8713
 6924TIP3    H242264   0.123   0.107   5.513  0.4776  0.4554 -0.9211
 6925TIP3   OH242265   5.399   6.651   4.663  0.1533 -0.7270 -0.3393
 6925TIP3    H142266   5.393   6.643   4.759  1.0314 -1.9486 -0.3700
 6925TIP3    H242267   5.431   6.740   4.648  0.7926 -0.8015  0.5396
 6926TIP3   OH242268   1.780   2.482  16.346 -0.4479  0.5753  0.7107
 6926TIP3    H142269   1.808   2.398  16.383 -1.7774  0.4296  1.4346
 6926TIP3    H242270   1.722   2.519  16.413 -2.6184  0.4848 -1.0505
 6927TIP3   OH242271   1.142   3.749  15.742  0.3772 -0.0556 -1.0656
 6927TIP3    H142272   1.165   3.785  15.657 -0.1952  0.4789 -0.9946
 6927TIP3    H242273   1.115   3.825  15.794 -1.4513 -0.6635 -1.1098
 6928TIP3   OH242274   1.466   3.405   4.834  0.0658  0.1781  0.0365
 6928TIP3    H142275   1.455   3.498   4.853  1.4471  0.7353 -1.7411
 6928TIP3    H242276   1.465   3.399   4.738 -4.0175 -2.1637  0.0816
 6929TIP3   OH242277   0.874   6.185   3.637  0.0692  0.0267 -0.3724
 6929TIP3    H142278   0.903   6.184   3.729 -2.1400 -1.7563  0.3424
 6929TIP3    H242279   0.880   6.277   3.611  3.1331  0.2214  0.7335
 6930TIP3   OH242280   4.933   6.752  13.749  0.0834  0.2841 -0.0417
 6930TIP3    H142281   4.978   6.674  13.780  0.6290  1.7592  3.0581
 6930TIP3    H242282   5.002   6.804  13.708  0.2430  0.3462  0.3054
 6931TIP3   OH242283   6.363   3.619   2.845  0.5271  0.6222 -0.1328
 6931TIP3    H142284   6.366   3.558   2.771 -1.0707 -0.0367  0.3275
 6931TIP3    H242285   6.315   3.695   2.813  0.2773  0.5509  0.0687
 6932TIP3   OH242286   6.167   5.520   1.856 -0.3692 -0.5270  0.3501
 6932TIP3    H142287   6.261   5.509   1.863 -0.3007 -0.2065 -0.0245
 6932TIP3    H242288   6.143   5.572   1.933  0.0972  1.3316 -0.7122
 6933TIP3   OH242289   1.313   1.195   6.604  0.3631  0.3197 -0.3062
 6933TIP3    H142290   1.404   1.220   6.618  0.1375  0.7407  0.4316
 6933TIP3    H242291   1.307   1.178   6.510  1.3558 -0.3293 -0.2537
 6934TIP3   OH242292   4.631   6.127  15.174 -0.4337 -0.2767  0.3820
 6934TIP3    H142293   4.692   6.201  15.174  1.3770 -1.7133 -0.0892
 6934TIP3    H242294   4.590   6.129  15.088  1.1871 -1.0191 -0.4487
 6935TIP3   OH242295   6.481   4.611   6.678 -0.1793 -1.1643  0.1164
 6935TIP3    H142296   6.405   4.571   6.719  0.1945 -1.3904  0.5981
 6935TIP3    H242297   6.555   4.583   6.732  0.1955 -0.6040 -0.0974
 6936TIP3   OH242298   5.795   5.109   0.375  0.0552 -0.1763 -0.1164
 6936TIP3    H142299   5.889   5.099   0.384 -0.0831 -1.2282  0.2600
 6936TIP3    H242300   5.783   5.199   0.343  1.2699 -0.5741 -1.7467
 6937TIP3   OH242301   4.685   5.370  16.576  0.7986 -0.8224 -0.3002
 6937TIP3    H142302   4.620   5.306  16.547  0.4380  0.0860 -1.5394
 6937TIP3    H242303   4.755   5.364  16.511  0.7663  0.0340 -0.4227
 6938TIP3   OH242304   4.328   5.414  14.665  0.2707  0.2198 -0.6317
 6938TIP3    H142305   4.404   5.469  14.686  0.7627 -1.2170  1.5607
 6938TIP3    H242306   4.263   5.437  14.732 -0.1101 -0.7004 -0.6810
 6939TIP3   OH242307   2.694   2.137   3.275  0.3749 -0.2169 -0.2044
 6939TIP3    H142308   2.676   2.043   3.279  0.3998 -0.1781  0.8479
 6939TIP3    H242309   2.732   2.158   3.360 -2.8026  1.4032  0.8937
 6940TIP3   OH242310   3.068   1.971  13.498 -0.1702  0.3311 -0.3660
 6940TIP3    H142311   3.105   1.930  13.420  0.1828  1.9737 -1.0707
 6940TIP3    H242312   3.123   1.939  13.570 -0.6832 -1.4187 -0.7257
 6941TIP3   OH242313   3.741   4.784   2.219 -0.2451 -0.5035  0.3430
 6941TIP3    H142314   3.732   4.878   2.236  1.3974 -0.4703  1.1552
 6941TIP3    H242315   3.831   4.773   2.190  0.4087 -2.1670  2.8212
 6942TIP3   OH242316   6.293   4.293   2.519  0.0413 -0.2140  0.2061
 6942TIP3    H142317   6.243   4.286   2.438 -0.1151  2.3260  0.0430
 6942TIP3    H242318   6.232   4.266   2.587 -0.3553 -0.7381 -0.3421
 6943TIP3   OH242319   2.684   1.609   0.234 -0.0251  0.3563  0.0292
 6943TIP3    H142320   2.689   1.705   0.240  1.6151  0.1633  2.1516
 6943TIP3    H242321   2.682   1.579   0.325 -0.2789 -1.6609 -0.6200
 6944TIP3   OH242322   2.221   1.204  14.021  0.1062 -0.6657 -0.6919
 6944TIP3    H142323   2.128   1.214  14.000 -0.4308 -0.2318  1.8264
 6944TIP3    H242324   2.230   1.234  14.111  2.7176 -0.6265 -0.9020
 6945TIP3   OH242325   0.814   6.755  15.446  0.7405 -0.2901 -0.8086
 6945TIP3    H142326   0.762   6.835  15.449 -0.2306 -0.7770 -3.2157
 6945TIP3    H242327   0.750   6.684  15.452  1.5226 -0.9051  0.4918
 6946TIP3   OH242328   3.402   4.640  16.816 -0.0264 -0.2837  0.5115
 6946TIP3    H142329   3.319   4.687  16.803  0.8624  1.5504  1.3645
 6946TIP3    H242330   3.390   4.592  16.898 -0.5850 -0.8407  0.1198
 6947TIP3   OH242331   3.994   5.350   4.406  0.0708 -0.0399 -0.3743
 6947TIP3    H142332   3.936   5.424   4.386 -1.1284 -0.0880  2.6389
 6947TIP3    H242333   3.937   5.274   4.404  0.2269 -0.2253  1.5254
 6948TIP3   OH242334   0.531   2.510  15.740 -0.3391 -0.3023 -0.4769
 6948TIP3    H142335   0.517   2.416  15.734  2.9140 -0.8407 -0.3345
 6948TIP3    H242336   0.551   2.538  15.651 -1.1931  0.2682 -0.5041
 6949TIP3   OH242337   3.821   2.656   3.334  0.0510 -0.1236  0.7258
 6949TIP3    H142338   3.864   2.580   3.371  1.0465  0.6610  1.2171
 6949TIP3    H242339   3.729   2.632   3.328  0.5113 -1.7554 -0.1493
 6950TIP3   OH242340   4.858   3.206   4.164  0.2852  0.1011  0.5278
 6950TIP3    H142341   4.860   3.122   4.209 -0.2659 -1.2052 -1.7841
 6950TIP3    H242342   4.949   3.228   4.149  0.4230 -0.2396  0.8636
 6951TIP3   OH242343   5.383   4.173  14.795 -0.0216 -0.6986  1.0240
 6951TIP3    H142344   5.313   4.197  14.734 -1.1492  0.1412  2.6176
 6951TIP3    H242345   5.347   4.099  14.844 -0.4555  0.7503  2.9494
 6952TIP3   OH242346   2.600   3.850  11.147 -0.1483  0.2820  0.4715
 6952TIP3    H142347   2.647   3.932  11.133 -0.8593  0.7285  0.6524
 6952TIP3    H242348   2.512   3.877  11.174  0.5542 -0.5553  3.8182
 6953TIP3   OH242349   4.782   2.406   0.259 -0.2711  0.1791  0.2515
 6953TIP3    H142350   4.861   2.455   0.237  0.7630 -0.0424  3.3462
 6953TIP3    H242351   4.710   2.460   0.226  1.0577  1.1394 -1.1535
 6954TIP3   OH242352   3.600   3.507   3.978  0.2131 -0.2398  0.4975
 6954TIP3    H142353   3.594   3.517   3.883  0.5860  0.9273  0.5898
 6954TIP3    H242354   3.639   3.421   3.991  0.3832 -0.3039 -0.4114
 6955TIP3   OH242355   3.581   5.073  14.031  0.1083  0.8668 -0.3211
 6955TIP3    H142356   3.590   5.102  14.122 -0.0135  1.5076 -0.5130
 6955TIP3    H242357   3.490   5.044  14.024  0.2164  0.4742 -0.1434
 6956TIP3   OH242358   2.321   1.501   4.294 -1.0509  0.0507  0.4233
 6956TIP3    H142359   2.328   1.581   4.346  0.7310  1.4539 -1.8603
 6956TIP3    H242360   2.397   1.449   4.319 -1.7818 -0.5964  1.3300
 6957TIP3   OH242361   0.311   6.291  12.486  0.2796 -0.5118  0.2105
 6957TIP3    H142362   0.237   6.346  12.463 -0.3948 -1.4490  0.1420
 6957TIP3    H242363   0.316   6.296  12.582  1.5098  1.3221  0.0869
 6958TIP3   OH242364   6.003   0.640   0.877 -0.0474  0.0689 -0.6845
 6958TIP3    H142365   6.013   0.545   0.874 -0.4811  0.0410 -1.1309
 6958TIP3    H242366   5.909   0.654   0.878  0.0192  0.4826 -0.2069
 6959TIP3   OH242367   5.640   3.966  13.948  0.2298  0.1026  0.2630
 6959TIP3    H142368   5.679   4.052  13.929 -0.4505  0.5025  0.6236
 6959TIP3    H242369   5.599   3.977  14.034  0.3039 -0.6438  0.3916
 6960TIP3   OH242370   6.639   2.920   1.837  0.9843 -0.0108  0.5183
 6960TIP3    H142371   6.550   2.940   1.806  1.0695 -0.5612 -0.1077
 6960TIP3    H242372   6.629   2.902   1.930  0.6278  1.1160  0.7000
 6961TIP3   OH242373   5.333   4.377   2.760  0.3825  0.3001 -0.0900
 6961TIP3    H142374   5.415   4.332   2.781  1.6674  1.5439 -2.1891
 6961TIP3    H242375   5.333   4.454   2.817  1.0835  0.7202 -0.6502
 6962TIP3   OH242376   1.900   5.652  10.484  0.0575  0.8397  0.5197
 6962TIP3    H142377   1.877   5.559  10.488 -1.3015  1.1804  0.9189
 6962TIP3    H242378   1.816   5.698  10.492  0.9268  2.1341  2.4931
 6963TIP3   OH242379   0.776   4.837  16.154 -0.3294  0.3265 -0.5721
 6963TIP3    H142380   0.756   4.801  16.068 -1.8833 -0.4837  0.1049
 6963TIP3    H242381   0.770   4.932  16.143  0.4775  0.2646 -1.5859
 6964TIP3   OH242382   5.382   2.311  12.601 -0.0766 -0.0661  0.0405
 6964TIP3    H142383   5.420   2.340  12.518  0.9731  1.1295  0.9341
 6964TIP3    H242384   5.443   2.341  12.668 -1.7005  0.3336  1.3746
 6965TIP3   OH242385   6.258   4.680   4.904 -0.6546 -0.7990 -0.0737
 6965TIP3    H142386   6.218   4.767   4.896  0.7843 -0.0433  0.7464
 6965TIP3    H242387   6.329   4.681   4.840 -0.2802 -1.1653  0.3429
 6966TIP3   OH242388   2.823   0.789   6.025  0.1710 -0.4060  0.0259
 6966TIP3    H142389   2.743   0.761   5.982  0.5389 -1.8549  0.2304
 6966TIP3    H242390   2.801   0.871   6.069 -1.0968 -0.6457 -0.1693
 6967TIP3   OH242391   0.397   4.302   2.159  0.0442 -0.2904  0.3009
 6967TIP3    H142392   0.365   4.259   2.239  1.5429 -0.6172  0.7397
 6967TIP3    H242393   0.390   4.234   2.092  0.2187 -0.4890  0.4827
 6968TIP3   OH242394   0.072   6.389  12.809  0.4349 -0.6795  0.3691
 6968TIP3    H142395   0.156   6.425  12.782  0.3013 -0.3408  0.4038
 6968TIP3    H242396   0.093   6.332  12.883  1.1206 -3.5261 -1.9371
 6969TIP3   OH242397   4.734   4.620   2.998 -0.4125 -0.2236 -0.2639
 6969TIP3    H142398   4.725   4.682   2.926 -1.9694 -2.3168 -1.9092
 6969TIP3    H242399   4.652   4.626   3.046 -0.4352 -0.7712 -0.2302
 6970TIP3   OH242400   4.680   6.234   1.280  0.5342 -0.1299  0.5428
 6970TIP3    H142401   4.754   6.279   1.239  0.6335 -1.7180 -1.0731
 6970TIP3    H242402   4.621   6.213   1.208 -0.7845 -0.2206  1.6209
 6971TIP3   OH242403   4.007   0.072   0.313 -0.3827 -0.5273  0.5056
 6971TIP3    H142404   4.060   0.013   0.259 -1.4917 -1.0108 -0.0789
 6971TIP3    H242405   3.950   0.116   0.251 -1.3144 -0.7031  1.2284
 6972TIP3   OH242406   6.010   1.868  11.402  0.6492  0.0295  0.1102
 6972TIP3    H142407   5.916   1.876  11.414  0.6750  0.3727  0.0980
 6972TIP3    H242408   6.048   1.921  11.473  0.7991  2.8081 -1.9963
 6973TIP3   OH242409   2.328   4.556   2.567 -0.3628 -0.5034  0.6599
 6973TIP3    H142410   2.396   4.489   2.558  0.3043  0.3236 -0.5413
 6973TIP3    H242411   2.281   4.554   2.483 -0.1048  0.7753  0.4736
 6974TIP3   OH242412   1.703   3.915  15.726  0.0160  0.4758 -0.0432
 6974TIP3    H142413   1.680   3.987  15.784 -0.8455 -0.8573  1.3208
 6974TIP3    H242414   1.795   3.896  15.747 -0.1553  0.3045  0.5561
 6975TIP3   OH242415   4.238   3.784   3.883 -0.6258  0.8130  0.4566
 6975TIP3    H142416   4.165   3.847   3.885 -0.7852  0.6165  1.0683
 6975TIP3    H242417   4.316   3.838   3.880 -0.7475  1.0491  1.5059
 6976TIP3   OH242418   6.052   4.620   0.534 -0.6807 -0.1840  0.1417
 6976TIP3    H142419   6.109   4.619   0.610 -0.1696 -0.0218 -0.2384
 6976TIP3    H242420   6.056   4.710   0.502 -0.1450 -0.4815 -0.6345
 6977TIP3   OH242421   6.543   4.756   1.906 -0.9744 -0.0020  0.8175
 6977TIP3    H142422   6.536   4.746   1.811 -1.2951 -1.3915  0.9715
 6977TIP3    H242423   6.633   4.731   1.927 -0.3618  2.0371  0.6889
 6978TIP3   OH242424   3.786   2.439   1.238  0.0159 -0.6759 -0.3040
 6978TIP3    H142425   3.698   2.418   1.208 -0.2555 -0.1112  0.0910
 6978TIP3    H242426   3.843   2.382   1.187 -0.6387 -1.6797  0.0773
 6979TIP3   OH242427   2.964   2.080   2.562  0.6558 -0.1474  0.1762
 6979TIP3    H142428   2.936   2.076   2.654  2.3127  2.8230  0.8786
 6979TIP3    H242429   2.883   2.079   2.512 -0.3085 -0.7704  1.7188
 6980TIP3   OH242430   3.821   0.016  13.057  0.4341 -0.0012  0.3258
 6980TIP3    H142431   3.854   0.086  13.000  0.6259  0.6307  1.1911
 6980TIP3    H242432   3.726   0.017  13.045  0.3062  1.2873  1.2935
 6981TIP3   OH242433   2.862   1.053   4.622  0.0856 -0.5947  0.1827
 6981TIP3    H142434   2.860   1.148   4.628 -2.5623 -0.6904  1.3184
 6981TIP3    H242435   2.954   1.030   4.637  1.2232  1.8875 -2.5556
 6982TIP3   OH242436   1.763   3.633  14.198 -0.3247 -0.0652 -0.8873
 6982TIP3    H142437   1.854   3.656  14.178 -0.1757  0.4783  0.3716
 6982TIP3    H242438   1.761   3.625  14.294 -2.0687  2.0011 -0.7034
 6983TIP3   OH242439   1.614   6.063   4.102 -0.2521  0.4111 -0.5231
 6983TIP3    H142440   1.670   6.008   4.048 -1.2733 -0.2024 -0.9630
 6983TIP3    H242441   1.545   6.093   4.043 -0.9819  0.2963  0.2565
 6984TIP3   OH242442   6.193   3.267  10.875 -0.4726 -0.1609  0.3511
 6984TIP3    H142443   6.208   3.338  10.938 -0.1238 -0.0242  0.1169
 6984TIP3    H242444   6.161   3.312  10.796 -2.2832 -0.4623  0.8966
 6985TIP3   OH242445   5.027   3.142  15.705 -0.4617  0.0354  0.1712
 6985TIP3    H142446   5.078   3.119  15.783  1.7643 -0.3647 -1.3775
 6985TIP3    H242447   4.996   3.059  15.671  0.5490  0.0038 -0.6893
 6986TIP3   OH242448   4.101   1.985   3.392 -0.3616 -0.0054  0.3616
 6986TIP3    H142449   4.097   1.891   3.380 -1.1870 -0.2276  2.1970
 6986TIP3    H242450   4.181   2.000   3.441 -0.7215  0.1473  0.9075
 6987TIP3   OH242451   4.238   2.044  13.293 -0.0172 -0.1031  0.9513
 6987TIP3    H142452   4.282   2.124  13.321  0.5059 -0.2557  0.5714
 6987TIP3    H242453   4.308   1.990  13.257 -0.5205 -0.3387  0.3274
 6988TIP3   OH242454   1.443   6.089   6.221 -0.0283 -0.2508 -0.6834
 6988TIP3    H142455   1.444   6.010   6.275  1.4253 -0.8085 -1.4754
 6988TIP3    H242456   1.396   6.154   6.273 -0.6092 -1.4329  0.2835
 6989TIP3   OH242457   4.740   2.781  15.943 -0.0010 -0.0420  0.3393
 6989TIP3    H142458   4.693   2.858  15.910  2.4620  0.5515 -1.9841
 6989TIP3    H242459   4.810   2.817  15.998  0.5436 -0.6578  0.0552
 6990TIP3   OH242460   2.101   1.284  10.345 -0.6695 -0.3779  0.0325
 6990TIP3    H142461   2.171   1.255  10.403 -1.1940 -0.6348  0.5435
 6990TIP3    H242462   2.145   1.337  10.279  0.0334 -0.7180  0.2250
 6991TIP3   OH242463   1.933   0.563   1.805 -0.4291  0.4886  0.0159
 6991TIP3    H142464   1.957   0.470   1.816 -1.8946 -0.0227 -1.0189
 6991TIP3    H242465   1.927   0.574   1.710  0.1115  1.7573  0.1271
 6992TIP3   OH242466   0.570   0.367  12.449 -0.0220  0.3512  0.6246
 6992TIP3    H142467   0.565   0.276  12.420 -0.3751  0.6951 -0.4206
 6992TIP3    H242468   0.514   0.370  12.527 -1.3466  0.0351 -0.2993
 6993TIP3   OH242469   1.968   6.471  10.746  0.0697 -0.7522 -0.1039
 6993TIP3    H142470   1.979   6.539  10.680  0.1911 -0.8546 -0.1921
 6993TIP3    H242471   1.977   6.389  10.697 -0.9462 -0.8388 -0.1510
 6994TIP3   OH242472   4.755   5.198   4.786 -0.5478 -0.7700 -0.1386
 6994TIP3    H142473   4.707   5.202   4.703  0.2782  1.3050 -0.5588
 6994TIP3    H242474   4.840   5.161   4.763  0.0279  0.6868 -0.4199
 6995TIP3   OH242475   6.478   1.240  14.843  0.2089  0.5990  0.3324
 6995TIP3    H142476   6.392   1.274  14.865  0.3582  0.2503  1.5055
 6995TIP3    H242477   6.495   1.272  14.755 -1.4212  0.0831 -0.1900
 6996TIP3   OH242478   4.913   6.644  12.939 -0.0726  0.0246 -0.2212
 6996TIP3    H142479   4.863   6.579  12.889 -0.5751  2.5585 -3.1823
 6996TIP3    H242480   4.849   6.683  12.999 -0.7099  0.3822 -1.1133
 6997TIP3   OH242481   2.913   1.652  14.999  0.0131 -0.2924 -0.3940
 6997TIP3    H142482   2.928   1.559  14.983  0.8432 -0.6764  2.3699
 6997TIP3    H242483   2.838   1.654  15.059 -0.1218  0.8484 -0.5967
 6998TIP3   OH242484   1.306   2.950  11.663 -0.3218  0.2224  0.1160
 6998TIP3    H142485   1.345   2.965  11.577 -2.4460  0.6597 -0.8115
 6998TIP3    H242486   1.268   3.035  11.686  0.4731  0.1780  1.6273
 6999TIP3   OH242487   0.547   5.100  13.850 -0.9577 -0.3119  0.9428
 6999TIP3    H142488   0.538   5.028  13.912  2.1729  0.3750  2.3409
 6999TIP3    H242489   0.610   5.069  13.785  0.3144  1.0314  1.4794
 7000TIP3   OH242490   3.015   6.392  14.425  0.7235  0.1893 -0.2059
 7000TIP3    H142491   3.084   6.325  14.431 -0.3382 -0.8848  0.2092
 7000TIP3    H242492   2.996   6.415  14.516  0.3162  0.2584 -0.3079
 7001TIP3   OH242493   1.176   1.937   1.537 -0.0186  0.1470 -0.3965
 7001TIP3    H142494   1.123   1.887   1.600 -1.0403 -0.4739 -1.7131
 7001TIP3    H242495   1.198   2.017   1.583 -1.6667  0.1706  0.3968
 7002TIP3   OH242496   0.513   2.545  13.245 -0.1423  0.4927  0.5398
 7002TIP3    H142497   0.522   2.557  13.339  1.4021 -0.8521  0.5731
 7002TIP3    H242498   0.596   2.576  13.208  0.5463 -1.9599 -0.0829
 7003TIP3   OH242499   4.477   3.504  14.439  0.7038  0.1500 -0.3199
 7003TIP3    H142500   4.478   3.599  14.425 -0.6432  0.1025 -0.7915
 7003TIP3    H242501   4.569   3.480  14.445  1.0458  1.6880  1.1183
 7004TIP3   OH242502   3.665   2.107   2.165  0.6999 -0.2208 -0.1983
 7004TIP3    H142503   3.724   2.158   2.221  1.0891 -1.2621  0.3411
 7004TIP3    H242504   3.681   2.139   2.077  3.8265 -2.1661 -0.3916
 7005TIP3   OH242505   0.132   1.584   0.392  0.3940 -0.1957 -0.5868
 7005TIP3    H142506   0.114   1.551   0.304  1.2820  0.4844 -1.0378
 7005TIP3    H242507   0.103   1.514   0.451 -0.6862 -0.4487 -1.3915
 7006TIP3   OH242508   0.848   1.793   0.103  0.4262 -0.2731  0.1711
 7006TIP3    H142509   0.773   1.735   0.114 -0.5912  0.8318 -0.7259
 7006TIP3    H242510   0.874   1.782   0.012  0.9479 -0.1628  0.3014
 7007TIP3   OH242511   0.040   4.495  15.865 -0.1396  0.3013  0.1229
 7007TIP3    H142512   0.039   4.562  15.797  0.2965 -0.0904 -0.2788
 7007TIP3    H242513  -0.020   4.527  15.932 -2.0906 -0.2498 -1.3367
 7008TIP3   OH242514   6.760   1.793   1.475 -0.3562  0.2139 -0.2058
 7008TIP3    H142515   6.753   1.725   1.542  0.0392 -1.3486 -1.7068
 7008TIP3    H242516   6.671   1.828   1.467 -0.4226  0.3600  1.0558
 7009TIP3   OH242517   0.496   0.146  16.713 -0.6180  0.1373  0.3129
 7009TIP3    H142518   0.542   0.063  16.728 -0.2506  0.4063  0.6880
 7009TIP3    H242519   0.452   0.165  16.795  0.3291  0.9474  0.6485
 7010TIP3   OH242520   0.772   3.588  15.026 -0.6797  0.1518 -0.4742
 7010TIP3    H142521   0.824   3.597  14.946 -1.9771  1.6870 -1.1663
 7010TIP3    H242522   0.837   3.572  15.094  0.4228 -1.5451 -1.8679
 7011TIP3   OH242523   6.366   3.050  11.815  0.5038 -0.0784  0.7153
 7011TIP3    H142524   6.398   3.012  11.896  0.7403  0.2667  0.7843
 7011TIP3    H242525   6.339   3.139  11.839  3.5115  1.1627 -0.1958
 7012TIP3   OH242526   3.446   0.964  13.370 -0.1451  0.0514  0.1421
 7012TIP3    H142527   3.528   0.963  13.320 -0.1286  0.3021  0.1635
 7012TIP3    H242528   3.436   0.874  13.401 -1.8555 -0.9159 -3.0752
 7013TIP3   OH242529   2.186   3.761   3.131  0.0609 -0.9179  0.1881
 7013TIP3    H142530   2.173   3.772   3.225 -0.1593  0.8801 -0.0252
 7013TIP3    H242531   2.279   3.741   3.122  1.1420  3.3844  0.5294
 7014TIP3   OH242532   0.305   3.166   0.841  0.1011  0.0460 -0.0497
 7014TIP3    H142533   0.302   3.132   0.752  1.2825  0.0256 -0.0896
 7014TIP3    H242534   0.244   3.240   0.840  0.3453  0.2416 -0.9531
 7015TIP3   OH242535   4.526   3.626  14.104  0.2410  0.2968 -0.9803
 7015TIP3    H142536   4.558   3.550  14.057 -0.4327  0.4601 -1.7100
 7015TIP3    H242537   4.453   3.593  14.157  1.5713 -0.0684  0.6504
 7016TIP3   OH242538   2.433   3.986   1.682  0.3274 -0.1506 -0.0070
 7016TIP3    H142539   2.489   4.054   1.644 -0.1063  0.0870 -0.2251
 7016TIP3    H242540   2.431   4.005   1.776  0.1762  0.1590 -0.0744
 7017TIP3   OH242541   0.177   1.170  15.279  0.5378 -0.9573  0.4259
 7017TIP3    H142542   0.204   1.243  15.223  1.6148 -0.4826  1.5329
 7017TIP3    H242543   0.259   1.138  15.318  0.0956 -2.8660 -0.1647
 7018TIP3   OH242544   3.606   4.809  14.441  0.1545 -0.5905 -0.2582
 7018TIP3    H142545   3.634   4.776  14.527  1.2647  0.1326 -0.3349
 7018TIP3    H242546   3.516   4.777  14.431  0.3241 -1.4109  0.7947
 7019TIP3   OH242547   0.744   2.310   2.521  0.0095  0.2665 -0.5611
 7019TIP3    H142548   0.672   2.254   2.495 -0.5039  0.6146  0.0909
 7019TIP3    H242549   0.712   2.399   2.508 -0.5450  0.4777  1.9036
 7020TIP3   OH242550   1.738   3.831   5.419 -0.3852 -0.2471  0.3873
 7020TIP3    H142551   1.652   3.859   5.449 -0.2866 -1.2485  1.6919
 7020TIP3    H242552   1.740   3.737   5.437  0.8402 -0.3026  0.0208
 7021TIP3   OH242553   1.670   4.260   5.851  0.4975  0.4219 -0.1557
 7021TIP3    H142554   1.717   4.336   5.884 -0.5421  1.1125 -0.2601
 7021TIP3    H242555   1.644   4.284   5.762 -2.8585  1.3450  0.9900
 7022TIP3   OH242556   5.385   1.310  12.292 -0.0099  0.3486  0.3228
 7022TIP3    H142557   5.454   1.250  12.319 -1.9884 -1.4079  1.6926
 7022TIP3    H242558   5.356   1.352  12.373 -1.9746 -0.5394  0.1228
 7023TIP3   OH242559   6.313   0.277  13.422 -1.0042  0.2673 -0.2239
 7023TIP3    H142560   6.238   0.312  13.471 -0.2404 -0.3658  1.4056
 7023TIP3    H242561   6.363   0.227  13.486  1.7959  2.1161 -0.8610
 7024TIP3   OH242562   5.658   4.674  17.091  0.0716  0.0039  0.7508
 7024TIP3    H142563   5.649   4.668  16.996 -0.8667  2.5234  0.6413
 7024TIP3    H242564   5.751   4.657  17.108  0.6019  1.2635 -0.7995
 7025TIP3   OH242565   0.245   1.847   4.294  0.5154 -0.5881  0.1100
 7025TIP3    H142566   0.161   1.892   4.285  0.1948 -1.2389 -0.1188
 7025TIP3    H242567   0.283   1.884   4.374 -0.0613 -0.4270  0.3113
 7026TIP3   OH242568   0.188   2.812  14.968  0.4528  0.2186 -0.2974
 7026TIP3    H142569   0.187   2.731  14.916  2.2637 -0.5040  0.7120
 7026TIP3    H242570   0.127   2.795  15.040 -1.3618  0.8709 -1.6695
 7027TIP3   OH242571   2.526   2.361   2.709  0.7174  0.1949  0.1489
 7027TIP3    H142572   2.514   2.456   2.707  1.9529  0.3480 -0.4606
 7027TIP3    H242573   2.600   2.345   2.650  0.4687 -1.1531  0.1906
 7028TIP3   OH242574   2.387   6.429   5.855  0.2096  0.6040 -0.2408
 7028TIP3    H142575   2.349   6.500   5.803  0.7045  0.6328 -0.5638
 7028TIP3    H242576   2.475   6.459   5.877  0.8674 -0.4327 -1.4262
 7029TIP3   OH242577   0.542   5.136  12.138  0.2999 -0.0703  0.1369
 7029TIP3    H142578   0.558   5.230  12.141  1.3312 -0.2750  1.1032
 7029TIP3    H242579   0.457   5.125  12.181  0.4846  0.3464  0.6108
 7030TIP3   OH242580   4.340   0.998   0.734 -0.7364 -0.1591 -0.0311
 7030TIP3    H142581   4.432   0.987   0.759 -0.4391  0.2942 -0.9305
 7030TIP3    H242582   4.294   1.007   0.818 -0.0049 -0.7031  0.4349
 7031TIP3   OH242583   5.569   3.826   3.267  0.2054  0.4722 -0.1083
 7031TIP3    H142584   5.546   3.758   3.205 -0.3037 -0.0981  0.6946
 7031TIP3    H242585   5.581   3.905   3.214 -1.8665  0.3713 -0.7379
 7032TIP3   OH242586   2.451   5.973  11.532 -0.2856  0.8344 -0.5184
 7032TIP3    H142587   2.402   6.054  11.549  0.9902  1.4738  0.1662
 7032TIP3    H242588   2.387   5.915  11.490 -2.0839  1.0750  1.7959
 7033TIP3   OH242589   3.914   0.042   2.594  0.7473  0.0606  0.1617
 7033TIP3    H142590   3.962   0.115   2.555  0.1308  0.6145  0.4329
 7033TIP3    H242591   3.864   0.081   2.666  0.2636 -0.5881  0.1873
 7034TIP3   OH242592   1.286   4.520  13.357 -0.5479  0.1455 -0.2533
 7034TIP3    H142593   1.281   4.447  13.296  1.3595 -0.4443  0.2480
 7034TIP3    H242594   1.223   4.499  13.426 -1.3760 -0.0779 -1.0807
 7035TIP3   OH242595   0.094   4.932  12.147  0.0688  0.1310  0.6948
 7035TIP3    H142596   0.141   4.962  12.224  0.0929  0.6681  0.4765
 7035TIP3    H242597   0.002   4.954  12.165 -0.2500 -1.8506  1.5654
 7036TIP3   OH242598   6.205   4.499  11.934  0.7251 -0.4208  0.4959
 7036TIP3    H142599   6.207   4.404  11.947  1.6808 -0.2687  1.4459
 7036TIP3    H242600   6.295   4.528  11.951  0.1173  0.8458  1.6135
 7037TIP3   OH242601   4.827   5.669   3.638  0.4875  0.3184  0.1066
 7037TIP3    H142602   4.845   5.620   3.718  2.9345  1.6731  0.4386
 7037TIP3    H242603   4.875   5.622   3.569 -0.9597 -0.3858 -0.4473
 7038TIP3   OH242604   1.039   1.860  16.704 -0.2070  0.0785 -0.1860
 7038TIP3    H142605   1.064   1.929  16.642 -0.9870  1.3592  0.9110
 7038TIP3    H242606   0.951   1.835  16.677 -1.0923  1.5849  1.1895
 7039TIP3   OH242607   5.080   3.387   0.059  0.3938  0.6384  0.0183
 7039TIP3    H142608   5.079   3.401   0.154  1.0520  1.9362 -0.1618
 7039TIP3    H242609   5.170   3.405   0.033  0.3354 -0.1934 -0.7966
 7040TIP3   OH242610   3.040   6.282  13.835 -0.0109 -0.1220  0.2256
 7040TIP3    H142611   2.965   6.305  13.889 -0.6524 -1.4753 -0.0692
 7040TIP3    H242612   3.114   6.328  13.875 -1.2418  2.5402 -0.4222
 7041TIP3   OH242613   2.198   1.908  13.170 -0.1334 -0.3089 -0.2198
 7041TIP3    H142614   2.147   1.970  13.118 -0.7181 -0.1801  0.4988
 7041TIP3    H242615   2.285   1.909  13.130 -0.7089 -0.5933 -1.5146
 7042TIP3   OH242616   4.273   0.397  13.891 -0.1278 -0.7087 -0.3592
 7042TIP3    H142617   4.363   0.380  13.920 -1.3849 -3.6936  2.0187
 7042TIP3    H242618   4.239   0.460  13.954 -0.1737 -0.7083 -0.3843
 7043TIP3   OH242619   1.036   6.792   1.099  0.2510  0.3072  0.6379
 7043TIP3    H142620   1.129   6.800   1.081  0.7267 -3.1824  1.1880
 7043TIP3    H242621   1.027   6.818   1.191  0.9655 -0.8575  1.0488
 7044TIP3   OH242622   1.812   6.141   2.274  0.2838 -0.2082  0.5258
 7044TIP3    H142623   1.817   6.074   2.206  0.3361  0.1833  0.1419
 7044TIP3    H242624   1.726   6.127   2.314 -0.0608  0.0304 -0.1121
 7045TIP3   OH242625   4.894   2.580  16.315  1.1797 -0.1517  0.2722
 7045TIP3    H142626   4.821   2.635  16.287  0.2537 -0.7691  1.4488
 7045TIP3    H242627   4.952   2.639  16.363  1.4594  0.3348 -0.6452
 7046TIP3   OH242628   6.569   0.087  11.817 -0.2919  0.4431  0.0244
 7046TIP3    H142629   6.570   0.118  11.908  0.4361  0.4826  0.0135
 7046TIP3    H242630   6.566  -0.008  11.825  0.5248  0.4143  0.1119
 7047TIP3   OH242631   3.799   5.236   5.671 -0.3910 -0.1240  0.3862
 7047TIP3    H142632   3.871   5.173   5.672  0.1297  0.4525 -0.3775
 7047TIP3    H242633   3.759   5.228   5.758 -0.3527 -1.5219  0.2919
 7048TIP3   OH242634   5.051   4.831   2.968  0.2726 -0.2819 -0.3394
 7048TIP3    H142635   4.983   4.866   3.026  0.9066 -0.0461  0.2628
 7048TIP3    H242636   5.089   4.758   3.018  0.4403 -0.4318 -0.6876
 7049TIP3   OH242637   0.322   5.753  11.683 -0.5528 -0.0112  0.3368
 7049TIP3    H142638   0.280   5.712  11.608 -1.0399  0.0336  0.5820
 7049TIP3    H242639   0.257   5.748  11.753 -0.6658  1.2795  0.3373
 7050TIP3   OH242640   1.315   5.425   5.635 -0.1509  0.2558 -0.2968
 7050TIP3    H142641   1.328   5.372   5.556 -4.3474 -2.1661  0.4855
 7050TIP3    H242642   1.230   5.466   5.623 -1.1814 -0.6494  3.1492
 7051TIP3   OH242643   5.613   0.501   5.630  0.3767 -0.2700 -0.0452
 7051TIP3    H142644   5.666   0.517   5.551 -1.2717  1.7577 -0.7941
 7051TIP3    H242645   5.616   0.584   5.677 -3.1644  0.3375 -0.7662
 7052TIP3   OH242646   1.831   5.115   3.444  0.1538  0.6520  0.3543
 7052TIP3    H142647   1.776   5.080   3.374  0.1644 -1.4733  1.3783
 7052TIP3    H242648   1.833   5.210   3.428 -3.0898  0.6720 -0.1719
 7053TIP3   OH242649   4.620   0.691   2.995 -0.5565 -0.4257  0.6125
 7053TIP3    H142650   4.690   0.756   3.000 -0.0879 -0.9967  1.4470
 7053TIP3    H242651   4.595   0.674   3.086 -3.0255  1.1064  0.2726
 7054TIP3   OH242652   3.344   2.176  11.777 -0.4361  0.3812  0.1647
 7054TIP3    H142653   3.416   2.233  11.802 -0.4685  0.8044 -0.7213
 7054TIP3    H242654   3.336   2.115  11.851  0.2829  0.8477  0.6361
 7055TIP3   OH242655   1.523   1.771  10.783  0.0660 -0.1104 -0.1372
 7055TIP3    H142656   1.591   1.706  10.767 -0.4883 -0.2582 -2.0064
 7055TIP3    H242657   1.480   1.782  10.699  0.8773  3.5008 -0.1599
 7056TIP3   OH242658   2.844   1.314   1.889  0.1816 -0.0570  0.1480
 7056TIP3    H142659   2.753   1.310   1.919 -0.1825 -0.3338 -0.9842
 7056TIP3    H242660   2.879   1.227   1.906  0.0847 -0.1073  0.0877
 7057TIP3   OH242661   2.582   2.816   0.342  0.0331  0.2410 -0.2321
 7057TIP3    H142662   2.519   2.817   0.270 -1.6538  1.1371  1.1941
 7057TIP3    H242663   2.579   2.726   0.375 -0.0803  0.1262 -0.5557
 7058TIP3   OH242664   6.707   0.181   3.902 -0.1287  0.0403 -0.0114
 7058TIP3    H142665   6.648   0.216   3.834  0.3777  1.0624  0.0738
 7058TIP3    H242666   6.648   0.144   3.968 -0.6191 -2.1516 -1.6026
 7059TIP3   OH242667   0.735   2.305   2.957  0.2076  0.0232 -0.0991
 7059TIP3    H142668   0.709   2.279   3.045 -1.3530 -1.2175 -0.8887
 7059TIP3    H242669   0.705   2.233   2.901  1.4535  0.6456 -1.5992
 7060TIP3   OH242670   3.309   5.958  11.240  0.6447  0.0457 -0.1266
 7060TIP3    H142671   3.281   6.005  11.319 -1.6483 -1.3772 -0.0657
 7060TIP3    H242672   3.349   5.878  11.274  0.8638  0.0530 -0.3703
 7061TIP3   OH242673   4.118   0.592  14.039 -0.0192 -0.3122 -0.1100
 7061TIP3    H142674   4.081   0.507  14.062 -1.7258  0.0153 -1.4814
 7061TIP3    H242675   4.088   0.607  13.949  2.1967  0.7013 -0.7085
 7062TIP3   OH242676   2.487   5.339  16.540  0.2752  0.3843 -0.1372
 7062TIP3    H142677   2.582   5.337  16.535  0.2263 -0.7329 -0.5779
 7062TIP3    H242678   2.462   5.413  16.485  0.8888  0.8137  0.1464
 7063TIP3   OH242679   5.684   0.096   4.933 -0.1890 -0.8359  0.0764
 7063TIP3    H142680   5.687   0.002   4.917  0.9771 -0.9336  0.7772
 7063TIP3    H242681   5.755   0.112   4.996 -0.1320  0.5592 -0.3164
 7064TIP3   OH242682   2.781   4.532   4.075  0.2439 -0.5906 -0.5735
 7064TIP3    H142683   2.738   4.495   3.998  0.6691 -1.0297 -0.5992
 7064TIP3    H242684   2.713   4.529   4.143 -0.7552  1.6295 -1.4490
 7065TIP3   OH242685   0.330   0.462   1.493  0.4493  0.6136  0.0075
 7065TIP3    H142686   0.365   0.483   1.407  2.7162 -0.6224  0.5792
 7065TIP3    H242687   0.296   0.373   1.484  2.3467 -0.2265  0.8137
 7066TIP3   OH242688   0.034   1.300  11.529  0.4571 -0.1201  0.2028
 7066TIP3    H142689   0.067   1.244  11.459 -0.4624 -0.8286  0.3335
 7066TIP3    H242690  -0.054   1.267  11.548  0.5138  0.3588  1.3738
 7067TIP3   OH242691   0.634   3.460   2.604  0.2861  0.2319  0.1665
 7067TIP3    H142692   0.540   3.473   2.613  0.1518 -0.3831 -0.3643
 7067TIP3    H242693   0.671   3.494   2.686 -0.5885 -1.6888  1.3959
 7068TIP3   OH242694   4.388   4.304  10.841 -0.4668 -0.3324  0.7121
 7068TIP3    H142695   4.386   4.339  10.752  0.0600 -1.3268  0.3014
 7068TIP3    H242696   4.414   4.378  10.895 -1.2553  0.3988  0.0936
 7069TIP3   OH242697   4.508   5.550   5.593  0.6941  0.4408 -0.0018
 7069TIP3    H142698   4.591   5.556   5.639  1.0560 -1.8558 -0.2965
 7069TIP3    H242699   4.446   5.518   5.659  0.9560 -1.7013 -0.7338
 7070TIP3   OH242700   1.447   2.578   5.962  0.4462 -0.1883  0.5004
 7070TIP3    H142701   1.525   2.574   6.017 -0.6636  0.8235  2.2325
 7070TIP3    H242702   1.431   2.671   5.950  1.8382 -0.3527 -3.3674
 7071TIP3   OH242703   1.861   4.583   0.855  0.1079 -0.2053  0.7070
 7071TIP3    H142704   1.797   4.633   0.804  0.0346 -0.5993  0.4093
 7071TIP3    H242705   1.809   4.542   0.924 -0.2243 -1.8001 -0.4716
 7072TIP3   OH242706   0.767   6.588  12.148 -0.2042 -0.2842  1.1319
 7072TIP3    H142707   0.735   6.672  12.181 -1.1310  0.6278 -1.8963
 7072TIP3    H242708   0.689   6.538  12.126  0.3659 -0.9896  0.6540
 7073TIP3   OH242709   6.630   3.095   0.594  0.5707  0.5096  0.5062
 7073TIP3    H142710   6.599   3.176   0.553  0.7929  1.1263  1.5417
 7073TIP3    H242711   6.560   3.072   0.656  0.6852  0.1148  0.4884
 7074TIP3   OH242712   4.960   4.756  13.096 -0.1723 -0.1250 -0.2313
 7074TIP3    H142713   4.867   4.750  13.073 -0.3841  1.1017  0.3039
 7074TIP3    H242714   4.961   4.790  13.186  0.8612  2.7255 -1.2730
 7075TIP3   OH242715   4.929   3.763   4.367  0.0263 -0.0924  0.2025
 7075TIP3    H142716   4.942   3.742   4.460 -2.1997 -0.3720  0.4817
 7075TIP3    H242717   4.889   3.850   4.368 -1.1268 -0.6040 -0.4243
 7076TIP3   OH242718   6.796   6.162   1.846  0.1722 -0.2647 -0.2162
 7076TIP3    H142719   6.881   6.182   1.806  0.8925 -1.2073  0.7919
 7076TIP3    H242720   6.797   6.067   1.856 -0.2917 -0.1108  1.3502
 7077TIP3   OH242721   2.875   2.299   4.062 -0.0012 -0.9333  0.2574
 7077TIP3    H142722   2.852   2.207   4.048  2.7405 -1.8024  1.1637
 7077TIP3    H242723   2.968   2.304   4.037 -0.3339  1.7724 -0.5542
 7078TIP3   OH242724   5.744   1.699   3.577 -0.3080 -0.3481  0.6441
 7078TIP3    H142725   5.764   1.743   3.660 -1.0933 -1.3028  1.3487
 7078TIP3    H242726   5.662   1.739   3.548 -0.1111 -0.1197  0.3984
 7079TIP3   OH242727   2.035   2.058  12.023 -0.7860 -0.0028 -0.4875
 7079TIP3    H142728   1.975   1.997  12.067  0.0568 -0.5461 -0.0730
 7079TIP3    H242729   2.109   2.003  11.997  0.7968  1.1578  1.4772
 7080TIP3   OH242730   4.127   6.134  14.229 -0.3259  0.2070  0.0612
 7080TIP3    H142731   4.189   6.084  14.176  1.1848  0.3552  1.6451
 7080TIP3    H242732   4.120   6.218  14.184 -0.7994 -0.4734 -1.1408
 7081TIP3   OH242733   2.802   3.283   0.592  0.2391  0.0624  0.5956
 7081TIP3    H142734   2.798   3.188   0.606  0.1065 -0.0160  0.0130
 7081TIP3    H242735   2.858   3.294   0.515  3.2368  0.6529  2.7727
 7082TIP3   OH242736   4.435   1.987  13.840 -0.1357 -0.2903 -0.4497
 7082TIP3    H142737   4.362   2.021  13.892 -0.3564 -0.0718 -0.8983
 7082TIP3    H242738   4.501   2.057  13.842 -0.5030  0.0899 -1.1947
 7083TIP3   OH242739   6.507   0.505  16.101  0.5200 -0.2832 -0.2709
 7083TIP3    H142740   6.456   0.425  16.116  0.5278 -0.3231 -0.4525
 7083TIP3    H242741   6.495   0.557  16.181 -0.0484 -0.1586 -0.4377
 7084TIP3   OH242742   5.556   3.873   0.501 -0.5119 -0.5924 -0.0056
 7084TIP3    H142743   5.506   3.938   0.549 -0.4646  0.4087 -1.2870
 7084TIP3    H242744   5.647   3.899   0.512 -0.4338 -0.9517  0.2146
 7085TIP3   OH242745   2.261   6.556  13.141  0.4068 -0.0553 -0.4337
 7085TIP3    H142746   2.175   6.515  13.156  1.2184 -1.7388 -0.3039
 7085TIP3    H242747   2.254   6.596  13.055 -0.6695  0.2239 -0.2238
 7086TIP3   OH242748   5.915   5.792  13.632 -0.5296 -0.1544 -0.2968
 7086TIP3    H142749   5.992   5.849  13.625 -0.5998  0.2877  2.0910
 7086TIP3    H242750   5.893   5.771  13.542  2.7470 -0.7650 -1.0142
 7087TIP3   OH242751   5.972   0.980  12.662 -0.1465  0.2203 -0.5644
 7087TIP3    H142752   6.065   0.981  12.683 -0.1508 -0.6863 -0.4819
 7087TIP3    H242753   5.947   1.073  12.656  0.3609  0.4826  1.2026
 7088TIP3   OH242754   1.323   6.248  15.420 -0.0430 -0.6196 -0.2410
 7088TIP3    H142755   1.330   6.323  15.360 -0.5621  0.6531  1.2392
 7088TIP3    H242756   1.230   6.247  15.445 -0.1009 -1.9677 -0.4886
 7089TIP3   OH242757   6.352   6.815   2.466 -0.6774 -0.1447 -0.1782
 7089TIP3    H142758   6.293   6.877   2.510  0.4418  0.8615 -0.0842
 7089TIP3    H242759   6.412   6.870   2.417  0.4438 -1.1497  0.0505
 7090TIP3   OH242760   1.659   1.290   1.383 -0.6486  0.3367  0.0787
 7090TIP3    H142761   1.743   1.244   1.391  0.9395  3.2946  0.9182
 7090TIP3    H242762   1.594   1.219   1.385  1.7203 -1.9275  0.7663
 7091TIP3   OH242763   6.767   3.783   3.907 -0.2913 -0.5683  0.5363
 7091TIP3    H142764   6.713   3.737   3.843  0.6786  0.2963 -0.9469
 7091TIP3    H242765   6.712   3.789   3.986 -2.2760  0.0825 -0.8531
 7092TIP3   OH242766   2.488   1.106   5.828  0.3140  0.5559  0.1090
 7092TIP3    H142767   2.409   1.074   5.784  0.3200  1.1053 -0.3122
 7092TIP3    H242768   2.471   1.093   5.921  0.6698 -1.4723 -0.0848
 7093TIP3   OH242769   0.564   5.374  16.522 -0.2901 -0.5822  0.7280
 7093TIP3    H142770   0.489   5.325  16.490 -0.5814  0.5425 -0.3641
 7093TIP3    H242771   0.635   5.310  16.525 -0.8826 -1.2744  0.1733
 7094TIP3   OH242772   1.568   5.979   2.796 -0.0208  0.0013 -0.0059
 7094TIP3    H142773   1.567   6.062   2.844  0.1046  0.0097 -0.0174
 7094TIP3    H242774   1.660   5.965   2.774  0.2587 -1.2173  1.8275
 7095TIP3   OH242775   2.870   4.086   5.734  0.6030  0.0590 -0.4088
 7095TIP3    H142776   2.888   4.155   5.798 -1.2372  0.3359 -0.1525
 7095TIP3    H242777   2.864   4.006   5.786 -0.6673  0.2489 -0.2487
 7096TIP3   OH242778   4.572   4.422  15.690 -0.4560  0.0853  0.1341
 7096TIP3    H142779   4.653   4.469  15.712  0.6572 -1.4900 -0.5189
 7096TIP3    H242780   4.510   4.450  15.757 -0.0618  3.0380 -0.6335
 7097TIP3   OH242781   0.665   5.976   2.860  0.5537  0.8435 -0.7410
 7097TIP3    H142782   0.728   5.952   2.928  0.9490  2.0527 -0.6680
 7097TIP3    H242783   0.579   5.964   2.901  0.7900  1.6952  0.0199
 7098TIP3   OH242784   5.607   1.568   3.145 -0.6623 -0.3856  0.1390
 7098TIP3    H142785   5.667   1.601   3.212  0.9151  0.0655 -1.4704
 7098TIP3    H242786   5.655   1.497   3.103 -1.0627  0.2697 -1.4642
 7099TIP3   OH242787   4.143   3.131  14.940 -0.1595  0.3674 -0.6424
 7099TIP3    H142788   4.097   3.211  14.966  1.3021  0.9100  0.3453
 7099TIP3    H242789   4.118   3.067  15.006  1.0124  0.8485  0.2805
 7100TIP3   OH242790   1.396   6.123   0.878 -0.6362 -0.0687  0.3369
 7100TIP3    H142791   1.437   6.036   0.883  0.8467  0.5543 -0.6863
 7100TIP3    H242792   1.311   6.107   0.838  0.0976 -0.9068 -0.9082
 7101TIP3   OH242793   1.060   4.277   2.294 -0.4052  0.1240 -0.4622
 7101TIP3    H142794   0.983   4.312   2.248 -1.0724  0.0150  0.5598
 7101TIP3    H242795   1.072   4.336   2.368  1.9138  1.5161 -1.8803
 7102TIP3   OH242796   5.410   4.590   4.019  0.5240  0.5261 -0.1129
 7102TIP3    H142797   5.452   4.509   4.047  1.3548  1.4961  1.5136
 7102TIP3    H242798   5.458   4.659   4.065 -1.6453  1.7778  0.3409
 7103TIP3   OH242799   3.021   1.459   5.461  0.2411  0.1734  0.4469
 7103TIP3    H142800   2.930   1.489   5.462  0.6677  1.5289 -0.4054
 7103TIP3    H242801   3.019   1.379   5.408 -0.5361 -0.0894  0.8688
 7104TIP3   OH242802   2.784   5.578  16.314  0.2533  0.5414 -0.4026
 7104TIP3    H142803   2.748   5.647  16.370 -0.2227  0.2185 -0.3085
 7104TIP3    H242804   2.711   5.551  16.258 -0.1527 -1.3322  0.9730
 7105TIP3   OH242805   5.497   1.661   1.307  0.0915 -0.1413 -0.3840
 7105TIP3    H142806   5.488   1.679   1.401  2.0281 -0.7877 -0.0647
 7105TIP3    H242807   5.424   1.709   1.267 -1.0636 -0.2845  1.4854
 7106TIP3   OH242808   6.804   2.821   2.106 -0.3073  0.4909  0.2129
 7106TIP3    H142809   6.881   2.789   2.059 -1.0982 -0.4098 -0.4739
 7106TIP3    H242810   6.839   2.851   2.190  0.7301 -0.2864  0.0754
 7107TIP3   OH242811   3.480   4.338   2.832  0.3280 -0.0465  0.6047
 7107TIP3    H142812   3.565   4.367   2.865  0.9405  0.1941 -1.1428
 7107TIP3    H242813   3.477   4.245   2.852  0.8821  0.0001  0.9180
 7108TIP3   OH242814   4.797   4.234   0.991  0.4214 -0.7736 -0.1174
 7108TIP3    H142815   4.840   4.316   1.016 -2.1602  0.9359 -1.0686
 7108TIP3    H242816   4.844   4.206   0.912  0.1696  0.7745 -0.8446
 7109TIP3   OH242817   4.055   0.584   3.531  0.1651  0.6817  0.4215
 7109TIP3    H142818   3.971   0.630   3.537 -0.9736 -1.3522  0.5050
 7109TIP3    H242819   4.052   0.518   3.600  0.9856 -0.7458 -0.8593
 7110TIP3   OH242820   6.316   2.545   4.975 -0.0593 -0.3538 -0.2483
 7110TIP3    H142821   6.370   2.600   5.032  0.5505 -0.8408 -0.3582
 7110TIP3    H242822   6.246   2.603   4.946  0.3901  0.2765 -0.0903
 7111TIP3   OH242823   4.563   5.023   4.091 -0.3763 -0.2610 -0.1157
 7111TIP3    H142824   4.509   5.018   4.170  1.0961  0.9116  0.9846
 7111TIP3    H242825   4.576   4.932   4.065  0.3378 -0.7418  1.8445
 7112TIP3   OH242826   3.783   6.696  11.110  0.3211  0.4033 -0.1393
 7112TIP3    H142827   3.811   6.607  11.087  0.4605  0.4589 -0.1870
 7112TIP3    H242828   3.687   6.693  11.104  0.3810  0.5681 -1.2910
 7113TIP3   OH242829   2.587   5.198   1.768 -0.1672 -0.2501 -0.3727
 7113TIP3    H142830   2.560   5.205   1.860  0.0413 -0.0645 -0.3263
 7113TIP3    H242831   2.647   5.123   1.766  0.4448  0.2346 -0.2155
 7114TIP3   OH242832   6.760   0.800  13.828 -0.3504  0.3345  0.4187
 7114TIP3    H142833   6.837   0.744  13.819 -1.0209 -0.4829 -0.3466
 7114TIP3    H242834   6.685   0.741  13.814 -1.0574  1.4272 -0.5210
 7115TIP3   OH242835   2.780   5.656  14.273  0.3067  0.2378 -0.1705
 7115TIP3    H142836   2.687   5.656  14.294  0.1851  1.1014 -0.7075
 7115TIP3    H242837   2.822   5.689  14.352  0.1446  0.0910 -0.0199
 7116TIP3   OH242838   2.270   4.862  15.918 -0.4179  0.5396 -0.2411
 7116TIP3    H142839   2.328   4.789  15.942 -0.7608  0.4064  0.1881
 7116TIP3    H242840   2.199   4.857  15.981 -1.6029 -0.1293 -1.6006
 7117TIP3   OH242841   4.108   1.727   3.325 -0.6062  0.1937 -0.0801
 7117TIP3    H142842   4.170   1.673   3.277 -0.5613  1.7503 -1.8231
 7117TIP3    H242843   4.022   1.694   3.300 -0.5976  1.3581 -1.6871
 7118TIP3   OH242844   2.029   3.307  15.200  1.0182  0.0892  0.4781
 7118TIP3    H142845   2.041   3.213  15.212  0.2453 -0.3596 -1.8874
 7118TIP3    H242846   2.112   3.338  15.164  1.2496  0.3167  1.1929
 7119TIP3   OH242847   2.274   2.617   3.211 -0.2915  0.1596  0.4029
 7119TIP3    H142848   2.211   2.578   3.151 -0.8759 -0.3875  1.3634
 7119TIP3    H242849   2.345   2.648   3.154 -0.1759 -1.6211 -0.4446
 7120TIP3   OH242850   0.150   0.389  16.999  0.0672 -0.6243  0.1536
 7120TIP3    H142851   0.084   0.345  16.946 -0.4838 -0.9950  1.1299
 7120TIP3    H242852   0.108   0.402  17.084  0.4172  1.3091  0.0503
 7121TIP3   OH242853   6.405   2.582   6.169  0.4977  0.2998 -0.3980
 7121TIP3    H142854   6.396   2.528   6.248 -0.3264  0.7885 -0.1453
 7121TIP3    H242855   6.499   2.599   6.162  0.8263 -1.5755 -0.7642
 7122TIP3   OH242856   0.561   1.112  15.380 -0.4923 -0.1358 -0.1052
 7122TIP3    H142857   0.508   1.187  15.354  2.4840  2.1020 -0.0537
 7122TIP3    H242858   0.573   1.061  15.300  2.2429  2.5967 -1.5009
 7123TIP3   OH242859   6.387   6.332   1.248 -0.3282 -0.3303 -0.0729
 7123TIP3    H142860   6.352   6.336   1.159 -0.8363 -0.1639  0.1324
 7123TIP3    H242861   6.466   6.279   1.240  0.8763  1.5849 -1.0224
 7124TIP3   OH242862   4.581   3.866  13.113 -0.9095  0.3073 -0.0045
 7124TIP3    H142863   4.639   3.863  13.190 -0.5748 -2.0718 -0.3141
 7124TIP3    H242864   4.624   3.927  13.053 -1.0547  2.0051  1.5959
 7125TIP3   OH242865   4.231   4.791   5.150 -0.4109  0.0289  0.1886
 7125TIP3    H142866   4.289   4.865   5.169 -0.4735  0.5608 -1.6377
 7125TIP3    H242867   4.144   4.829   5.144 -0.8214 -0.6037  1.7669
 7126TIP3   OH242868   6.151   3.833  16.670  0.2340  0.4975 -0.1820
 7126TIP3    H142869   6.236   3.835  16.625  0.6835 -0.2588  0.6080
 7126TIP3    H242870   6.147   3.745  16.708 -0.2514  1.0255  1.0210
 7127TIP3   OH242871   1.855   6.733  16.959  0.0928  0.3612  0.0895
 7127TIP3    H142872   1.828   6.824  16.949 -1.2344  0.0601  0.7541
 7127TIP3    H242873   1.950   6.736  16.967  0.1657  1.5807 -1.0704
 7128TIP3   OH242874   2.403   1.288   1.025  0.4102  0.1828  0.0579
 7128TIP3    H142875   2.484   1.261   1.069 -1.5631 -2.2855  2.4038
 7128TIP3    H242876   2.386   1.219   0.962 -1.2005 -0.6995  1.4202
 7129TIP3   OH242877   0.398   4.949  17.236 -0.1263  0.7722  0.0839
 7129TIP3    H142878   0.326   5.008  17.213  0.5731  0.7009 -2.4464
 7129TIP3    H242879   0.360   4.861  17.232 -0.9404  0.9421  2.9727
 7130TIP3   OH242880   5.678   6.644  14.778  0.3887 -0.0401  0.2881
 7130TIP3    H142881   5.672   6.622  14.685 -2.0818 -0.1154  0.4207
 7130TIP3    H242882   5.727   6.726  14.780 -0.0379  0.2626 -1.1269
 7131TIP3   OH242883   2.624   2.138   6.076  0.1407 -0.5286  0.3448
 7131TIP3    H142884   2.672   2.174   6.001 -0.3496 -0.1475  0.2122
 7131TIP3    H242885   2.690   2.089   6.125  0.6568 -0.0689  0.1217
 7132TIP3   OH242886   2.524   5.775  14.095 -0.1774 -0.3196 -0.8221
 7132TIP3    H142887   2.581   5.803  14.023 -1.3465  0.9771 -1.2559
 7132TIP3    H242888   2.550   5.830  14.169  1.4059 -2.0302 -0.0501
 7133TIP3   OH242889   1.491   6.177   0.028  0.3335  0.3362  0.2444
 7133TIP3    H142890   1.448   6.261   0.044  0.8855  0.4149  1.3294
 7133TIP3    H242891   1.580   6.190   0.059  0.7047 -0.3372 -0.5272
 7134TIP3   OH242892   0.202   3.759   1.125  0.1479 -0.0068 -0.1191
 7134TIP3    H142893   0.119   3.734   1.085 -0.3783 -0.1109  1.0208
 7134TIP3    H242894   0.262   3.770   1.051 -0.9940  0.5326 -0.9746
 7135TIP3   OH242895   5.855   6.141  13.947 -0.6703 -0.3839  0.0755
 7135TIP3    H142896   5.872   6.167  13.857  2.4902 -0.9063  0.4450
 7135TIP3    H242897   5.807   6.059  13.941  2.0526 -1.9472 -1.2089
 7136TIP3   OH242898   2.534   6.637   3.993 -0.2556 -0.3595 -0.2246
 7136TIP3    H142899   2.482   6.653   3.914  0.6280 -0.5448 -0.8503
 7136TIP3    H242900   2.518   6.546   4.015  0.2846 -0.5941 -0.7809
 7137TIP3   OH242901   4.545   2.895   4.647 -0.2495 -0.0129 -0.2265
 7137TIP3    H142902   4.506   2.844   4.718 -0.4171 -2.1060 -1.7701
 7137TIP3    H242903   4.633   2.916   4.679  0.2866 -2.3467 -0.0138
 7138TIP3   OH242904   6.048   2.639  16.035 -0.1899  0.3213  0.4339
 7138TIP3    H142905   6.132   2.615  15.996 -1.2119 -0.1385 -1.5508
 7138TIP3    H242906   5.985   2.582  15.992 -1.3551 -0.2573  2.8767
 7139TIP3   OH242907   4.825   3.338  16.959  0.8563 -0.1735 -0.2456
 7139TIP3    H142908   4.891   3.402  16.984 -0.2279  0.7551  0.3397
 7139TIP3    H242909   4.759   3.344  17.029  0.7652 -1.9591 -0.1570
 7140TIP3   OH242910   4.730   2.310   1.877  0.4308 -0.2907 -0.4359
 7140TIP3    H142911   4.744   2.215   1.886 -2.0197 -0.3969  3.6111
 7140TIP3    H242912   4.805   2.349   1.921  0.5442 -0.3861 -0.5441
 7141TIP3   OH242913   0.173   0.738   1.270  0.5289  0.0593 -0.0401
 7141TIP3    H142914   0.123   0.657   1.281 -0.3731  0.4787 -1.0730
 7141TIP3    H242915   0.217   0.728   1.186  0.3651  0.6813 -0.1986
 7142TIP3   OH242916   1.340   4.001  15.780 -0.3057  0.0098  0.9520
 7142TIP3    H142917   1.305   3.973  15.865  0.5725  1.8944  1.9732
 7142TIP3    H242918   1.283   4.073  15.753  1.1970  1.3957  1.3969
 7143TIP3   OH242919   2.093   6.151   2.165  0.2222 -0.0962  0.1288
 7143TIP3    H142920   2.163   6.153   2.100 -0.2605 -0.5140 -0.4023
 7143TIP3    H242921   2.108   6.230   2.218  0.5474  0.2996 -0.5497
 7144TIP3   OH242922   6.496   0.221  13.228 -0.6750  0.5181 -0.2451
 7144TIP3    H142923   6.423   0.270  13.265 -2.6983 -0.1248 -3.2191
 7144TIP3    H242924   6.511   0.150  13.290 -1.1884  1.8458  1.4342
 7145TIP3   OH242925   3.546   3.852   5.380 -0.0268  0.0368  0.5893
 7145TIP3    H142926   3.491   3.886   5.450  2.1471  1.3386  1.7149
 7145TIP3    H242927   3.570   3.764   5.408 -0.2533  0.0524  0.8359
 7146TIP3   OH242928   4.460   5.771   6.476  0.0287  0.1162 -0.0919
 7146TIP3    H142929   4.367   5.751   6.476 -0.3695  1.8997 -1.7066
 7146TIP3    H242930   4.472   5.834   6.405  2.1093  1.6162  1.5158
 7147TIP3   OH242931   0.288   5.602  14.300 -0.0909  0.0135 -0.2812
 7147TIP3    H142932   0.256   5.526  14.348  1.0965 -0.4277 -0.1562
 7147TIP3    H242933   0.365   5.570  14.253  1.3900  1.5173  1.0627
 7148TIP3   OH242934   3.546   0.104  12.344  0.0500  0.3616 -0.0705
 7148TIP3    H142935   3.492   0.133  12.271 -0.9513 -0.3424  0.3933
 7148TIP3    H242936   3.522   0.163  12.416 -0.7112 -0.4840  0.3730
 7149TIP3   OH242937   1.699   6.193  16.406  0.1681 -0.3115  0.2618
 7149TIP3    H142938   1.671   6.245  16.331  1.2661 -0.2695 -0.1324
 7149TIP3    H242939   1.699   6.254  16.480  1.0387  0.1465 -0.1134
 7150TIP3   OH242940   5.414   5.022  13.873  0.3524 -0.1341  0.2977
 7150TIP3    H142941   5.497   5.013  13.825  0.6892 -0.0535  0.8665
 7150TIP3    H242942   5.353   4.966  13.825  0.8808 -0.6603  0.2307
 7151TIP3   OH242943   3.871   5.360  11.296 -0.3474  0.0790 -0.4403
 7151TIP3    H142944   3.872   5.339  11.203  0.0498  0.4936 -0.5342
 7151TIP3    H242945   3.879   5.276  11.341 -0.1823 -0.0872 -0.7859
 7152TIP3   OH242946   1.842   0.614   6.067 -0.6116 -0.3064 -0.5548
 7152TIP3    H142947   1.814   0.662   6.145 -1.1812 -0.8410 -0.4326
 7152TIP3    H242948   1.935   0.637   6.057 -1.3253  2.2790 -1.5645
 7153TIP3   OH242949   6.331   4.936  11.254 -0.1399  0.4608 -0.0658
 7153TIP3    H142950   6.258   4.886  11.220 -0.0858 -1.1352  2.0410
 7153TIP3    H242951   6.407   4.879  11.241  0.5621  1.6755 -1.3052
 7154TIP3   OH242952   3.036   3.932   0.230 -0.5645 -0.3924  0.0498
 7154TIP3    H142953   3.047   3.993   0.157 -1.4996 -0.0032  0.2296
 7154TIP3    H242954   3.027   3.988   0.307  3.6416 -0.8174  0.9855
 7155TIP3   OH242955   5.406   6.503  12.079 -0.1482  0.1785 -0.4009
 7155TIP3    H142956   5.493   6.510  12.041 -0.8631  1.8807 -1.7753
 7155TIP3    H242957   5.397   6.580  12.136 -0.7888  0.0559 -0.3264
 7156TIP3   OH242958   0.471   4.173  15.039 -0.5876  0.7773 -0.1427
 7156TIP3    H142959   0.429   4.087  15.036 -1.2935  1.1498 -1.7353
 7156TIP3    H242960   0.419   4.223  15.101 -1.0710  0.4974 -0.3167
 7157TIP3   OH242961   5.076   1.532   6.172 -0.2255  0.3931  1.0921
 7157TIP3    H142962   5.122   1.467   6.226 -1.4197 -0.6825  0.8348
 7157TIP3    H242963   5.128   1.612   6.181  0.8192 -0.3831  2.0563
 7158TIP3   OH242964   2.051   5.364   0.359  0.2201  0.3609  0.6595
 7158TIP3    H142965   2.010   5.281   0.337  3.0389 -0.7424 -0.5995
 7158TIP3    H242966   2.015   5.426   0.296 -0.4809 -0.3059  0.3988
 7159TIP3   OH242967   0.279   4.536  11.955 -0.1475  0.3838  0.0232
 7159TIP3    H142968   0.310   4.615  11.910  0.7889 -0.4666 -0.8624
 7159TIP3    H242969   0.352   4.474  11.947 -0.6707 -0.3913  1.1688
 7160TIP3   OH242970   1.798   5.347  13.293  0.0139 -0.3523 -0.0429
 7160TIP3    H142971   1.812   5.420  13.353 -2.3060  1.2511 -1.3686
 7160TIP3    H242972   1.708   5.318  13.311 -0.0182 -1.1267 -1.3721
 7161TIP3   OH242973   1.839   3.954  14.060 -0.0724 -0.5058 -0.0370
 7161TIP3    H142974   1.816   3.869  14.021  1.8647 -0.9415 -0.2576
 7161TIP3    H242975   1.861   4.009  13.985  0.7532 -0.4429  0.2538
 7162TIP3   OH242976   3.575   2.930   3.128  0.6345  0.3324 -0.3116
 7162TIP3    H142977   3.530   3.012   3.106 -0.3815 -0.1048  0.0978
 7162TIP3    H242978   3.668   2.951   3.120  0.4393  1.9628  1.2853
 7163TIP3   OH242979   4.724   1.431  13.679 -0.2438 -0.1083 -0.4552
 7163TIP3    H142980   4.784   1.421  13.753  0.2199 -0.1601 -0.8331
 7163TIP3    H242981   4.644   1.467  13.717  0.3573  0.8505 -0.0765
 7164TIP3   OH242982   3.097   1.478  15.407 -0.1730 -0.8860  0.3691
 7164TIP3    H142983   3.150   1.401  15.424  1.0166  0.2292  1.8676
 7164TIP3    H242984   3.108   1.533  15.485 -1.6609  0.4154 -0.2957
 7165TIP3   OH242985   0.406   3.266   3.616 -0.2655  0.0079  0.4882
 7165TIP3    H142986   0.486   3.215   3.610 -0.5881 -0.5837  1.0378
 7165TIP3    H242987   0.342   3.217   3.564 -0.8185 -0.6500  1.7648
 7166TIP3   OH242988   1.727   5.105   3.795 -0.0067 -0.0396 -0.2058
 7166TIP3    H142989   1.803   5.113   3.854 -0.7974  1.8450  0.6066
 7166TIP3    H242990   1.761   5.057   3.720  2.2445  1.4441 -0.2059
 7167TIP3   OH242991   3.054   1.591  14.600 -0.2038  0.4993 -0.7680
 7167TIP3    H142992   2.982   1.635  14.646 -0.7351 -1.9806  0.8796
 7167TIP3    H242993   3.132   1.614  14.651 -0.3934  0.0391 -0.2661
 7168TIP3   OH242994   5.869   5.466  13.247 -0.3894  1.1769  0.2537
 7168TIP3    H142995   5.789   5.415  13.236  0.2323  0.0239  1.0381
 7168TIP3    H242996   5.914   5.425  13.320  0.9717  1.7616 -0.2444
 7169TIP3   OH242997   1.001   5.267   3.865 -0.2946  0.7479  0.7069
 7169TIP3    H142998   1.081   5.290   3.913  0.5299  1.6074 -1.0309
 7169TIP3    H242999   0.943   5.342   3.877  0.3606  1.4679 -0.5945
 7170TIP3   OH243000   4.592   1.341  12.768  0.2616 -0.3397 -0.2625
 7170TIP3    H143001   4.552   1.334  12.682 -1.8330 -0.2860  0.6812
 7170TIP3    H243002   4.641   1.259  12.779  0.0539 -0.6019 -1.2562
 7171TIP3   OH243003   0.318   3.975   2.160  0.2073 -0.3091  0.3232
 7171TIP3    H143004   0.236   3.926   2.167  0.1862 -0.2889  0.2106
 7171TIP3    H243005   0.368   3.930   2.093  0.3100 -0.3511  0.4290
 7172TIP3   OH243006   1.495   1.144  14.637 -0.3288  0.1607 -0.6696
 7172TIP3    H143007   1.504   1.082  14.709 -0.1083  0.0303 -0.8101
 7172TIP3    H243008   1.572   1.128  14.582  0.9863  2.1166  0.5063
 7173TIP3   OH243009   4.404   3.695   2.644  0.6869 -0.3165 -0.0027
 7173TIP3    H143010   4.459   3.711   2.567  0.2244 -1.0980 -0.5035
 7173TIP3    H243011   4.439   3.617   2.684 -0.6266 -1.3854 -0.8755
 7174TIP3   OH243012   2.180   1.762  15.017 -0.0999 -0.6816 -0.1550
 7174TIP3    H143013   2.145   1.850  15.033  1.6395 -0.1760  1.1241
 7174TIP3    H243014   2.136   1.732  14.938 -2.4879  0.3810  0.7302
 7175TIP3   OH243015   3.304   2.127  12.897 -0.2015  0.3762  0.1355
 7175TIP3    H143016   3.316   2.042  12.939  0.2155  0.5477  0.3686
 7175TIP3    H243017   3.241   2.111  12.827 -0.4970 -0.0219  0.4932
 7176TIP3   OH243018   0.914   3.312   4.144 -0.0448 -0.1767  0.5799
 7176TIP3    H143019   0.853   3.385   4.151 -0.2222 -0.1766 -0.7663
 7176TIP3    H243020   0.986   3.335   4.203 -1.1493  0.0059  1.8820
 7177TIP3   OH243021   4.432   4.237   5.021 -0.4082 -0.2041 -0.9168
 7177TIP3    H143022   4.478   4.251   5.103 -2.9966  0.1951  0.5231
 7177TIP3    H243023   4.419   4.324   4.985 -0.5232 -0.2756 -1.0492
 7178TIP3   OH243024   4.045   6.220  16.642  0.0800 -0.4834  0.1253
 7178TIP3    H143025   3.950   6.219  16.646  0.0463  1.4133  0.3268
 7178TIP3    H243026   4.073   6.232  16.733  0.5148 -1.4350  0.1166
 7179TIP3   OH243027   3.135   0.605  15.579  0.5891  0.1025 -0.1044
 7179TIP3    H143028   3.092   0.534  15.531  1.4736 -1.7970  1.8334
 7179TIP3    H243029   3.194   0.560  15.640  0.4418  2.4875  1.8582
 7180TIP3   OH243030   4.057   3.429  14.879  0.1139  0.1451 -0.4278
 7180TIP3    H143031   3.995   3.455  14.947 -0.4610 -0.5949 -0.6559
 7180TIP3    H243032   4.009   3.364  14.827  0.9604 -0.1640 -0.8256
 7181TIP3   OH243033   3.880   4.129   0.455 -0.3855 -0.1845 -0.1146
 7181TIP3    H143034   3.824   4.207   0.460 -1.6485 -1.1056  0.3195
 7181TIP3    H243035   3.965   4.159   0.487 -0.7389  1.1145 -0.3298
 7182TIP3   OH243036   0.962   3.524  15.189 -0.3642 -0.2852  0.4733
 7182TIP3    H143037   0.964   3.428  15.180 -0.1779 -0.2514  0.1399
 7182TIP3    H243038   1.007   3.542  15.272  0.3763 -0.4326  0.1106
 7183TIP3   OH243039   4.028   2.539  12.639 -0.8529  0.1986 -0.2115
 7183TIP3    H143040   4.027   2.628  12.603 -0.5091  0.1552 -0.3215
 7183TIP3    H243041   4.092   2.492  12.587  1.0605  0.6461  1.6778
 7184TIP3   OH243042   0.496   5.671   2.414 -0.1542 -0.8920 -0.0118
 7184TIP3    H143043   0.407   5.661   2.380  0.2217 -0.5543 -1.1034
 7184TIP3    H243044   0.525   5.756   2.381 -0.1642 -0.0525  2.0305
 7185TIP3   OH243045   1.179   1.395  13.248  0.0354 -0.4420  0.0328
 7185TIP3    H143046   1.250   1.414  13.186  0.6935  0.1363  0.9530
 7185TIP3    H243047   1.124   1.473  13.246 -0.2732 -0.6634 -0.2595
 7186TIP3   OH243048   2.029   4.979  11.819 -0.3217 -0.6712  0.3172
 7186TIP3    H143049   2.085   4.902  11.810  0.3266 -0.7046  3.8155
 7186TIP3    H243050   1.940   4.946  11.809  0.0516 -1.4995 -0.2959
 7187TIP3   OH243051   5.479   4.569  10.569 -0.0052  0.3456 -0.1362
 7187TIP3    H143052   5.420   4.508  10.614 -0.8119  3.0381  2.6289
 7187TIP3    H243053   5.558   4.518  10.552 -0.7571 -1.5582  1.8157
 7188TIP3   OH243054   5.402   2.561   2.202 -0.0647 -0.2225  0.4030
 7188TIP3    H143055   5.351   2.635   2.237 -0.9500 -0.4876 -0.2940
 7188TIP3    H243056   5.336   2.500   2.170  0.6837 -1.0145  0.3537
 7189TIP3   OH243057   3.991   3.740   1.640  0.8081  0.4094 -0.5694
 7189TIP3    H143058   4.047   3.698   1.705 -0.1818 -1.0456 -0.6378
 7189TIP3    H243059   4.032   3.720   1.556 -0.5153 -1.8197 -0.7222
 7190TIP3   OH243060   6.377   2.476   4.601 -0.0491 -0.2761 -0.5685
 7190TIP3    H143061   6.405   2.563   4.632 -0.2931 -0.4464  0.1385
 7190TIP3    H243062   6.347   2.432   4.680 -1.2006 -0.5283 -1.1523
 7191TIP3   OH243063   1.440   4.758  11.537 -0.0662  0.7017 -0.7115
 7191TIP3    H143064   1.402   4.671  11.550  1.4048  0.3631  1.5455
 7191TIP3    H243065   1.364   4.815  11.524 -1.1715 -0.5529  0.0833
 7192TIP3   OH243066   0.329   2.237  10.944 -0.0676 -0.2396 -0.6512
 7192TIP3    H143067   0.256   2.194  10.900 -0.4224  0.2570 -0.5531
 7192TIP3    H243068   0.304   2.329  10.947  0.1391 -0.2087  0.2312
 7193TIP3   OH243069   2.359   3.024   0.452 -0.5829  0.1564  0.3975
 7193TIP3    H143070   2.291   3.060   0.509 -0.0780  2.4981 -0.4234
 7193TIP3    H243071   2.328   3.043   0.363 -0.1834 -1.2371 -0.0446
 7194TIP3   OH243072   5.567   2.872   3.085  0.3584 -0.2110 -0.1187
 7194TIP3    H143073   5.547   2.887   3.177  0.4486  1.8086 -0.4035
 7194TIP3    H243074   5.489   2.829   3.050  0.5565 -1.5411  1.0007
 7195TIP3   OH243075   4.752   1.442   2.198 -0.0158 -0.1851 -0.0141
 7195TIP3    H143076   4.686   1.504   2.166  0.6367  0.4136 -0.1982
 7195TIP3    H243077   4.709   1.356   2.192 -1.3210  0.3441  1.2430
 7196TIP3   OH243078   0.754   0.533   5.633  0.1743 -0.0387 -0.0314
 7196TIP3    H143079   0.725   0.460   5.579 -0.2148  0.7076 -0.8462
 7196TIP3    H243080   0.679   0.593   5.634  1.5396  1.7768 -1.9264
 7197TIP3   OH243081   0.567   2.318   0.768  0.6154  0.4882 -0.0998
 7197TIP3    H143082   0.637   2.375   0.802 -0.9548  3.3422 -1.4952
 7197TIP3    H243083   0.539   2.360   0.687 -2.7019 -0.6150  0.4042
 7198TIP3   OH243084   2.484   2.026  14.093  0.5774  0.5158 -0.2666
 7198TIP3    H143085   2.539   1.958  14.133 -0.4719 -0.1917  0.0208
 7198TIP3    H243086   2.484   2.097  14.158  2.6991  1.3397 -1.1243
 7199TIP3   OH243087   3.727   4.470   4.543 -0.4261 -0.2795  0.8254
 7199TIP3    H143088   3.721   4.379   4.514  1.3330  0.0194 -0.6094
 7199TIP3    H243089   3.821   4.487   4.549 -0.6505  2.1638 -1.3756
 7200TIP3   OH243090   3.378   5.089  14.242  0.0818  0.2206 -0.2631
 7200TIP3    H143091   3.309   5.046  14.193 -0.1392 -0.0252  0.2628
 7200TIP3    H243092   3.401   5.027  14.312  2.9011 -1.0278 -2.1692
 7201TIP3   OH243093   2.717   3.987  11.762  0.2491  0.6206  0.0851
 7201TIP3    H143094   2.796   3.955  11.805  0.5621 -1.0041 -1.6474
 7201TIP3    H243095   2.645   3.954  11.816  0.7059  1.1986  1.0631
 7202TIP3   OH243096   3.987   4.132   2.523 -0.9073  0.0378 -0.1331
 7202TIP3    H143097   3.917   4.194   2.503  0.0663  0.9681 -0.7069
 7202TIP3    H243098   4.068   4.182   2.511 -0.0172 -1.8462 -2.5301
 7203TIP3   OH243099   4.669   4.427  12.658 -0.1188 -0.0379 -0.3826
 7203TIP3    H143100   4.668   4.500  12.596 -3.6422 -0.0283 -0.4314
 7203TIP3    H243101   4.702   4.353  12.607 -2.0091  0.2205 -2.0516
 7204TIP3   OH243102   4.418   1.067  15.708 -0.2973 -0.0535 -0.4124
 7204TIP3    H143103   4.476   1.062  15.784 -0.3942  0.5397 -0.2986
 7204TIP3    H243104   4.429   0.982  15.665  0.7516  0.0940 -0.4600
 7205TIP3   OH243105   1.333   5.079   3.593 -0.1834  0.2758 -0.1246
 7205TIP3    H143106   1.350   4.985   3.588 -0.1717  0.3093 -0.6874
 7205TIP3    H243107   1.241   5.085   3.621  0.2916  0.0989  1.5181
 7206TIP3   OH243108   0.505   2.379  16.652 -0.2157 -0.5294 -0.3506
 7206TIP3    H143109   0.521   2.426  16.733  0.5062  2.2239 -2.0282
 7206TIP3    H243110   0.410   2.382  16.641 -0.2856 -0.6408  0.2172
 7207TIP3   OH243111   0.562   2.256   2.191 -0.1956  0.5671  0.2802
 7207TIP3    H143112   0.613   2.176   2.202 -0.1585  0.7718  1.7649
 7207TIP3    H243113   0.625   2.326   2.200 -0.6537  0.8126  1.7142
 7208TIP3   OH243114   6.663   0.836   2.505  0.6292  0.2719  0.2572
 7208TIP3    H143115   6.689   0.747   2.530  2.6628  0.6914 -0.2055
 7208TIP3    H243116   6.596   0.860   2.568 -1.2669 -2.2436 -0.7101
 7209TIP3   OH243117   2.978   3.395   3.322  0.3539 -0.0303 -0.1059
 7209TIP3    H143118   2.897   3.364   3.282 -0.7466  1.1578  1.1580
 7209TIP3    H243119   2.992   3.481   3.283  1.1678 -0.3442 -0.5213
 7210TIP3   OH243120   1.443   1.945   2.345  0.5619  0.1537 -0.0846
 7210TIP3    H143121   1.460   1.874   2.406  0.7841  0.9364  0.7616
 7210TIP3    H243122   1.466   2.024   2.392 -0.7918  0.8803 -0.6178
 7211TIP3   OH243123   3.997   3.114   5.660 -0.4412  0.2061 -0.3084
 7211TIP3    H143124   4.033   3.198   5.633  0.1690  0.2163  0.5239
 7211TIP3    H243125   3.986   3.121   5.755  1.0120 -1.1619 -0.0134
 7212TIP3   OH243126   3.050   4.091   3.588  0.4026 -0.2295 -0.4030
 7212TIP3    H143127   2.975   4.136   3.548  0.8470 -1.2382 -2.4244
 7212TIP3    H243128   3.010   4.019   3.638 -0.1012  0.4054  0.1115
 7213TIP3   OH243129   4.331   6.268  17.034 -0.1692  0.7047  0.0695
 7213TIP3    H143130   4.335   6.200  17.101 -1.9431 -0.0768 -0.5979
 7213TIP3    H243131   4.318   6.350  17.082  1.4836  0.5410  0.8359
 7214TIP3   OH243132   6.019   3.909  15.909 -0.4007  0.2742  0.6243
 7214TIP3    H143133   6.103   3.864  15.904  0.3194  1.7940 -1.5788
 7214TIP3    H243134   5.986   3.888  15.996  1.6085 -1.4871  0.9964
 7215TIP3   OH243135   2.433   1.269  11.336  0.9484 -0.1191 -0.0696
 7215TIP3    H143136   2.432   1.266  11.241 -0.9627 -0.3795 -0.0502
 7215TIP3    H243137   2.364   1.209  11.363 -0.5782  2.2441  1.4161
 7216TIP3   OH243138   4.493   6.118   3.122 -0.7501 -0.0612 -1.0816
 7216TIP3    H143139   4.525   6.187   3.064  2.2656 -1.7261 -1.5164
 7216TIP3    H243140   4.441   6.061   3.066 -0.8950  0.3328 -1.3475
 7217TIP3   OH243141   6.228   0.733   5.022  0.0655 -0.0335  0.5317
 7217TIP3    H143142   6.272   0.818   5.021 -1.1253  0.6382  2.5063
 7217TIP3    H243143   6.278   0.680   5.083 -0.9935  0.2741  1.6887
 7218TIP3   OH243144   1.635   3.234  13.538  0.0714  0.7706  1.2299
 7218TIP3    H143145   1.700   3.284  13.588 -0.1166  1.5882  0.6596
 7218TIP3    H243146   1.567   3.297  13.517 -0.0837  0.3192  0.3459
 7219TIP3   OH243147   5.016   3.350  11.187 -0.0775  0.0425 -0.6172
 7219TIP3    H143148   5.024   3.259  11.214 -1.1570  0.2017  0.2493
 7219TIP3    H243149   4.993   3.346  11.094  1.3560 -0.5353 -0.9628
 7220TIP3   OH243150   1.841   5.461  11.589 -0.7760 -0.2812 -0.6486
 7220TIP3    H143151   1.892   5.520  11.644 -0.6585 -0.9877  0.0131
 7220TIP3    H243152   1.900   5.441  11.516 -0.2892 -0.6810 -0.1553
 7221TIP3   OH243153   5.523   5.508   0.570 -0.2413 -0.1049 -0.4164
 7221TIP3    H143154   5.616   5.489   0.564 -0.3062 -0.4070 -0.4861
 7221TIP3    H243155   5.480   5.424   0.556 -0.5500  0.1790 -1.2102
 7222TIP3   OH243156   6.312   1.013   0.356 -0.0287  0.1338 -0.6495
 7222TIP3    H143157   6.402   1.028   0.384 -0.1455  0.4383 -0.4409
 7222TIP3    H243158   6.319   1.002   0.261 -0.1456  3.3763 -1.1026
 7223TIP3   OH243159   5.345   5.790  13.559  0.4870 -0.1970 -0.1823
 7223TIP3    H143160   5.327   5.860  13.622  0.0732  0.9849 -1.5801
 7223TIP3    H243161   5.430   5.754  13.587  0.0843 -0.0100  1.3151
 7224TIP3   OH243162   3.783   4.565   3.273  0.1469 -1.0028  0.4294
 7224TIP3    H143163   3.837   4.639   3.298 -0.6619 -0.5835  0.9685
 7224TIP3    H243164   3.755   4.526   3.356  2.1929 -3.1449  0.1835
 7225TIP3   OH243165   5.262   3.792  12.718  0.6877  0.5062  0.4872
 7225TIP3    H143166   5.352   3.827  12.719  0.8687  0.0570  0.1659
 7225TIP3    H243167   5.232   3.807  12.628  1.5020 -1.9759 -0.2640
 7226TIP3   OH243168   0.472   6.679   2.743 -0.5727 -0.3890  0.6845
 7226TIP3    H143169   0.484   6.681   2.648 -1.1328 -0.7004  0.6037
 7226TIP3    H243170   0.561   6.676   2.778 -0.3679 -0.5784  0.1625
 7227TIP3   OH243171   0.171   6.319  12.214 -0.1851  0.5467 -0.4175
 7227TIP3    H143172   0.115   6.265  12.270 -0.7552  1.5700  0.0095
 7227TIP3    H243173   0.225   6.256  12.167 -1.3301 -0.4459 -0.4441
 7228TIP3   OH243174   4.687   1.025   3.001  0.2653  0.0642 -0.4449
 7228TIP3    H143175   4.706   1.044   3.093  0.2611  1.1071 -0.6491
 7228TIP3    H243176   4.592   1.033   2.994  0.4398  1.8433 -0.9344
 7229TIP3   OH243177   3.015   1.146   3.733  0.2313 -0.3598  0.2695
 7229TIP3    H143178   2.981   1.235   3.720 -0.7827 -0.6293  0.9672
 7229TIP3    H243179   3.101   1.159   3.773  1.1216  0.3481 -1.7865
 7230TIP3   OH243180   0.528   0.865  13.900 -0.3903 -0.2348 -0.3844
 7230TIP3    H143181   0.463   0.820  13.846 -0.4243 -0.3827 -0.2199
 7230TIP3    H243182   0.476   0.908  13.968 -0.4626  0.9724 -1.1768
 7231TIP3   OH243183   3.129   5.981   3.963 -0.5532  0.7924 -0.7714
 7231TIP3    H143184   3.220   5.971   3.991 -0.6578  1.4406 -0.2095
 7231TIP3    H243185   3.117   5.911   3.899  0.1036  0.1905 -0.2511
 7232TIP3   OH243186   0.067   4.624   0.713 -0.2237  0.2574  0.3051
 7232TIP3    H143187   0.009   4.594   0.783  0.7548 -0.8017  0.6727
 7232TIP3    H243188   0.010   4.636   0.638 -0.8876 -0.9717  0.6068
 7233TIP3   OH243189   3.216   3.634   2.441 -0.6576 -0.3481  0.3035
 7233TIP3    H143190   3.128   3.596   2.436 -0.4531 -1.0010  1.5804
 7233TIP3    H243191   3.213   3.693   2.516 -0.1374 -0.0269  0.0755
 7234TIP3   OH243192   2.163   4.801  12.990 -0.2686  0.0800  0.3209
 7234TIP3    H143193   2.165   4.859  13.066  1.2691  0.5251 -0.0486
 7234TIP3    H243194   2.216   4.726  13.016  1.7365  1.0175 -0.9081
 7235TIP3   OH243195   1.531   2.114  14.909  0.2872 -0.8701  0.0111
 7235TIP3    H143196   1.460   2.052  14.927  0.8603 -1.3987  0.4680
 7235TIP3    H243197   1.489   2.184  14.859 -0.1412 -2.1969 -1.5461
 7236TIP3   OH243198   3.826   6.466   1.188 -0.0500  0.2148  0.2265
 7236TIP3    H143199   3.896   6.456   1.124 -1.8449  2.1521 -2.1697
 7236TIP3    H243200   3.852   6.411   1.261  3.7129  0.5065 -0.7696
 7237TIP3   OH243201   5.603   1.837  13.399 -0.1567 -0.1855  0.0193
 7237TIP3    H143202   5.681   1.791  13.366 -0.8047 -0.3117 -1.3521
 7237TIP3    H243203   5.628   1.864  13.487  2.6139  2.5111 -1.4779
 7238TIP3   OH243204   4.023   3.353   2.525 -0.4043 -0.0925 -0.6965
 7238TIP3    H143205   4.027   3.368   2.619  0.3145 -2.3472 -0.3456
 7238TIP3    H243206   4.060   3.433   2.487 -0.3635  0.6836  0.9231
 7239TIP3   OH243207   6.356   1.986   0.323  0.2114  0.7011 -0.1062
 7239TIP3    H143208   6.322   1.980   0.413 -0.8723 -2.4302 -0.6726
 7239TIP3    H243209   6.451   1.996   0.334  0.2582 -1.1404  1.4031
 7240TIP3   OH243210   1.034   2.258  14.528  0.3096  0.5675 -0.0545
 7240TIP3    H143211   0.959   2.257  14.469 -0.1816  1.0334  0.5576
 7240TIP3    H243212   1.060   2.350  14.532 -0.5696  0.7639  1.5929
 7241TIP3   OH243213   0.275   5.685   0.087 -0.6159  0.0580 -0.4636
 7241TIP3    H143214   0.368   5.710   0.088 -0.4016 -0.7908  0.7375
 7241TIP3    H243215   0.230   5.759   0.127 -0.7128  1.3945 -2.9135
 7242TIP3   OH243216   0.103   2.481  13.815 -0.2116 -0.5031 -0.4849
 7242TIP3    H143217   0.192   2.516  13.815 -0.0867 -0.7975 -1.5971
 7242TIP3    H243218   0.062   2.520  13.892  0.2258  1.3400 -1.1333
 7243TIP3   OH243219   3.422   6.052   0.905 -0.3125 -0.3638 -0.2630
 7243TIP3    H143220   3.389   6.123   0.960  2.2745 -1.1052  2.4068
 7243TIP3    H243221   3.368   5.976   0.928 -0.4653 -0.2171 -0.1375
 7244TIP3   OH243222   2.244   0.735  17.260 -0.3764  0.7432  0.3825
 7244TIP3    H143223   2.230   0.682  17.338 -0.1834  1.5181  0.9443
 7244TIP3    H243224   2.335   0.765  17.267  0.4403 -1.1609 -1.3467
 7245TIP3   OH243225   1.335   3.671   4.106  0.3239  0.2592  0.4014
 7245TIP3    H143226   1.402   3.655   4.039 -0.5538 -0.0170 -0.4158
 7245TIP3    H243227   1.335   3.766   4.118 -0.7078  0.4845 -1.2458
 7246TIP3   OH243228   1.005   3.338  10.819  0.5084  0.0996  0.2848
 7246TIP3    H143229   0.914   3.332  10.789  0.9481 -2.4316 -0.5804
 7246TIP3    H243230   1.040   3.414  10.771 -0.9178  0.6580  0.0815
 7247TIP3   OH243231   6.530   1.065   0.644  0.1927 -0.5757 -0.3779
 7247TIP3    H143232   6.476   1.143   0.657 -1.0097 -1.2111 -1.5401
 7247TIP3    H243233   6.478   0.993   0.680  1.5481 -0.7842  1.2220
 7248TIP3   OH243234   6.039   4.312   2.662  0.7314 -0.1372  0.0538
 7248TIP3    H143235   6.005   4.228   2.690  0.4950 -0.4293 -1.0877
 7248TIP3    H243236   5.962   4.365   2.642  0.8926  0.0431 -0.1066
 7249TIP3   OH243237   6.188   6.448   2.354 -0.0125  0.4343 -0.2564
 7249TIP3    H143238   6.266   6.404   2.389  0.6848  1.5530 -0.3790
 7249TIP3    H243239   6.170   6.518   2.417 -0.3738  0.7438 -0.7022
 7250TIP3   OH243240   0.868   6.070  11.529  0.1366 -0.8336  0.0974
 7250TIP3    H143241   0.905   5.988  11.562  2.7803  0.6649  0.9724
 7250TIP3    H243242   0.942   6.131  11.527 -1.1908  0.7926 -3.1097
 7251TIP3   OH243243   0.224   2.637  10.606  0.0059  0.6638  0.2454
 7251TIP3    H143244   0.206   2.649  10.513  0.5259 -0.9248 -0.0843
 7251TIP3    H243245   0.181   2.554  10.629 -0.4461  1.2336  1.5106
 7252TIP3   OH243246   0.417   4.107  12.763 -0.3044 -0.1575 -0.3329
 7252TIP3    H143247   0.449   4.151  12.842  0.9195 -0.8413 -0.4333
 7252TIP3    H243248   0.476   4.137  12.694  0.3616 -1.6979 -0.4584
 7253TIP3   OH243249   2.893   0.533   4.096 -0.3926 -0.0141 -0.2884
 7253TIP3    H143250   2.856   0.557   4.181 -0.5239  0.6457 -0.5242
 7253TIP3    H243251   2.962   0.598   4.081 -0.2863 -0.2052 -0.6264
 7254TIP3   OH243252   6.252   1.643  17.080  0.5051  0.1117  0.3741
 7254TIP3    H143253   6.292   1.722  17.116  1.1437 -0.0004 -0.0713
 7254TIP3    H243254   6.232   1.665  16.989 -0.1606  0.0605  0.5085
 7255TIP3   OH243255   4.974   6.550  15.293 -0.1835 -0.0908 -0.0954
 7255TIP3    H143256   5.024   6.589  15.221 -2.2354 -0.3125 -1.6788
 7255TIP3    H243257   4.963   6.622  15.356  2.4106 -0.1418  0.4644
 7256TIP3   OH243258   2.011   5.128  14.969  0.2100 -0.6777  0.4798
 7256TIP3    H143259   2.005   5.034  14.980 -1.7632 -0.3608  2.6729
 7256TIP3    H243260   1.985   5.164  15.054  0.5436  1.8482 -0.4156
 7257TIP3   OH243261   3.681   0.785   0.478 -0.0955  0.2291 -0.4159
 7257TIP3    H143262   3.622   0.822   0.412 -0.7257  1.1647  0.6507
 7257TIP3    H243263   3.628   0.718   0.522  0.4694 -0.7127 -1.1449
 7258TIP3   OH243264   3.089   5.371   5.197 -0.6940 -0.3443  0.2713
 7258TIP3    H143265   3.170   5.354   5.149 -0.8343 -0.2428 -0.0028
 7258TIP3    H243266   3.062   5.459   5.170 -2.3503 -1.4127 -1.7820
 7259TIP3   OH243267   0.871   1.484   5.147 -0.0834  0.7671 -0.8443
 7259TIP3    H143268   0.866   1.553   5.081  1.2893  1.0627 -0.6483
 7259TIP3    H243269   0.893   1.405   5.097 -0.0453  0.7868 -0.8579
 7260TIP3   OH243270   1.530   5.627   3.501 -0.1451 -0.3108 -0.4474
 7260TIP3    H143271   1.507   5.583   3.419 -0.6302 -0.6186 -0.1493
 7260TIP3    H243272   1.470   5.590   3.566  1.9418 -2.0396  0.5990
 7261TIP3   OH243273   4.729   2.424  14.775  0.0988 -0.4217 -0.7323
 7261TIP3    H143274   4.669   2.379  14.716 -0.4705  0.0660 -0.5316
 7261TIP3    H243275   4.758   2.356  14.835 -2.9382  0.0099  1.3436
 7262TIP3   OH243276   5.250   4.178   5.684 -0.1598  0.0915 -0.0879
 7262TIP3    H143277   5.229   4.271   5.692 -1.9941 -0.4194  1.4264
 7262TIP3    H243278   5.345   4.174   5.691 -0.1338  1.7580  0.7940
 7263TIP3   OH243279   4.450   5.844   1.580 -0.4870  0.5346  0.2803
 7263TIP3    H143280   4.488   5.833   1.493 -0.7100  1.9552 -0.0078
 7263TIP3    H243281   4.481   5.768   1.629 -1.3143 -0.8762 -1.3589
 7264TIP3   OH243282   2.667   0.266  14.181 -0.1360 -0.5137 -0.0322
 7264TIP3    H143283   2.739   0.288  14.122  0.0019 -2.0284 -0.4525
 7264TIP3    H243284   2.685   0.315  14.261  1.6549 -1.2955  0.0570
 7265TIP3   OH243285   2.128   1.390  11.173 -0.2381  0.1166  0.0997
 7265TIP3    H143286   2.079   1.317  11.210 -3.1579  1.5856 -0.6538
 7265TIP3    H243287   2.124   1.376  11.078 -0.2061  0.8622 -0.0187
 7266TIP3   OH243288   5.471   5.226  14.249  0.0761 -0.0688 -0.5218
 7266TIP3    H143289   5.491   5.186  14.333 -2.6633 -1.0205 -0.2615
 7266TIP3    H243290   5.554   5.263  14.219  1.3671 -0.8559  1.9717
 7267TIP3   OH243291   1.751   0.878   5.346  0.0576 -0.0765  0.0661
 7267TIP3    H143292   1.760   0.915   5.259  1.6907 -0.1932  0.1817
 7267TIP3    H243293   1.818   0.810   5.351 -2.4045 -2.5885  0.1093
 7268TIP3   OH243294   6.285   3.721   1.275  0.3324  0.0758  0.1599
 7268TIP3    H143295   6.259   3.727   1.367 -1.5957 -1.3891 -0.2547
 7268TIP3    H243296   6.368   3.673   1.276  0.8502  0.9649  1.1875
 7269TIP3   OH243297   6.537   3.385  11.021  0.0655 -0.2797 -0.1340
 7269TIP3    H143298   6.627   3.404  10.992 -0.3492  1.2882 -0.4327
 7269TIP3    H243299   6.483   3.447  10.973 -1.1907 -1.2417  0.0341
 7270TIP3   OH243300   5.494   2.189  16.909  0.2443 -0.1063 -0.2056
 7270TIP3    H143301   5.472   2.165  16.999 -2.4083  1.5849 -0.3447
 7270TIP3    H243302   5.442   2.130  16.854  0.4990  0.0341 -0.6043
 7271TIP3   OH243303   3.519   1.740   2.864  0.1496 -0.5598 -0.1209
 7271TIP3    H143304   3.470   1.809   2.819 -0.5918 -1.3302 -0.4992
 7271TIP3    H243305   3.558   1.688   2.795  0.1187 -0.9460  0.1492
 7272TIP3   OH243306   6.414   1.754   5.974  0.2752  0.5057  0.0047
 7272TIP3    H143307   6.374   1.802   5.901 -2.1767 -1.7727 -0.2091
 7272TIP3    H243308   6.446   1.673   5.935  1.3907  0.4715  0.9768
 7273TIP3   OH243309   6.514   2.005  13.449  0.0452  0.1960 -0.3664
 7273TIP3    H143310   6.582   2.072  13.454 -1.0351  1.3297 -0.3139
 7273TIP3    H243311   6.520   1.959  13.533 -0.0433  1.0934  0.1418
 7274TIP3   OH243312   5.326   4.794   2.515 -0.0771  0.1851  0.8333
 7274TIP3    H143313   5.273   4.862   2.474  2.0869  1.4301  0.0077
 7274TIP3    H243314   5.299   4.795   2.607 -2.9164 -0.6450  0.0676
 7275TIP3   OH243315   6.784   0.844  12.295  0.1100 -0.0636  0.3237
 7275TIP3    H143316   6.732   0.865  12.218  0.5100 -1.3337 -0.3210
 7275TIP3    H243317   6.755   0.906  12.362 -0.7392  0.5947 -0.6364
 7276TIP3   OH243318   1.107   3.133   4.564 -0.2805  0.0796  0.0917
 7276TIP3    H143319   1.145   3.052   4.598  1.0154  0.5007 -0.3242
 7276TIP3    H243320   1.060   3.106   4.485 -1.2439 -0.5157  0.8553
 7277TIP3   OH243321   0.431   5.218  12.850  0.0191 -0.5595 -0.0196
 7277TIP3    H143322   0.506   5.275  12.835 -0.7248  0.5541  0.4239
 7277TIP3    H243323   0.456   5.135  12.810  1.1985  0.0075 -0.4949
 7278TIP3   OH243324   4.627   6.662   4.187  0.1899  0.4770 -0.6996
 7278TIP3    H143325   4.713   6.650   4.147 -0.0064  2.0985 -1.6569
 7278TIP3    H243326   4.610   6.755   4.178 -1.4346  0.2513 -0.0141
 7279TIP3   OH243327   3.901   2.820  17.072 -0.5735 -0.2099  0.1953
 7279TIP3    H143328   3.850   2.840  17.150 -1.0385 -0.0672 -0.1431
 7279TIP3    H243329   3.886   2.726  17.056 -3.2408  0.4854 -1.6933
 7280TIP3   OH243330   6.043   0.248  15.980 -0.3422 -0.2031  0.3056
 7280TIP3    H143331   6.100   0.323  16.000 -0.9168  0.8330 -1.8243
 7280TIP3    H243332   6.094   0.172  16.010  1.5662  0.8017 -0.2582
 7281TIP3   OH243333   1.371   2.173   1.516 -0.0882 -0.2166 -0.7081
 7281TIP3    H143334   1.414   2.096   1.554 -0.7829 -0.5465 -0.5697
 7281TIP3    H243335   1.397   2.246   1.571  0.3993 -0.3926 -0.7073
 7282TIP3   OH243336   6.464   1.893  11.612  0.0174  0.2741 -0.5401
 7282TIP3    H143337   6.553   1.857  11.609  0.4431  1.3244 -0.9298
 7282TIP3    H243338   6.412   1.825  11.654  1.2656  0.1700  0.8678
 7283TIP3   OH243339   2.225   0.490  14.052 -0.3245  0.1793 -0.1673
 7283TIP3    H143340   2.303   0.436  14.042  0.2899  1.2872 -1.5473
 7283TIP3    H243341   2.156   0.428  14.075  0.8209 -0.8940  0.4566
 7284TIP3   OH243342   2.142   0.880  14.901  0.4294 -0.7959 -0.5489
 7284TIP3    H143343   2.117   0.794  14.934  1.2312 -0.6639  0.3899
 7284TIP3    H243344   2.108   0.882  14.811 -1.7286 -1.1525  0.2396
 7285TIP3   OH243345   6.554   5.357   2.670  0.1383  0.0236 -0.3534
 7285TIP3    H143346   6.561   5.417   2.744  1.0805  1.7396 -1.7789
 7285TIP3    H243347   6.495   5.401   2.609  0.4276 -0.7329 -1.1917
 7286TIP3   OH243348   5.977   5.059   4.756  0.0159  0.1575  0.7104
 7286TIP3    H143349   5.974   5.125   4.687  1.3993  0.2056  0.6856
 7286TIP3    H243350   5.916   5.091   4.823 -1.5838 -0.0599 -0.6154
 7287TIP3   OH243351   6.210   0.059   5.330  0.5150  0.1783  0.2854
 7287TIP3    H143352   6.225   0.010   5.249  0.4450  0.0961  0.3214
 7287TIP3    H243353   6.127   0.026   5.363  0.7540 -0.0960  0.6173
 7288TIP3   OH243354   1.956   0.972  10.944  0.9660  0.3664 -0.2061
 7288TIP3    H143355   1.894   0.969  11.017  1.0023  1.1688 -0.1370
 7288TIP3    H243356   1.930   1.049  10.894  0.2886 -0.7556 -1.6246
 7289TIP3   OH243357   2.043   3.585  16.187  0.1780 -0.0624 -0.1733
 7289TIP3    H143358   2.087   3.536  16.256 -0.5086 -1.3619 -0.6471
 7289TIP3    H243359   1.950   3.568  16.200 -0.1212  1.6821  0.0716
 7290TIP3   OH243360   4.413   3.241   1.062 -0.1691 -0.2564 -0.4517
 7290TIP3    H143361   4.346   3.247   1.130  1.4910 -1.8396  1.3720
 7290TIP3    H243362   4.481   3.303   1.088  1.0137 -1.7093 -0.0082
 7291TIP3   OH243363   2.062   1.704   2.174  0.3954 -0.6752 -0.4007
 7291TIP3    H143364   1.987   1.702   2.233  1.1819  1.2992  0.6909
 7291TIP3    H243365   2.025   1.684   2.088 -1.1729 -1.0020  0.3336
 7292TIP3   OH243366   3.060   0.194   5.916  0.1273 -0.1890 -0.5434
 7292TIP3    H143367   3.118   0.151   5.854  0.4376 -1.4913  0.6212
 7292TIP3    H243368   2.996   0.241   5.862 -0.5669 -2.5892 -1.8421
 7293TIP3   OH243369   2.295   3.565   5.100 -0.1392  0.2137 -0.7687
 7293TIP3    H143370   2.357   3.638   5.102  2.5723 -1.9591 -2.2248
 7293TIP3    H243371   2.252   3.568   5.185  3.4987  0.5763  1.1697
 7294TIP3   OH243372   1.865   0.899  12.586 -0.3711 -0.3733  0.1976
 7294TIP3    H143373   1.917   0.836  12.637 -0.6854 -0.5361  0.3221
 7294TIP3    H243374   1.823   0.954  12.651 -0.5800 -0.4262  0.1104
 7295TIP3   OH243375   2.765   0.799   5.449 -0.4154 -0.5029 -0.3372
 7295TIP3    H143376   2.716   0.843   5.519  0.4155 -0.9392  0.5332
 7295TIP3    H243377   2.721   0.715   5.438 -0.8931 -0.2055 -0.7415
 7296TIP3   OH243378   6.010   6.622  16.947 -0.1540 -0.1102  0.0421
 7296TIP3    H143379   6.019   6.704  16.996  1.0609  0.0936 -0.5110
 7296TIP3    H243380   5.991   6.650  16.857  1.3682 -0.4120 -0.3795
 7297TIP3   OH243381   0.825   1.329  14.336 -0.3516 -0.2404  0.0965
 7297TIP3    H143382   0.903   1.300  14.384  0.5355  2.5465  0.4389
 7297TIP3    H243383   0.852   1.331  14.245  0.7422  2.8822  0.4377
 7298TIP3   OH243384   1.335   1.614  15.642  0.2838  0.8707 -0.1126
 7298TIP3    H143385   1.360   1.664  15.564 -2.3202 -0.2695 -1.7359
 7298TIP3    H243386   1.262   1.559  15.614 -1.1189  0.8352  3.2586
 7299TIP3   OH243387   0.657   0.020   3.698 -0.0948 -0.3405 -0.6985
 7299TIP3    H143388   0.579   0.018   3.754  1.2890  1.8491  1.3792
 7299TIP3    H243389   0.634   0.082   3.628  0.0114  0.8632  0.3095
 7300TIP3   OH243390   4.947   1.195  12.246 -0.2193 -0.3491  0.1117
 7300TIP3    H143391   5.025   1.152  12.281 -0.6753 -1.7490 -0.5449
 7300TIP3    H243392   4.919   1.138  12.174 -2.5199 -0.4725  1.0780
 7301TIP3   OH243393   0.324   3.714   3.947  0.5706 -0.1805  0.7727
 7301TIP3    H143394   0.324   3.807   3.923  1.0203 -0.7735 -1.6815
 7301TIP3    H243395   0.400   3.704   4.005 -0.0000  1.1474  1.7578
 7302TIP3   OH243396   6.435   1.807  12.171  0.0895  0.7624 -0.1305
 7302TIP3    H143397   6.505   1.824  12.234 -0.9628  1.0109  0.9866
 7302TIP3    H243398   6.474   1.826  12.086  1.3034  1.1358  0.5008
 7303TIP3   OH243399   6.786   4.811  16.105 -0.0782  0.4706 -0.0344
 7303TIP3    H143400   6.866   4.760  16.119 -0.3734  0.1265  0.4172
 7303TIP3    H243401   6.763   4.844  16.192 -0.6158  0.2901 -0.1084
 7304TIP3   OH243402   1.131   2.325   4.891  0.3019 -0.5189  0.1420
 7304TIP3    H143403   1.198   2.264   4.922  0.2589 -0.3936  0.4798
 7304TIP3    H243404   1.077   2.343   4.968  0.5318  0.2288  0.1288
 7305TIP3   OH243405   3.796   5.129  15.025  0.0272  0.1640 -0.4814
 7305TIP3    H143406   3.711   5.087  15.041  0.2466  1.0606  3.7626
 7305TIP3    H243407   3.776   5.203  14.969 -1.6288 -0.9433 -1.4062
 7306TIP3   OH243408   0.100   4.725  13.756 -0.8140 -0.6163 -0.2870
 7306TIP3    H143409   0.096   4.660  13.826  0.7471 -1.0353 -0.5712
 7306TIP3    H243410   0.185   4.767  13.766 -2.0501  1.8154  0.2365
 7307TIP3   OH243411   3.192   4.246   5.292  0.5821  0.2022 -0.0662
 7307TIP3    H143412   3.194   4.168   5.236 -1.8116 -0.2469  0.4086
 7307TIP3    H243413   3.245   4.222   5.368 -1.4312 -1.6365  0.8354
 7308TIP3   OH243414   4.297   5.051  11.075  0.1330  0.3891  0.4074
 7308TIP3    H143415   4.356   5.123  11.054  0.3625  0.4035  1.0860
 7308TIP3    H243416   4.353   4.973  11.075 -0.4671 -0.0586 -2.1767
 7309TIP3   OH243417   4.562   5.657   2.326  0.3595 -0.0650 -0.4027
 7309TIP3    H143418   4.547   5.622   2.413  1.8551 -1.2765 -0.6097
 7309TIP3    H243419   4.539   5.585   2.267  1.2629  0.0556 -0.9175
 7310TIP3   OH243420   4.615   5.424   4.864 -0.0144  0.5836  0.3852
 7310TIP3    H143421   4.675   5.349   4.859 -0.4900  0.1417  1.2621
 7310TIP3    H243422   4.544   5.402   4.804  0.6917  1.1111 -0.6645
 7311TIP3   OH243423   1.582   4.777   2.019 -0.0080  0.3166 -0.1872
 7311TIP3    H143424   1.603   4.769   1.926 -0.3305 -0.3132 -0.2091
 7311TIP3    H243425   1.644   4.841   2.053 -0.0711  0.7470 -0.8975
 7312TIP3   OH243426   2.101   3.400   0.859 -0.6561 -0.0922 -0.0179
 7312TIP3    H143427   2.088   3.346   0.937  2.1681 -0.0836  0.5040
 7312TIP3    H243428   2.059   3.483   0.881 -0.5156 -0.3280  1.2040
 7313TIP3   OH243429   2.369   2.492   3.429  0.3620 -0.1703 -0.4504
 7313TIP3    H143430   2.455   2.530   3.416  0.2792 -0.2460 -1.2580
 7313TIP3    H243431   2.314   2.532   3.361  0.1795 -1.3998 -1.0444
 7314TIP3   OH243432   0.394   6.619   6.538 -0.4695  0.0224 -0.4800
 7314TIP3    H143433   0.310   6.573   6.548 -1.2900  1.5377 -0.1755
 7314TIP3    H243434   0.396   6.644   6.446 -1.6430  2.3522  0.0943
 7315TIP3   OH243435   2.605   3.792  16.182  0.2373  0.3195 -0.0885
 7315TIP3    H143436   2.529   3.779  16.125 -2.1515  1.6212  2.6795
 7315TIP3    H243437   2.636   3.703  16.201 -0.7200 -0.2376 -1.0797
 7316TIP3   OH243438   5.738   6.304   2.218  0.3692  0.8551  0.0304
 7316TIP3    H143439   5.724   6.222   2.171 -0.1557 -0.3178  2.1192
 7316TIP3    H243440   5.826   6.332   2.193  0.1865  0.1647 -1.4449
 7317TIP3   OH243441   3.233   4.045   2.512  0.1439 -0.4427  0.7763
 7317TIP3    H143442   3.219   4.039   2.607 -2.7548  1.2236  0.4979
 7317TIP3    H243443   3.264   4.134   2.498 -0.0901 -0.4738  0.0707
 7318TIP3   OH243444   2.929   0.097   5.297 -0.0313  0.2818  0.1990
 7318TIP3    H143445   2.987   0.173   5.303  0.6957 -0.2722  0.2613
 7318TIP3    H243446   2.959   0.039   5.367  1.3825 -1.3865 -1.7304
 7319TIP3   OH243447   6.018   1.654  16.619  0.2309 -0.8134  0.4080
 7319TIP3    H143448   5.939   1.621  16.661 -1.8845  2.1291 -1.0386
 7319TIP3    H243449   6.013   1.749  16.630  2.8483 -0.4661 -0.9300
 7320TIP3   OH243450   0.067   6.293   4.325  0.6407 -0.1791  0.2900
 7320TIP3    H143451  -0.022   6.269   4.300  1.1400  0.1463 -1.9368
 7320TIP3    H243452   0.122   6.259   4.254  1.9924  1.8509  0.3078
 7321TIP3   OH243453   1.755   1.917   0.741 -0.5578 -0.1305 -0.7190
 7321TIP3    H143454   1.773   2.002   0.700  2.8701 -1.1869 -1.5599
 7321TIP3    H243455   1.727   1.861   0.669  0.6183 -0.6457 -0.7851
 7322TIP3   OH243456   0.695   2.484   2.239  0.0929  0.0081 -0.0724
 7322TIP3    H143457   0.656   2.560   2.283 -0.3647  0.2197 -0.8362
 7322TIP3    H243458   0.784   2.480   2.273  0.5922  1.7486 -1.0793
 7323TIP3   OH243459   2.944   5.278  13.927  0.2804  0.1435  0.0247
 7323TIP3    H143460   2.877   5.213  13.906  1.2525 -0.7813 -0.2339
 7323TIP3    H243461   3.010   5.268  13.858  1.0888  0.4673  0.7430
 7324TIP3   OH243462   4.811   6.581   6.574  0.4892 -0.3159  0.8498
 7324TIP3    H143463   4.744   6.514   6.557  1.5004 -1.9881  3.1923
 7324TIP3    H243464   4.885   6.555   6.519  0.4493 -0.4200  0.8463
 7325TIP3   OH243465   3.952   5.505   5.325  0.8889  0.1568 -0.6708
 7325TIP3    H143466   3.940   5.489   5.232  1.2029  0.7722 -0.8150
 7325TIP3    H243467   4.046   5.514   5.336  1.1653 -3.1673  0.2271
 7326TIP3   OH243468   5.528   0.700  12.415  0.1371 -0.3347  0.3404
 7326TIP3    H143469   5.557   0.701  12.506  0.3593  1.4010  0.2676
 7326TIP3    H243470   5.606   0.724  12.364 -0.3272  0.0196 -0.2065
 7327TIP3   OH243471   2.269   6.531   0.301 -0.3225 -1.2452 -0.6130
 7327TIP3    H143472   2.207   6.603   0.313 -0.5154 -1.2595 -1.5332
 7327TIP3    H243473   2.235   6.461   0.356 -1.0228 -1.1949 -0.9879
 7328TIP3   OH243474   3.160   3.854  11.777 -0.4260 -0.2418  0.6977
 7328TIP3    H143475   3.158   3.817  11.689 -0.6283 -1.3370  1.1523
 7328TIP3    H243476   3.243   3.824  11.814 -0.3679  0.1658  0.8987
 7329TIP3   OH243477   5.656   1.059  12.698 -0.6018 -0.4008 -0.4521
 7329TIP3    H143478   5.630   1.143  12.735 -0.2576 -0.0366 -1.0324
 7329TIP3    H243479   5.750   1.053  12.715 -0.9885 -1.6119  1.4318
 7330TIP3   OH243480   3.409   0.369   5.303 -0.4369  0.2959  0.0844
 7330TIP3    H143481   3.400   0.448   5.356  0.5873  1.4219 -1.3506
 7330TIP3    H243482   3.448   0.305   5.361 -1.1642  0.8788  1.2391
 7331TIP3   OH243483   2.422   4.046   3.748 -0.1320 -0.3822 -0.3921
 7331TIP3    H143484   2.440   3.964   3.794  0.4591  0.2483  0.5304
 7331TIP3    H243485   2.328   4.046   3.735 -0.1460 -1.1632 -0.2983
 7332TIP3   OH243486   2.104   3.615  10.900  0.4184  0.0205 -0.5654
 7332TIP3    H143487   2.145   3.692  10.939 -0.9766  0.9420 -0.8565
 7332TIP3    H243488   2.070   3.646  10.816  0.0657 -0.9817 -0.8010
 7333TIP3   OH243489   0.532   2.357   0.476  0.0320  0.0593  0.3320
 7333TIP3    H143490   0.447   2.362   0.433 -1.2543 -0.5334  2.7187
 7333TIP3    H243491   0.561   2.267   0.464  0.6285  0.4171 -1.0030
 7334TIP3   OH243492   2.155   2.331  10.831 -0.4294 -0.5087  0.0283
 7334TIP3    H143493   2.241   2.301  10.803 -1.2381 -0.1699 -2.9988
 7334TIP3    H243494   2.098   2.312  10.756 -2.4285  1.6926  0.9554
 7335TIP3   OH243495   0.854   2.892   4.775  0.1067  0.0626 -0.0458
 7335TIP3    H143496   0.920   2.853   4.718 -1.0733  0.1717 -1.4987
 7335TIP3    H243497   0.778   2.905   4.719 -0.8104  0.9025  1.3616
 7336TIP3   OH243498   5.089   0.830   1.690  0.8218  0.6822 -0.2620
 7336TIP3    H143499   5.138   0.825   1.608  0.2780  2.2005 -0.6894
 7336TIP3    H243500   5.101   0.920   1.720 -2.4091  1.3770 -0.8622
 7337TIP3   OH243501   1.059   0.135  13.395 -0.3851 -0.0613  0.0677
 7337TIP3    H143502   1.018   0.142  13.481 -0.0788  1.0808  0.1272
 7337TIP3    H243503   1.150   0.112  13.413  0.3698  2.8326  0.1982
 7338TIP3   OH243504   0.318   4.367  11.507  0.8061 -0.1603 -0.6460
 7338TIP3    H143505   0.230   4.342  11.480  1.1717 -0.5192 -1.5504
 7338TIP3    H243506   0.344   4.302  11.572 -0.7664  1.7319  1.9600
 7339TIP3   OH243507   5.610   0.794   2.388 -0.3348 -0.0909 -0.2340
 7339TIP3    H143508   5.617   0.881   2.350 -1.0446 -0.5305 -1.3650
 7339TIP3    H243509   5.530   0.757   2.352  1.3851 -2.2835 -1.9856
 7340TIP3   OH243510   1.659   3.116  14.820 -0.2065  0.2518  0.1484
 7340TIP3    H143511   1.671   3.034  14.771  0.9612 -0.0027  0.8458
 7340TIP3    H243512   1.627   3.178  14.754 -0.5143 -0.6004 -0.5183
 7341TIP3   OH243513   2.280   3.473  11.241 -0.2208 -0.4480  0.2712
 7341TIP3    H143514   2.276   3.560  11.280 -0.5424 -1.2589  2.1149
 7341TIP3    H243515   2.196   3.433  11.264 -0.4906 -0.8775 -1.4406
 7342TIP3   OH243516   3.112   1.676  10.614  0.1727 -0.3103 -0.0401
 7342TIP3    H143517   3.047   1.607  10.606  0.0943 -0.1452 -0.8053
 7342TIP3    H243518   3.109   1.723  10.531  0.3182  0.5295  0.4190
 7343TIP3   OH243519   2.325   3.879   1.416  0.0134  0.1081  0.4084
 7343TIP3    H143520   2.334   3.916   1.504 -0.1512 -0.9960  0.8995
 7343TIP3    H243521   2.371   3.941   1.359  0.7898  0.4308  1.3717
 7344TIP3   OH243522   6.164   6.263  15.726 -0.1883 -0.0236 -0.3453
 7344TIP3    H143523   6.253   6.288  15.751 -0.6744  0.6699  0.7614
 7344TIP3    H243524   6.169   6.169  15.708  0.9291  0.1666 -1.0889
 7345TIP3   OH243525   0.011   1.739  13.719 -0.3998  0.2804  0.1341
 7345TIP3    H143526  -0.073   1.772  13.687  0.0209  1.1496 -0.1075
 7345TIP3    H243527   0.071   1.814  13.710  0.4087 -0.3427  0.2505
 7346TIP3   OH243528   6.369   2.571   3.389  0.4807 -0.0406  0.0291
 7346TIP3    H143529   6.462   2.590   3.379  0.0274  1.7595 -0.9246
 7346TIP3    H243530   6.351   2.503   3.324  1.1582 -0.5574  0.3723
 7347TIP3   OH243531   0.026   2.829  12.087 -0.4219 -0.1596  0.3336
 7347TIP3    H143532   0.002   2.852  11.997  0.1059 -2.3553 -0.4071
 7347TIP3    H243533   0.119   2.851  12.094 -0.3761 -0.3110  0.2172
 7348TIP3   OH243534   6.765   3.725  12.905  0.2348  0.1750  0.3581
 7348TIP3    H143535   6.703   3.653  12.911  0.8036 -0.4405 -0.9721
 7348TIP3    H243536   6.848   3.685  12.878 -0.2248  1.6297 -3.6036
 7349TIP3   OH243537   4.709   3.797  14.261  0.1060 -0.8485 -0.0074
 7349TIP3    H143538   4.759   3.716  14.246 -0.4685 -1.2415  0.1558
 7349TIP3    H243539   4.625   3.781  14.217 -0.2486 -0.5915  0.5824
 7350TIP3   OH243540   1.885   4.817   6.527  1.0368 -0.4826  0.6640
 7350TIP3    H143541   1.890   4.779   6.439 -0.0245  2.0877 -0.5678
 7350TIP3    H243542   1.797   4.796   6.557  1.6102 -1.8935  1.3845
 7351TIP3   OH243543   3.845   5.952   1.793 -0.1948 -0.1298 -0.2964
 7351TIP3    H143544   3.821   5.866   1.760  0.9469 -0.2247 -0.8877
 7351TIP3    H243545   3.941   5.952   1.795 -0.0942  1.8462 -2.2653
 7352TIP3   OH243546   4.492   1.549  16.528  0.4873  0.2687  0.2734
 7352TIP3    H143547   4.461   1.459  16.535 -1.1223  0.6439 -1.6621
 7352TIP3    H243548   4.550   1.548  16.451  0.7706  0.7995  0.4774
 7353TIP3   OH243549   0.290   5.123   3.734  0.3405 -0.0392  0.9373
 7353TIP3    H143550   0.345   5.143   3.658 -0.0997 -1.2961  0.2552
 7353TIP3    H243551   0.347   5.135   3.810  1.2086 -0.1701  0.3147
 7354TIP3   OH243552   0.827   5.262   6.575  0.0656 -0.4743 -0.6296
 7354TIP3    H143553   0.733   5.262   6.593  0.0112 -1.1335 -0.8975
 7354TIP3    H243554   0.865   5.211   6.646  0.4907  1.6818  0.7583
 7355TIP3   OH243555   2.107   5.471   4.148  0.9087 -0.5029 -0.7022
 7355TIP3    H143556   2.164   5.418   4.204 -0.9486 -2.3461 -0.4821
 7355TIP3    H243557   2.095   5.553   4.197 -1.1967 -2.3132  2.0329
 7356TIP3   OH243558   1.377   3.516  16.787  0.4221  0.1633  0.1261
 7356TIP3    H143559   1.321   3.484  16.858  1.0059  0.6830  0.8313
 7356TIP3    H243560   1.416   3.596  16.822  1.4660 -0.0969 -0.4290
 7357TIP3   OH243561   4.137   5.247  16.568  0.0432 -0.1494 -0.5583
 7357TIP3    H143562   4.157   5.312  16.635 -0.0884 -0.4054 -0.2682
 7357TIP3    H243563   4.184   5.278  16.491  0.8452 -0.2778 -0.1262
 7358TIP3   OH243564   2.004   0.946  15.747 -0.2398  0.1010 -0.4328
 7358TIP3    H143565   1.991   0.942  15.842  0.6873 -1.3141 -0.3478
 7358TIP3    H243566   2.099   0.940  15.736 -0.4309 -1.1519 -1.5027
 7359TIP3   OH243567   1.393   1.506   5.619  0.0913 -0.2942  0.1543
 7359TIP3    H143568   1.299   1.498   5.604  0.2355 -0.9082 -0.4609
 7359TIP3    H243569   1.421   1.418   5.645  0.5637 -0.2147 -0.0719
 7360TIP3   OH243570   2.041   4.214   4.760 -0.4812 -0.1541  0.0598
 7360TIP3    H143571   2.020   4.158   4.835 -1.5136 -0.7294 -0.6572
 7360TIP3    H243572   1.964   4.270   4.749 -1.0942 -1.3030 -1.6899
 7361TIP3   OH243573   0.156   2.979  12.896 -0.3121 -0.2563  0.0791
 7361TIP3    H143574   0.199   2.926  12.828 -0.4360 -0.6112  0.2777
 7361TIP3    H243575   0.218   2.980  12.969 -0.9585 -1.4135  0.6648
 7362TIP3   OH243576   4.098   1.106  16.034 -0.4708  0.4567 -0.3011
 7362TIP3    H143577   4.025   1.166  16.052 -0.6681  0.7694 -2.0722
 7362TIP3    H243578   4.080   1.030  16.089 -1.7642  0.8156 -0.1961
 7363TIP3   OH243579   0.155   5.828  12.708  0.5374 -0.2201 -0.3578
 7363TIP3    H143580   0.226   5.861  12.764 -0.1410  0.4854  0.0846
 7363TIP3    H243581   0.169   5.871  12.624 -1.1619  2.3650  0.6026
 7364TIP3   OH243582   0.523   2.164  12.021 -0.1784  0.1641 -0.3904
 7364TIP3    H143583   0.580   2.155  12.096  0.2939  1.0038 -0.6490
 7364TIP3    H243584   0.504   2.074  11.995  0.8878 -0.1218 -0.2063
 7365TIP3   OH243585   1.755   6.207   3.778  0.0532 -0.6328 -0.1069
 7365TIP3    H143586   1.764   6.125   3.826 -1.3465 -0.8397 -0.1745
 7365TIP3    H243587   1.782   6.186   3.689  2.1823 -0.3701  0.4414
 7366TIP3   OH243588   0.611   2.139   1.391 -0.6998  0.0045 -0.8183
 7366TIP3    H143589   0.570   2.119   1.475 -2.0210  1.6729 -1.0316
 7366TIP3    H243590   0.570   2.079   1.329  1.5288 -2.4293 -0.0031
 7367TIP3   OH243591   5.210   3.564  16.840 -0.8852 -0.2619  0.3520
 7367TIP3    H143592   5.288   3.614  16.817 -2.1925  1.1711 -1.0287
 7367TIP3    H243593   5.179   3.528  16.757 -0.6887 -2.3569  1.1441
 7368TIP3   OH243594   0.527   0.557   3.747  0.0198 -0.7414 -0.9284
 7368TIP3    H143595   0.600   0.550   3.686  1.1844  1.5429  0.1750
 7368TIP3    H243596   0.564   0.537   3.832 -0.3716  1.5399 -0.2029
 7369TIP3   OH243597   2.028   2.834   4.908  0.4744  0.3554  0.2180
 7369TIP3    H143598   1.950   2.878   4.873 -0.5099 -1.7542 -0.3738
 7369TIP3    H243599   2.041   2.872   4.994 -2.0948 -0.2496  0.9249
 7370TIP3   OH243600   0.478   6.593   0.161 -0.2391 -0.5773 -0.3735
 7370TIP3    H143601   0.494   6.505   0.197  1.2725 -0.6555 -1.2151
 7370TIP3    H243602   0.429   6.577   0.081 -1.4432 -0.5374  0.3319
 7371TIP3   OH243603   2.735   6.196   0.147 -0.5332 -0.4398  0.3530
 7371TIP3    H143604   2.826   6.223   0.136 -0.7178 -0.2138 -0.6685
 7371TIP3    H243605   2.684   6.271   0.115 -1.1050  0.2711  2.8406
 7372TIP3   OH243606   6.699   5.912   1.902 -0.3197  0.4634 -0.2362
 7372TIP3    H143607   6.726   5.827   1.938 -0.4287  0.7298  0.4770
 7372TIP3    H243608   6.696   5.897   1.807 -1.5142 -0.6731 -0.0473
 7373TIP3   OH243609   5.600   0.987  11.574  1.0451  0.5487 -0.1896
 7373TIP3    H143610   5.508   0.999  11.551  1.3317  0.9562 -1.1575
 7373TIP3    H243611   5.632   0.925  11.508  0.9064 -1.3896  1.5159
 7374TIP3   OH243612   4.597   1.835   0.352  0.5334 -0.3354  0.5209
 7374TIP3    H143613   4.624   1.744   0.348 -1.3051 -0.9513  1.8033
 7374TIP3    H243614   4.660   1.876   0.412  0.6679 -0.9958  0.8327
 7375TIP3   OH243615   3.777   5.273  10.730 -0.4357 -0.2537 -0.2746
 7375TIP3    H143616   3.823   5.357  10.739 -2.0537  0.4125  2.2834
 7375TIP3    H243617   3.845   5.207  10.733  0.7332  0.8976 -0.9304
 7376TIP3   OH243618   0.621   4.772   4.215 -0.8244  0.2576 -0.4157
 7376TIP3    H143619   0.561   4.832   4.258  0.2378  0.5206  0.7402
 7376TIP3    H243620   0.704   4.819   4.212  0.6319 -1.9102  2.5049
 7377TIP3   OH243621   4.275   5.887   5.362 -0.6369  0.1359  0.0573
 7377TIP3    H143622   4.282   5.952   5.431 -1.6145  1.0606 -0.6918
 7377TIP3    H243623   4.364   5.854   5.351 -0.5117 -0.1546  1.8705
 7378TIP3   OH243624   6.149   5.280  15.519 -0.0576  0.0279  0.0070
 7378TIP3    H143625   6.129   5.191  15.490 -1.0881 -0.1693  1.2437
 7378TIP3    H243626   6.206   5.269  15.595  1.1312  0.4785 -0.8066
 7379TIP3   OH243627   3.055   4.678  15.433  0.1371  0.4406 -0.8380
 7379TIP3    H143628   3.041   4.752  15.373 -0.9779 -0.2930 -1.5098
 7379TIP3    H243629   3.146   4.685  15.459  0.4115  1.2664 -1.9707
 7380TIP3   OH243630   6.416   3.637   2.204  0.4617 -0.1231 -0.2967
 7380TIP3    H143631   6.374   3.584   2.137 -0.2590 -1.5056  1.1999
 7380TIP3    H243632   6.454   3.573   2.265  0.1551  1.0691  1.1896
 7381TIP3   OH243633   4.024   0.984  13.057  0.7689 -0.3914  0.2322
 7381TIP3    H143634   3.975   1.059  13.024  2.0475 -0.0343 -0.9131
 7381TIP3    H243635   4.018   0.992  13.152 -3.0255 -1.4699  0.1716
 7382TIP3   OH243636   0.939   2.109  11.886  0.2382  0.2488 -0.0875
 7382TIP3    H143637   0.972   2.186  11.933  0.5062  0.1678 -0.1383
 7382TIP3    H243638   1.012   2.083  11.829 -0.1564  0.4633 -0.6944
 7383TIP3   OH243639   6.325   5.445   1.135 -0.1544  0.0875  0.1289
 7383TIP3    H143640   6.286   5.382   1.075  1.7305 -0.4623 -0.5739
 7383TIP3    H243641   6.275   5.435   1.216 -1.6473 -0.3439 -0.8262
 7384TIP3   OH243642   6.383   2.370  11.763  0.0985  0.0621  0.0674
 7384TIP3    H143643   6.406   2.300  11.701  0.8160 -1.2885  1.8158
 7384TIP3    H243644   6.455   2.370  11.826 -2.0448 -0.6158  2.5875
 7385TIP3   OH243645   2.546   2.470  11.323 -0.2647  0.2148 -0.2234
 7385TIP3    H143646   2.633   2.510  11.323 -0.2550  0.1933 -0.5407
 7385TIP3    H243647   2.553   2.396  11.263 -1.1174  1.5973 -2.1021
 7386TIP3   OH243648   6.087   3.839  13.837 -0.1171  0.1506  0.3844
 7386TIP3    H143649   6.090   3.925  13.877 -0.5207  0.2465  0.2107
 7386TIP3    H243650   6.178   3.817  13.819  0.1803 -0.3279  2.2815
 7387TIP3   OH243651   5.779   0.083  16.922  0.5846 -0.4033  0.0684
 7387TIP3    H143652   5.827   0.036  16.854  1.3932 -0.4091  0.6485
 7387TIP3    H243653   5.809   0.045  17.004 -1.9322 -1.8845  0.3726
 7388TIP3   OH243654   0.312   0.253   4.496  0.2975  0.3901 -0.7879
 7388TIP3    H143655   0.226   0.212   4.501  0.0884  0.7327 -1.4484
 7388TIP3    H243656   0.295   0.347   4.499  0.6316  0.4647 -1.1013
 7389TIP3   OH243657   2.668   2.425   4.366 -0.0406  0.0094  0.7428
 7389TIP3    H143658   2.703   2.400   4.451  0.5561  1.6764  1.0049
 7389TIP3    H243659   2.720   2.501   4.340 -0.8913  0.1351 -0.6441
 7390TIP3   OH243660   5.530   4.761  11.705 -0.3097  0.0492 -0.6305
 7390TIP3    H143661   5.605   4.790  11.757 -1.0001  0.7290  0.0184
 7390TIP3    H243662   5.499   4.682  11.749  0.1933 -0.3910 -1.0628
 7391TIP3   OH243663   6.281   0.044  14.353  0.2428 -1.0038  0.2896
 7391TIP3    H143664   6.314  -0.039  14.386 -1.6212 -1.2989  1.4902
 7391TIP3    H243665   6.252   0.091  14.432 -0.2920  0.0775 -0.5423
 7392TIP3   OH243666   5.197   1.493  14.714 -0.0279  0.2105 -0.2570
 7392TIP3    H143667   5.111   1.523  14.744 -0.2890 -0.0461 -0.7497
 7392TIP3    H243668   5.193   1.398  14.722  0.1623  0.1909 -0.4103
 7393TIP3   OH243669   3.310   0.070   4.531 -0.0258  0.1334  0.2108
 7393TIP3    H143670   3.281   0.096   4.443  0.0670 -2.0772 -0.4841
 7393TIP3    H243671   3.229   0.066   4.582 -0.0305  1.8927  0.3790
 7394TIP3   OH243672   4.467   3.642   0.562  0.5484 -0.1603 -0.1796
 7394TIP3    H143673   4.557   3.628   0.592  1.2601 -0.0859 -2.2345
 7394TIP3    H243674   4.474   3.651   0.468 -1.2977  2.8523 -0.0676
 7395TIP3   OH243675   6.649   5.206  14.534 -0.1481  0.0393 -0.2869
 7395TIP3    H143676   6.701   5.193  14.613  0.9222 -1.4549 -1.2008
 7395TIP3    H243677   6.619   5.118  14.510 -0.8048  0.5226 -1.3087
 7396TIP3   OH243678   4.267   3.049   2.740  0.6794  0.2018  0.4683
 7396TIP3    H143679   4.192   2.992   2.728 -0.2227  1.0934  1.7168
 7396TIP3    H243680   4.258   3.082   2.829  1.6716  1.6022  0.0693
 7397TIP3   OH243681   2.446   0.390   5.576 -0.1552  0.1202 -0.0429
 7397TIP3    H143682   2.364   0.360   5.539  0.1453  0.3456 -0.9038
 7397TIP3    H243683   2.492   0.310   5.601  0.1395 -0.0974 -1.2434
 7398TIP3   OH243684   2.962   5.645  11.638  0.3966  0.1712  0.2133
 7398TIP3    H143685   3.043   5.696  11.639  0.1928  0.4903  1.0185
 7398TIP3    H243686   2.967   5.594  11.557  0.1388  2.2090 -1.1304
 7399TIP3   OH243687   5.705   3.941  16.863  0.0133  0.2132 -0.1163
 7399TIP3    H143688   5.786   3.902  16.897 -1.5491 -1.9387  1.2644
 7399TIP3    H243689   5.635   3.897  16.911 -2.0609  0.9775 -2.3352
 7400TIP3   OH243690   0.339   4.528   2.040 -0.1768  0.3007  0.5344
 7400TIP3    H143691   0.320   4.479   1.960  0.3690  3.2552 -1.5024
 7400TIP3    H243692   0.374   4.463   2.101 -2.3516 -2.3702 -0.9515
 7401TIP3   OH243693   5.397   6.782   1.112 -0.0378  0.5102  0.6864
 7401TIP3    H143694   5.333   6.806   1.179  0.4694  2.2166  0.5775
 7401TIP3    H243695   5.441   6.864   1.089 -0.9423  0.1990 -2.5043
 7402TIP3   OH243696   0.386   2.517   4.190  0.2017 -0.3741  0.2657
 7402TIP3    H143697   0.320   2.544   4.126  0.1877  0.3173  0.5687
 7402TIP3    H243698   0.386   2.586   4.256  0.0198 -1.2199  1.1671
 7403TIP3   OH243699   2.122   3.937  12.945 -0.2239 -0.8843  0.1195
 7403TIP3    H143700   2.148   3.862  12.997 -0.3023  0.3101  1.9031
 7403TIP3    H243701   2.027   3.933  12.943 -0.1983 -1.2427 -0.4048
 7404TIP3   OH243702   3.786   5.300   3.382 -0.1890  0.2406  0.0232
 7404TIP3    H143703   3.706   5.312   3.433  1.1893 -0.0803  2.3454
 7404TIP3    H243704   3.807   5.207   3.393  1.8561  0.8448  1.5892
 7405TIP3   OH243705   6.185   3.428  13.678 -0.5415  0.5015 -0.0208
 7405TIP3    H143706   6.278   3.416  13.664 -0.4761  0.0272  0.8166
 7405TIP3    H243707   6.168   3.520  13.654  0.2506  0.7692  0.4479
 7406TIP3   OH243708   1.602   5.354   5.407 -0.1599  0.0584  0.0071
 7406TIP3    H143709   1.567   5.278   5.454  1.3774 -1.0847 -0.6709
 7406TIP3    H243710   1.673   5.386   5.463 -1.3973  1.5889  0.7488
 7407TIP3   OH243711   3.164   0.120  16.815 -0.2173  0.0343 -0.3844
 7407TIP3    H143712   3.082   0.088  16.854 -0.3688 -0.5861 -1.1922
 7407TIP3    H243713   3.208   0.165  16.887 -1.2175  0.2897  0.0901
 7408TIP3   OH243714   5.823   6.683   4.336  0.4497 -0.5855 -0.1184
 7408TIP3    H143715   5.856   6.694   4.426  0.5952  2.0085 -0.4284
 7408TIP3    H243716   5.735   6.646   4.347 -0.2042  1.2632  1.2170
 7409TIP3   OH243717   2.174   0.795  12.889 -0.2715 -0.1980  0.1851
 7409TIP3    H143718   2.264   0.774  12.866 -1.0995 -2.1662 -1.3739
 7409TIP3    H243719   2.121   0.730  12.843 -2.4571  0.5166  1.5952
 7410TIP3   OH243720   5.033   3.699  12.188  0.3121  0.0821  0.3393
 7410TIP3    H143721   4.991   3.636  12.130  1.9623  0.9917 -1.9132
 7410TIP3    H243722   5.088   3.646  12.245  0.8284 -0.6019 -0.7826
 7411TIP3   OH243723   4.363   5.504  15.880 -0.0891 -0.2446 -0.3258
 7411TIP3    H143724   4.367   5.571  15.812 -1.5083  0.1028 -0.0877
 7411TIP3    H243725   4.398   5.546  15.958 -1.3484  0.3615 -0.0757
 7412TIP3   OH243726   4.948   0.311   6.864 -0.2460 -0.1329 -0.3399
 7412TIP3    H143727   4.945   0.404   6.842  1.5182 -0.0857 -0.4652
 7412TIP3    H243728   5.034   0.282   6.834  0.1247 -1.2947  1.7203
 7413TIP3   OH243729   1.047   6.399  16.087 -0.0060  0.0316  0.7960
 7413TIP3    H143730   1.112   6.372  16.152  0.7638  0.3670  0.1838
 7413TIP3    H243731   1.089   6.381  16.003 -0.8974 -0.1732  0.3891
 7414TIP3   OH243732   5.502   4.933  12.729  0.5856  0.2899 -0.7659
 7414TIP3    H143733   5.477   5.002  12.668  1.9501  1.0575 -0.4703
 7414TIP3    H243734   5.535   4.863  12.674 -0.9517 -0.2096 -1.0773
 7415TIP3   OH243735   5.101   6.719   1.049 -0.0823  0.0684 -0.5184
 7415TIP3    H143736   5.143   6.634   1.031 -0.7521 -0.2556 -0.5820
 7415TIP3    H243737   5.140   6.779   0.986 -3.8123 -1.4747 -4.5727
 7416TIP3   OH243738   2.786   4.177   5.280 -0.3054  0.3350  0.0109
 7416TIP3    H143739   2.876   4.147   5.263 -0.0007  0.5401  1.2129
 7416TIP3    H243740   2.781   4.185   5.375 -2.2449 -1.6703  0.1242
 7417TIP3   OH243741   0.098   1.726  14.908 -0.2456 -0.1327 -0.4534
 7417TIP3    H143742   0.146   1.759  14.984  0.5263  0.2476 -1.1020
 7417TIP3    H243743   0.006   1.734  14.933 -0.0363  1.4264 -0.1380
 7418TIP3   OH243744   4.833   6.581   1.513 -0.3864 -0.3035  0.1815
 7418TIP3    H143745   4.864   6.670   1.495  0.1032 -0.5203 -0.0530
 7418TIP3    H243746   4.745   6.578   1.477 -0.2525 -0.0363 -0.1643
 7419TIP3   OH243747   2.414   3.676  15.812 -0.7186 -0.1901 -0.8358
 7419TIP3    H143748   2.509   3.680  15.825 -0.1429 -0.5313 -4.4067
 7419TIP3    H243749   2.381   3.627  15.887  1.9701 -0.4728  0.2107
 7420TIP3   OH243750   4.140   1.899  13.070 -0.5397  0.8769 -0.0971
 7420TIP3    H143751   4.232   1.889  13.046 -0.5781  1.7897 -0.6447
 7420TIP3    H243752   4.140   1.961  13.143 -0.6285 -0.0544  0.7083
 7421TIP3   OH243753   4.977   2.971  17.216 -0.0893 -0.2081  0.2612
 7421TIP3    H143754   4.960   3.047  17.271 -5.2128 -1.5033  0.7006
 7421TIP3    H243755   4.990   3.007  17.128  1.6511  1.4065  1.1522
 7422TIP3   OH243756   4.053   6.094  13.071 -0.1204 -0.0494  0.2891
 7422TIP3    H143757   4.132   6.042  13.088  0.1439  0.2274 -0.0853
 7422TIP3    H243758   4.044   6.149  13.149  0.5519  0.5358 -0.0380
 7423TIP3   OH243759   6.631   1.869   2.920  0.5804  0.5807 -0.0430
 7423TIP3    H143760   6.639   1.787   2.967 -1.8828  0.1004 -0.3903
 7423TIP3    H243761   6.708   1.873   2.864  1.2444 -0.9768  0.7589
 7424TIP3   OH243762   5.710   4.412  13.980  0.0556 -0.2945  0.4554
 7424TIP3    H143763   5.758   4.464  14.045 -1.8011  1.3673  0.5591
 7424TIP3    H243764   5.702   4.470  13.904  0.5791 -1.5531 -0.5719
 7425TIP3   OH243765   2.109   0.767   5.824 -0.2709 -0.7161 -0.3871
 7425TIP3    H143766   2.022   0.765   5.784  0.9053  1.0695 -3.2481
 7425TIP3    H243767   2.149   0.683   5.800 -0.9253 -1.2176  0.2787
 7426TIP3   OH243768   1.840   6.186  12.430 -0.0312  0.2501 -0.4312
 7426TIP3    H143769   1.816   6.132  12.505 -0.4262  0.2834 -0.5297
 7426TIP3    H243770   1.811   6.274  12.454  1.1069  0.5294 -0.0422
 7427TIP3   OH243771   3.396   3.649  14.567  0.3259 -0.1907  0.1760
 7427TIP3    H143772   3.365   3.734  14.600  0.0813  0.2312 -1.0810
 7427TIP3    H243773   3.478   3.670  14.522 -0.1850 -0.4671 -0.9007
 7428TIP3   OH243774   5.688   4.140  14.918  0.0930  0.1470  0.1345
 7428TIP3    H143775   5.710   4.206  14.852  0.4411 -0.2295 -0.1297
 7428TIP3    H243776   5.592   4.138  14.920  0.0856  1.0768  0.5667
 7429TIP3   OH243777   1.281   5.485  11.061 -0.1727 -0.6781  0.0316
 7429TIP3    H143778   1.373   5.460  11.070  0.6237  2.0903 -0.1093
 7429TIP3    H243779   1.238   5.446  11.137  1.0451 -2.2142 -0.0370
 7430TIP3   OH243780   4.694   1.480  11.474  0.4606 -0.2004 -0.3185
 7430TIP3    H143781   4.680   1.388  11.495  0.8700 -0.3251 -0.5811
 7430TIP3    H243782   4.628   1.527  11.525  1.6509 -0.4574  1.4910
 7431TIP3   OH243783   5.173   5.905  16.511  0.5386  0.5568  0.1779
 7431TIP3    H143784   5.162   5.875  16.421  1.4051 -0.3578  0.3634
 7431TIP3    H243785   5.100   5.965  16.526  1.1410  1.7551 -1.5659
 7432TIP3   OH243786   5.956   6.480  11.926  0.2418 -0.4471  0.4814
 7432TIP3    H143787   5.967   6.445  12.014  0.6117  1.4996  1.2290
 7432TIP3    H243788   5.997   6.566  11.929 -0.4978 -0.0077 -1.3508
 7433TIP3   OH243789   0.494   0.398  17.099  0.5578 -0.4623 -0.7052
 7433TIP3    H143790   0.528   0.474  17.147  0.2701 -0.1966 -0.9197
 7433TIP3    H243791   0.442   0.350  17.163  2.9280 -1.9413  0.1853
 7434TIP3   OH243792   3.246   0.567  11.905  0.1422 -0.1905  0.0013
 7434TIP3    H143793   3.156   0.598  11.902  0.8447  1.7685 -1.8470
 7434TIP3    H243794   3.298   0.644  11.926  1.3712 -1.3753  1.4091
 7435TIP3   OH243795   0.041   3.725   3.031  0.0076 -0.3461  0.2942
 7435TIP3    H143796   0.053   3.631   3.046 -1.4758 -0.2504  2.2270
 7435TIP3    H243797  -0.030   3.730   2.967  0.3388 -0.5272 -0.0953
 7436TIP3   OH243798   2.876   0.961   5.759 -0.2561 -0.5697  0.1518
 7436TIP3    H143799   2.920   0.994   5.680  0.3818 -2.1869 -0.1886
 7436TIP3    H243800   2.878   1.035   5.820  0.4299  0.2829 -0.8761
 7437TIP3   OH243801   3.566   6.796   4.230  0.1175 -0.0416  0.3084
 7437TIP3    H143802   3.646   6.801   4.177  0.5330 -0.8545  0.8489
 7437TIP3    H243803   3.564   6.706   4.263  0.5002  0.7550  2.6277
 7438TIP3   OH243804   4.717   1.057  12.742 -0.0988  0.0145  0.3962
 7438TIP3    H143805   4.762   1.057  12.658 -0.1505  1.7940  0.3609
 7438TIP3    H243806   4.760   0.988  12.792  0.8349 -0.1398 -0.6045
 7439TIP3   OH243807   0.970   3.067   4.329  0.1162 -0.1220  0.2976
 7439TIP3    H143808   0.979   2.983   4.285  0.2450  0.3168 -0.5247
 7439TIP3    H243809   0.952   3.129   4.259 -1.2392  0.3348  1.0293
 7440TIP3   OH243810   1.175   1.903   2.060  0.0915  0.0462 -0.0601
 7440TIP3    H143811   1.146   1.987   2.096  0.8098  0.1984  0.1764
 7440TIP3    H243812   1.141   1.838   2.121 -0.7609  0.1386 -0.4302
 7441TIP3   OH243813   4.456   2.154   0.652 -0.0949 -0.0760  0.5299
 7441TIP3    H143814   4.518   2.216   0.614 -0.8416  0.5322  0.2796
 7441TIP3    H243815   4.374   2.171   0.606 -0.7048 -0.1697  1.5539
 7442TIP3   OH243816   3.331   3.415   0.936 -0.2739 -0.0037  0.9185
 7442TIP3    H143817   3.251   3.463   0.959 -0.1039  0.5274  0.4195
 7442TIP3    H243818   3.301   3.326   0.921 -0.8859  0.3238  0.1205
 7443TIP3   OH243819   5.369   4.007   0.644  0.1543 -0.2576  0.2693
 7443TIP3    H143820   5.349   4.009   0.738 -1.4214  0.7471 -0.0753
 7443TIP3    H243821   5.381   4.099   0.621 -0.6146 -0.4113 -0.7587
 7444TIP3   OH243822   5.396   1.718   3.106 -0.1565 -0.2063  0.0939
 7444TIP3    H143823   5.472   1.661   3.121  0.8743  0.6424 -1.7011
 7444TIP3    H243824   5.375   1.706   3.014 -0.3273  1.8048 -0.1633
 7445TIP3   OH243825   2.344   2.857   1.984 -0.3143  0.0494  0.1894
 7445TIP3    H143826   2.433   2.840   2.016 -0.2856  2.6795  1.6186
 7445TIP3    H243827   2.343   2.819   1.897  2.6632  1.1328 -0.3848
 7446TIP3   OH243828   5.448   4.198   1.249  0.1509 -0.5349  0.2945
 7446TIP3    H143829   5.432   4.251   1.327 -2.2040 -1.4353  0.4377
 7446TIP3    H243830   5.530   4.152   1.268  0.7639  0.9436  1.2930
 7447TIP3   OH243831   2.925   5.504  14.763 -0.4023 -0.6741 -0.2441
 7447TIP3    H143832   2.938   5.444  14.690 -1.8377  1.1371 -2.0257
 7447TIP3    H243833   2.838   5.543  14.748 -0.5755  0.0172  2.2071
 7448TIP3   OH243834   2.493   0.363  10.689 -0.3987 -1.0162  0.2609
 7448TIP3    H143835   2.483   0.452  10.655  0.0185 -1.1245 -0.1484
 7448TIP3    H243836   2.409   0.344  10.731 -0.3379 -0.2774  0.7171
 7449TIP3   OH243837   6.415   1.791  12.663 -0.2537  0.0062  0.4496
 7449TIP3    H143838   6.495   1.843  12.671  0.4107 -0.9934  0.3786
 7449TIP3    H243839   6.395   1.764  12.753  0.0633 -0.6035  0.3348
 7450TIP3   OH243840   6.162   2.619   0.307 -0.6012  0.1054  0.3481
 7450TIP3    H143841   6.230   2.623   0.375 -1.7463 -0.9581  1.5913
 7450TIP3    H243842   6.201   2.565   0.238 -0.1170 -0.3960  1.0002
 7451TIP3   OH243843   6.592   4.963   4.056  0.3140 -0.1809  0.2161
 7451TIP3    H143844   6.672   4.965   4.005 -1.4462  1.2124 -2.6084
 7451TIP3    H243845   6.563   4.872   4.052  0.4547 -0.1853 -0.8917
 7452TIP3   OH243846   3.202   6.057  15.186  0.0730 -0.8590  0.0493
 7452TIP3    H143847   3.248   6.137  15.211 -0.2829 -0.5265 -0.3679
 7452TIP3    H243848   3.224   6.045  15.093 -1.5083 -0.1415 -0.4285
 7453TIP3   OH243849   0.905   3.818  12.292 -0.0730  0.1709 -0.1066
 7453TIP3    H143850   0.888   3.870  12.213 -0.6188 -0.8939 -0.6899
 7453TIP3    H243851   0.896   3.881  12.363  0.3746  1.1371 -0.8709
 7454TIP3   OH243852   1.385   4.693   1.681  0.0388 -0.1270 -0.2682
 7454TIP3    H143853   1.391   4.760   1.613  0.0137 -1.2556 -1.3928
 7454TIP3    H243854   1.306   4.643   1.658  0.3390 -0.8511  0.2794
 7455TIP3   OH243855   4.728   0.797   5.647 -0.3915  0.0225 -0.5923
 7455TIP3    H143856   4.807   0.803   5.593 -0.8061 -0.9035 -1.3176
 7455TIP3    H243857   4.727   0.706   5.677  0.4143  0.8072  1.8826
 7456TIP3   OH243858   5.912   6.665  11.692 -0.1330 -0.2286  0.1237
 7456TIP3    H143859   5.949   6.586  11.652  0.7808 -0.7156  1.8649
 7456TIP3    H243860   5.985   6.703  11.741 -0.5896  1.6680 -0.6337
 7457TIP3   OH243861   2.859   5.264   5.302 -0.1775 -0.0958  0.3524
 7457TIP3    H143862   2.942   5.302   5.274 -0.3774  1.2517  1.5144
 7457TIP3    H243863   2.807   5.339   5.333 -2.0784 -0.8326 -0.9684
 7458TIP3   OH243864   1.529   4.485   1.748  0.3012  0.4416 -0.0153
 7458TIP3    H143865   1.465   4.556   1.739  0.6462  0.6394 -0.9704
 7458TIP3    H243866   1.555   4.489   1.840 -1.0693  0.3421  0.3782
 7459TIP3   OH243867   5.895   0.501  11.523  0.3639 -0.3878  0.4061
 7459TIP3    H143868   5.986   0.480  11.548 -0.1933 -2.2145  0.9391
 7459TIP3    H243869   5.850   0.417  11.523 -1.2636  0.4688 -0.2245
 7460TIP3   OH243870   1.104   0.703  14.084  0.0690  0.9769 -0.0396
 7460TIP3    H143871   1.078   0.771  14.021  1.7036 -0.3320 -2.1843
 7460TIP3    H243872   1.198   0.714  14.094 -0.0281  0.5271  1.4703
 7461TIP3   OH243873   5.055   3.047   3.688  0.1534 -0.2589  0.1301
 7461TIP3    H143874   5.062   2.953   3.674 -0.1914 -0.0908 -1.2501
 7461TIP3    H243875   5.092   3.061   3.775 -3.6532 -2.2063  2.1998
 7462TIP3   OH243876   6.028   1.183   2.824 -0.2214  0.1059 -0.3400
 7462TIP3    H143877   6.028   1.115   2.891 -1.5124 -0.5127 -0.9488
 7462TIP3    H243878   6.117   1.185   2.790 -0.2341 -1.4133 -0.4597
 7463TIP3   OH243879   5.552   4.415   2.246 -0.2246 -0.8458 -0.0074
 7463TIP3    H143880   5.644   4.425   2.269  0.7022 -0.6749 -3.5525
 7463TIP3    H243881   5.525   4.500   2.212 -0.9374 -1.6087 -1.4280
 7464TIP3   OH243882   4.448   5.813   3.098 -0.0579  0.2193 -0.1065
 7464TIP3    H143883   4.539   5.813   3.126  0.0441 -0.1317 -0.4500
 7464TIP3    H243884   4.450   5.847   3.008 -0.2446  0.0224 -0.1852
 7465TIP3   OH243885   4.059   2.123  11.074  0.4720  0.3090 -0.2382
 7465TIP3    H143886   4.086   2.194  11.016 -0.9534 -0.0344 -1.3327
 7465TIP3    H243887   3.976   2.152  11.112  0.5013 -0.2430  0.2609
 7466TIP3   OH243888   2.659   4.791  11.468  0.2623 -0.2584 -0.4888
 7466TIP3    H143889   2.630   4.878  11.494 -1.2229 -1.0399  0.5566
 7466TIP3    H243890   2.737   4.775  11.520  0.1649  0.1895 -0.1976
 7467TIP3   OH243891   5.012   0.436   4.043  0.1648 -0.2058  0.1164
 7467TIP3    H143892   4.984   0.527   4.039  0.5203 -0.1324 -0.7554
 7467TIP3    H243893   5.097   0.434   4.000 -0.0613 -1.0322 -0.3166
 7468TIP3   OH243894   4.150   5.068   4.498 -0.0114  0.2274 -1.2012
 7468TIP3    H143895   4.064   5.075   4.457 -0.4940  0.2004 -0.2016
 7468TIP3    H243896   4.138   5.006   4.570  0.9592 -0.1519 -1.3502
 7469TIP3   OH243897   6.586   5.246   4.894 -0.3485 -0.5246  0.0211
 7469TIP3    H143898   6.505   5.205   4.865 -1.2767  0.4498  1.1722
 7469TIP3    H243899   6.601   5.210   4.982 -1.3032  1.7167  1.1440
 7470TIP3   OH243900   0.548   1.016   0.456 -0.6907  0.8674  0.0477
 7470TIP3    H143901   0.472   0.962   0.432 -1.7930  2.3761  0.0981
 7470TIP3    H243902   0.624   0.960   0.437 -1.8286 -0.9969  0.8366
 7471TIP3   OH243903   5.053   6.046  11.094 -0.3186 -0.1622 -0.2234
 7471TIP3    H143904   5.099   6.008  11.020  0.2109 -1.0010  0.5275
 7471TIP3    H243905   4.962   6.017  11.083 -0.3431  0.1338 -0.8093
 7472TIP3   OH243906   5.710   5.177   4.893  0.6418  0.1966 -0.0310
 7472TIP3    H143907   5.705   5.256   4.840  1.0562 -0.8137 -1.6264
 7472TIP3    H243908   5.698   5.207   4.982  1.0205  2.0923 -0.5900
 7473TIP3   OH243909   6.754   3.793   4.994  0.2613 -0.2299 -0.0020
 7473TIP3    H143910   6.724   3.705   4.973 -0.7688 -0.3495  1.8472
 7473TIP3    H243911   6.677   3.836   5.032  0.5064  1.7448 -1.6332
 7474TIP3   OH243912   2.536   4.545   0.354 -0.3365  0.9445 -0.3075
 7474TIP3    H143913   2.510   4.577   0.267  0.4752  1.7714 -0.2525
 7474TIP3    H243914   2.529   4.450   0.348 -0.1643  0.9914 -1.3211
 7475TIP3   OH243915   0.506   6.227  15.401  0.8189  0.6278  0.1290
 7475TIP3    H143916   0.449   6.152  15.382  1.7089 -0.7064  2.4758
 7475TIP3    H243917   0.445   6.296  15.430  0.2137 -0.1078  0.6420
 7476TIP3   OH243918   2.063   4.018  12.660 -0.2709 -0.2743  0.1465
 7476TIP3    H143919   2.054   4.110  12.686 -0.4354 -0.1032 -0.5035
 7476TIP3    H243920   2.124   3.981  12.724 -1.1438 -0.0138  1.1345
 7477TIP3   OH243921   2.498   0.100  12.422 -0.1299  0.0394 -0.3552
 7477TIP3    H143922   2.473   0.091  12.514 -1.4419 -0.3749 -0.7524
 7477TIP3    H243923   2.506   0.195  12.408 -0.2908  0.1165  0.0771
 7478TIP3   OH243924   0.203   5.559   6.489 -0.2447  0.0450  0.0323
 7478TIP3    H143925   0.288   5.516   6.491 -0.4917 -0.4461  4.1409
 7478TIP3    H243926   0.145   5.496   6.445  1.0839 -0.3391 -1.2013
 7479TIP3   OH243927   6.296   3.536   4.821  0.2077 -0.1363 -0.2899
 7479TIP3    H143928   6.329   3.587   4.747  0.4502  0.3037  0.1168
 7479TIP3    H243929   6.347   3.568   4.896 -1.1142  0.5292  0.3422
 7480TIP3   OH243930   2.720   2.161   0.245 -0.4610 -0.1204 -0.5592
 7480TIP3    H143931   2.684   2.210   0.171 -0.2842  0.4513 -0.2759
 7480TIP3    H243932   2.794   2.215   0.275  0.0001 -0.7782 -0.5057
 7481TIP3   OH243933   5.582   1.423   2.169 -0.4109  0.0071 -0.3088
 7481TIP3    H143934   5.513   1.433   2.233 -0.5020  0.3139 -0.4517
 7481TIP3    H243935   5.644   1.361   2.208  0.3503  1.4333  0.7667
 7482TIP3   OH243936   3.236   1.682   1.851  0.5414 -0.2035  0.5317
 7482TIP3    H143937   3.248   1.723   1.766  1.2390  0.6709  1.0447
 7482TIP3    H243938   3.157   1.628   1.841 -1.2355  2.3716  0.2829
 7483TIP3   OH243939   3.168   3.038  12.958  0.3306 -0.0132 -0.3404
 7483TIP3    H143940   3.263   3.033  12.951  0.1927 -0.5407 -1.9442
 7483TIP3    H243941   3.137   3.034  12.868 -1.3191 -2.2758  0.2936
 7484TIP3   OH243942   5.606   0.630  16.963  0.3758  0.3986  0.0488
 7484TIP3    H143943   5.596   0.713  17.011 -1.8925  0.6794 -0.8252
 7484TIP3    H243944   5.636   0.568  17.029 -0.1249  1.3984  1.2395
 7485TIP3   OH243945   2.595   3.684  16.527  0.2339  0.2669 -0.5095
 7485TIP3    H143946   2.647   3.764  16.514 -0.1844  0.8619  1.3046
 7485TIP3    H243947   2.573   3.656  16.439  2.3074  0.8815 -1.2652
 7486TIP3   OH243948   6.787   4.849   1.001  0.3111 -0.0930 -0.5794
 7486TIP3    H143949   6.813   4.941   1.006 -2.3827  0.6895  0.1276
 7486TIP3    H243950   6.716   4.848   0.936  0.7536 -1.7818 -1.0492
 7487TIP3   OH243951   4.119   0.570   1.976  0.1907 -0.0655  0.0535
 7487TIP3    H143952   4.154   0.554   2.063  1.5987 -0.9503 -0.6752
 7487TIP3    H243953   4.194   0.562   1.917 -0.8861 -0.2496 -1.3258
 7488TIP3   OH243954   1.059   2.458   1.097  0.0358 -0.1674 -0.1121
 7488TIP3    H143955   1.065   2.455   1.192 -0.5954  0.0734 -0.0604
 7488TIP3    H243956   1.058   2.367   1.069  0.3941 -0.2347  0.1064
 7489TIP3   OH243957   3.215   6.391  15.150  0.0029  0.1977  0.0063
 7489TIP3    H143958   3.151   6.463  15.149 -0.3686 -0.1366 -1.3392
 7489TIP3    H243959   3.280   6.416  15.085 -0.2074 -0.7403 -0.5787
 7490TIP3   OH243960   5.460   6.439   2.235 -0.4875 -0.4508 -0.7118
 7490TIP3    H143961   5.543   6.406   2.201  1.0449  1.9062  0.6323
 7490TIP3    H243962   5.450   6.394   2.320  0.1513  0.3645 -0.2034
 7491TIP3   OH243963   4.076   1.144  11.679  0.0546 -0.0294  0.4510
 7491TIP3    H143964   3.992   1.186  11.662 -0.4495 -0.5462  1.6504
 7491TIP3    H243965   4.075   1.065  11.624 -0.7628 -0.6791  1.3822
 7492TIP3   OH243966   5.291   5.448   3.351  0.6139  0.1934  0.4521
 7492TIP3    H143967   5.311   5.448   3.445  1.7675 -0.1471  0.2240
 7492TIP3    H243968   5.196   5.445   3.346  0.5769 -3.3271  1.6159
 7493TIP3   OH243969   0.240   1.721   0.689  0.2977  0.4320 -0.0401
 7493TIP3    H143970   0.252   1.713   0.595 -1.2608  0.7699 -0.2877
 7493TIP3    H243971   0.204   1.810   0.701  0.1732  0.2718  0.8327
 7494TIP3   OH243972   1.673   0.176   2.454  0.0204 -0.1882  0.0466
 7494TIP3    H143973   1.741   0.164   2.520  0.0536  0.6973  0.1769
 7494TIP3    H243974   1.591   0.177   2.504  0.0257  0.2425  0.0416
 7495TIP3   OH243975   2.324   3.812  12.305  0.3918 -0.4399 -0.5080
 7495TIP3    H143976   2.322   3.865  12.384 -1.3188  1.4901 -1.8021
 7495TIP3    H243977   2.411   3.773  12.304  0.8860  0.5373  1.6260
 7496TIP3   OH243978   2.564   1.482  14.193  0.2230 -0.0938  0.3305
 7496TIP3    H143979   2.649   1.506  14.157  1.0811 -2.5858  0.5468
 7496TIP3    H243980   2.561   1.523  14.279  0.8289  0.7079 -0.0272
 7497TIP3   OH243981   5.179   6.539  12.343 -0.2451 -0.2484  0.2676
 7497TIP3    H143982   5.200   6.632  12.356  0.0480 -0.6074  2.5864
 7497TIP3    H243983   5.140   6.535  12.255 -0.1383  2.0323  0.0850
 7498TIP3   OH243984   4.338   5.499   1.255 -0.0124  0.2976 -0.1949
 7498TIP3    H143985   4.304   5.410   1.239  1.6076  0.0366 -2.3197
 7498TIP3    H243986   4.260   5.554   1.255 -0.8929 -0.9140 -0.4290
 7499TIP3   OH243987   6.747   4.062  14.277 -0.0228 -0.0502 -0.1477
 7499TIP3    H143988   6.785   4.062  14.189  1.5570  0.2739  0.5209
 7499TIP3    H243989   6.801   4.000  14.326 -0.0832  0.7486  0.9378
 7500TIP3   OH243990   0.055   5.138   1.030 -0.1892 -0.5861  0.5505
 7500TIP3    H143991   0.082   5.181   1.111  1.3747 -0.0432 -0.2493
 7500TIP3    H243992   0.136   5.114   0.986 -1.0250 -1.8995 -0.3367
 7501TIP3   OH243993   6.666   2.255  16.696 -0.0751  0.0228  0.0017
 7501TIP3    H143994   6.726   2.322  16.664 -1.4746  1.2177 -0.1416
 7501TIP3    H243995   6.579   2.285  16.670 -0.7431 -1.7756  0.0640
 7502TIP3   OH243996   6.646   1.692   0.515  0.2887 -0.1591  0.8585
 7502TIP3    H143997   6.663   1.714   0.424 -0.9554  0.8371  0.8499
 7502TIP3    H243998   6.657   1.597   0.520  0.6825 -0.1705 -0.2549
 7503TIP3   OH243999   2.210   5.800  14.884 -0.1178 -0.0999 -0.4449
 7503TIP3    H144000   2.134   5.775  14.831 -0.9543 -0.4850  0.9037
 7503TIP3    H244001   2.237   5.885  14.849 -1.6278  0.3890 -0.4680
 7504TIP3   OH244002   4.124   3.352  12.226 -0.2898  0.0236  0.3781
 7504TIP3    H144003   4.087   3.279  12.275  3.7107 -2.9805 -0.7822
 7504TIP3    H244004   4.079   3.350  12.142  0.8737 -2.2100 -0.2284
 7505TIP3   OH244005   4.570   4.610  12.226 -0.3701 -0.7856  0.2281
 7505TIP3    H144006   4.551   4.697  12.192 -0.1277 -1.1025 -0.7383
 7505TIP3    H244007   4.526   4.551  12.165  0.3046 -1.3737  0.3069
 7506TIP3   OH244008   6.573   4.417  15.109  0.1316 -0.3314 -0.9748
 7506TIP3    H144009   6.582   4.382  15.021 -2.4246 -0.4081 -1.2560
 7506TIP3    H244010   6.560   4.511  15.097 -2.8660 -0.6695 -0.9400
 7507TIP3   OH244011   5.423   4.350  14.391 -0.4014 -0.3964 -0.2784
 7507TIP3    H144012   5.470   4.383  14.314 -0.7144 -1.6025 -1.0018
 7507TIP3    H244013   5.338   4.323  14.356 -1.8177  2.1092  1.0579
 7508TIP3   OH244014   2.490   5.361   4.772  0.0030  0.5819 -0.7452
 7508TIP3    H144015   2.540   5.371   4.853 -0.8146  3.3265 -0.5021
 7508TIP3    H244016   2.505   5.443   4.724 -0.5409 -0.4712 -2.7877
 7509TIP3   OH244017   5.684   1.873   4.768  0.2069 -0.3055  0.5903
 7509TIP3    H144018   5.746   1.812   4.728  1.0173 -0.1110  1.5261
 7509TIP3    H244019   5.708   1.959   4.732  0.6248 -0.1974  1.1359
 7510TIP3   OH244020   0.565   0.355   2.020  0.1503  0.3571 -0.4701
 7510TIP3    H144021   0.572   0.300   2.099  0.1437  0.6554 -0.2605
 7510TIP3    H244022   0.613   0.306   1.953  0.5615  0.3214 -0.1572
 7511TIP3   OH244023   4.551   1.768   5.534 -0.0239  0.1157 -0.5894
 7511TIP3    H144024   4.518   1.698   5.591  0.8411 -0.4868 -0.8142
 7511TIP3    H244025   4.479   1.831   5.528 -0.8233 -0.7749 -0.4078
 7512TIP3   OH244026   3.007   3.674   5.168 -0.3373  0.0330  0.0037
 7512TIP3    H144027   3.053   3.752   5.197 -0.0248 -0.2314  0.2199
 7512TIP3    H244028   2.949   3.705   5.098 -1.2061  0.7139  0.9997
 7513TIP3   OH244029   2.023   3.984  11.124 -0.0969 -0.3483 -0.5384
 7513TIP3    H144030   2.100   3.931  11.105 -0.0269 -0.7556  0.8608
 7513TIP3    H244031   2.051   4.074  11.106  0.7138 -0.4925 -0.0398
 7514TIP3   OH244032   5.846   4.604  15.128  0.7198 -0.1915  0.4333
 7514TIP3    H144033   5.769   4.547  15.119  1.3994 -0.9399 -0.7803
 7514TIP3    H244034   5.842   4.663  15.053  1.3021 -0.1970  0.3932
 7515TIP3   OH244035   6.014   2.849  12.468  0.4385 -0.0855  0.2048
 7515TIP3    H144036   6.064   2.859  12.387 -0.4616  1.3692 -0.1976
 7515TIP3    H244037   5.932   2.807  12.441 -0.5121  1.8023  0.0951
 7516TIP3   OH244038   2.113   3.346  17.106  0.0132  0.1708 -0.5716
 7516TIP3    H144039   2.161   3.412  17.056 -0.2411  0.3829 -0.5358
 7516TIP3    H244040   2.116   3.378  17.197  0.3391 -0.1337 -0.4753
 7517TIP3   OH244041   1.778   4.468   4.477 -0.1642  0.2596 -0.2244
 7517TIP3    H144042   1.814   4.528   4.543  1.0193  0.1944 -0.7976
 7517TIP3    H244043   1.821   4.385   4.495 -0.0037  0.1877 -0.9318
 7518TIP3   OH244044   1.439   2.809   3.011 -0.1604  0.1203  0.1137
 7518TIP3    H144045   1.386   2.882   3.043  2.7698  1.9433  1.0833
 7518TIP3    H244046   1.397   2.782   2.929 -2.5849  1.3871  0.8924
 7519TIP3   OH244047   3.328   3.728  11.205  0.0518  0.4525 -0.2009
 7519TIP3    H144048   3.394   3.797  11.200  1.1203 -0.3666  1.9472
 7519TIP3    H244049   3.374   3.648  11.180 -0.3596  0.0027  0.4721
 7520TIP3   OH244050   5.954   3.998   2.171  0.3452  0.0060 -0.4205
 7520TIP3    H144051   5.905   3.970   2.093  1.7442  0.9400 -1.6789
 7520TIP3    H244052   5.889   4.001   2.241 -1.3671  1.0301 -2.0053
 7521TIP3   OH244053   4.007   6.563  16.112 -0.6167  1.0885 -0.1154
 7521TIP3    H144054   4.068   6.493  16.088  0.8589  1.1886  3.1598
 7521TIP3    H244055   3.921   6.520  16.110 -0.1210  0.0938 -1.5028
 7522TIP3   OH244056   3.224   1.252  16.563  0.3363  0.3846 -0.3893
 7522TIP3    H144057   3.276   1.311  16.508  2.2582 -2.4667 -1.7481
 7522TIP3    H244058   3.150   1.227  16.508  1.5937 -1.4942 -1.2354
 7523TIP3   OH244059   2.863   0.018   4.048  0.0561  0.3156 -0.9729
 7523TIP3    H144060   2.930  -0.020   4.106 -0.6700  0.9931  0.3254
 7523TIP3    H244061   2.912   0.075   3.989  0.8395 -0.5972 -1.2324
 7524TIP3   OH244062   6.454   5.782   6.705 -0.4273 -0.0516 -0.1140
 7524TIP3    H144063   6.401   5.703   6.711 -0.1641 -0.2210 -0.0258
 7524TIP3    H244064   6.412   5.844   6.765  2.9111 -2.1335  4.6486
 7525TIP3   OH244065   0.358   2.542   5.577 -0.7486 -0.3431 -0.0290
 7525TIP3    H144066   0.438   2.497   5.549 -0.9769 -1.6523  1.3536
 7525TIP3    H244067   0.389   2.617   5.627 -0.3556 -1.3328  1.2523
 7526TIP3   OH244068   5.120   3.975  14.225 -0.2526  0.7142  0.0869
 7526TIP3    H144069   5.208   3.949  14.253 -0.5133  0.0320  0.2885
 7526TIP3    H244070   5.101   3.919  14.150 -0.1199  1.5660 -0.5982
 7527TIP3   OH244071   5.305   5.985   2.406  0.6126 -0.4674 -0.2779
 7527TIP3    H144072   5.359   6.010   2.481  0.6418 -0.6652 -0.2311
 7527TIP3    H244073   5.216   6.005   2.432  0.4695 -1.9268  0.3971
 7528TIP3   OH244074   5.596   0.510   6.110  0.3503 -0.0714 -0.2010
 7528TIP3    H144075   5.613   0.597   6.145 -0.1192  0.1037 -0.4015
 7528TIP3    H244076   5.670   0.457   6.140  0.0029  0.0888  0.9645
 7529TIP3   OH244077   6.600   2.498  13.948 -0.0084  0.2824 -0.1045
 7529TIP3    H144078   6.629   2.418  13.905 -2.9154 -1.0994  0.3745
 7529TIP3    H244079   6.598   2.564  13.878  1.2499 -0.3568 -0.7531
 7530TIP3   OH244080   2.100   0.133  11.322 -0.6776  0.0712  0.0059
 7530TIP3    H144081   2.102   0.085  11.240 -0.3981 -0.5275  0.3592
 7530TIP3    H244082   2.079   0.223  11.297  3.4154  0.8104 -1.1622
 7531TIP3   OH244083   5.154   0.585  10.930  0.1317 -0.6191 -0.2956
 7531TIP3    H144084   5.248   0.575  10.938  0.1685  0.9147  1.6793
 7531TIP3    H244085   5.141   0.627  10.844  1.1442 -1.7313 -1.0065
 7532TIP3   OH244086   3.748   6.000   2.040  0.0924  0.0324 -0.3517
 7532TIP3    H144087   3.748   5.986   1.945 -1.6848 -0.8358 -0.2456
 7532TIP3    H244088   3.711   6.088   2.052  0.2298  0.1046 -0.4561
 7533TIP3   OH244089   6.585   3.048   3.110 -0.3505 -0.0280 -0.7087
 7533TIP3    H144090   6.652   3.115   3.125 -1.9392  0.7173  3.8963
 7533TIP3    H244091   6.513   3.096   3.067  0.1546  0.2426 -1.2605
 7534TIP3   OH244092   0.935   0.807   3.548 -0.2055 -0.0015 -0.2663
 7534TIP3    H144093   0.845   0.830   3.527  0.1008  2.1395  0.6383
 7534TIP3    H244094   0.936   0.796   3.643  0.4193 -0.3808 -0.3087
 7535TIP3   OH244095   3.792   2.419  13.143  0.1904 -0.0746 -0.0720
 7535TIP3    H144096   3.841   2.491  13.183 -0.0184 -1.1385  2.1237
 7535TIP3    H244097   3.706   2.456  13.124  0.9929  1.0764 -1.6754
 7536TIP3   OH244098   1.087   0.957   3.124 -0.5548 -0.3127 -0.4162
 7536TIP3    H144099   1.119   0.868   3.141  0.1511  0.1266  0.6456
 7536TIP3    H244100   1.000   0.945   3.087 -0.7433 -1.4310  0.3787
 7537TIP3   OH244101   4.395   4.801  12.769  0.3891 -0.1159  0.3482
 7537TIP3    H144102   4.448   4.729  12.802 -1.0678 -0.9096  0.9743
 7537TIP3    H244103   4.438   4.825  12.686  1.2629 -1.2571  0.4511
 7538TIP3   OH244104   0.909   3.726   4.716 -0.3874 -0.6769  0.4299
 7538TIP3    H144105   0.995   3.768   4.713  0.3738 -2.2234 -0.4028
 7538TIP3    H244106   0.888   3.721   4.809 -0.0693  0.6684  0.5871
 7539TIP3   OH244107   1.278   1.015   2.066  0.8981 -0.2175 -0.9013
 7539TIP3    H144108   1.221   1.052   2.133  1.4899  1.1714 -1.1464
 7539TIP3    H244109   1.221   0.961   2.011  0.2198 -0.4934  0.0779
 7540TIP3   OH244110   0.833   4.209  11.946 -0.6622 -0.4550 -0.2228
 7540TIP3    H144111   0.839   4.290  11.996  0.4348 -2.0233  2.2270
 7540TIP3    H244112   0.907   4.213  11.885  0.7197 -0.6114  1.4178
 7541TIP3   OH244113   3.224   1.839   3.082 -0.2350 -0.0356  0.1091
 7541TIP3    H144114   3.305   1.847   3.133  0.1521  1.0866 -0.6546
 7541TIP3    H244115   3.197   1.748   3.093  1.3872 -0.5349 -0.0267
 7542TIP3   OH244116   0.644   1.499  17.118 -0.3729  0.4252 -0.4289
 7542TIP3    H144117   0.694   1.430  17.076  1.4474  1.3456  0.1743
 7542TIP3    H244118   0.563   1.457  17.148 -0.1725 -0.9679 -1.8338
 7543TIP3   OH244119   0.385   3.654  13.216 -0.1664 -0.2233 -0.4177
 7543TIP3    H144120   0.443   3.731  13.221 -0.5702  0.0467  0.0457
 7543TIP3    H244121   0.396   3.623  13.126 -0.8675  1.0587 -0.9625
 7544TIP3   OH244122   0.438   4.659  16.016 -0.0735 -0.4418  0.5857
 7544TIP3    H144123   0.511   4.686  15.960 -1.1716 -0.0302 -0.6792
 7544TIP3    H244124   0.478   4.643  16.101  1.6353 -1.0690 -0.3016
 7545TIP3   OH244125   6.514   5.512  12.334  0.2623  0.2540 -0.3787
 7545TIP3    H144126   6.514   5.456  12.412 -0.4261  1.0893  0.2451
 7545TIP3    H244127   6.590   5.569  12.345  1.6675 -1.3685 -1.6242
 7546TIP3   OH244128   2.913   1.074   6.312 -0.2314 -0.0726  0.2770
 7546TIP3    H144129   2.832   1.079   6.261  0.4986  2.7386 -0.6988
 7546TIP3    H244130   2.888   1.026   6.391 -2.7731  0.4039 -0.1898
 7547TIP3   OH244131   5.637   3.419  12.590  0.1698 -0.1479  0.0810
 7547TIP3    H144132   5.542   3.409  12.600  0.0933  0.7456  0.2803
 7547TIP3    H244133   5.672   3.396  12.676 -0.0407  1.6568  0.6740
 7548TIP3   OH244134   0.435   1.387  14.136 -0.2567 -0.5166  0.4629
 7548TIP3    H144135   0.347   1.370  14.103 -0.4458 -0.6551  1.0160
 7548TIP3    H244136   0.456   1.309  14.188 -1.0703  0.8350  2.9071
 7549TIP3   OH244137   0.913   1.759   5.661 -0.0281 -0.4227 -0.2562
 7549TIP3    H144138   0.887   1.775   5.570  1.0074 -0.1311 -0.5059
 7549TIP3    H244139   0.865   1.680   5.686 -0.3401 -0.4869 -1.0490
 7550TIP3   OH244140   6.326   2.935  10.696  0.0148 -0.2434 -0.9667
 7550TIP3    H144141   6.371   2.859  10.734  3.0084  1.6519 -0.5816
 7550TIP3    H244142   6.354   2.936  10.605 -0.1699  0.3010 -1.0196
 7551TIP3   OH244143   2.793   0.872   2.481  0.4526  0.0680 -0.5967
 7551TIP3    H144144   2.872   0.918   2.511  0.8611 -0.0313 -1.5044
 7551TIP3    H244145   2.826   0.807   2.419 -0.3879  0.3382 -1.3280
 7552TIP3   OH244146   4.954   1.632  16.885  0.3849 -0.4456  0.3488
 7552TIP3    H144147   4.888   1.663  16.948  0.4002 -0.9804  0.6316
 7552TIP3    H244148   4.986   1.712  16.843  0.6400 -0.0434  1.2759
 7553TIP3   OH244149   0.886   6.145   4.805  0.8474 -0.4219 -0.6385
 7553TIP3    H144150   0.928   6.138   4.719  0.1625  0.9672 -1.1141
 7553TIP3    H244151   0.838   6.228   4.801  1.0083 -0.2195  1.1803
 7554TIP3   OH244152   2.980   3.038   2.216 -0.5302 -0.2232 -0.3507
 7554TIP3    H144153   2.962   3.047   2.123 -0.3547 -2.1451 -0.5800
 7554TIP3    H244154   3.076   3.047   2.223 -0.4838 -0.6978 -0.4176
 7555TIP3   OH244155   6.770   5.647  16.881 -0.4717 -0.3923 -0.2746
 7555TIP3    H144156   6.699   5.606  16.929 -0.7998  0.3929 -0.0770
 7555TIP3    H244157   6.729   5.678  16.800 -0.8356  1.9232  0.7626
 7556TIP3   OH244158   2.355   4.102  13.553 -0.0285  0.6911  0.9438
 7556TIP3    H144159   2.445   4.129  13.569 -0.0290  2.2244 -1.3961
 7556TIP3    H244160   2.362   4.018  13.508  0.1877  0.1922  1.9061
 7557TIP3   OH244161   4.960   4.244   2.045 -0.1774  0.3765  0.8873
 7557TIP3    H144162   5.036   4.297   2.023  0.2393 -0.7385 -0.3914
 7557TIP3    H244163   4.900   4.306   2.087  0.5552  1.7385 -0.0158
 7558TIP3   OH244164   3.013   0.772   0.138  0.6567 -0.0630  0.0034
 7558TIP3    H144165   2.979   0.841   0.081 -0.9366 -1.1926 -0.4533
 7558TIP3    H244166   2.949   0.764   0.208 -0.3878 -2.6032 -1.1563
 7559TIP3   OH244167   6.119   0.269   3.369 -0.6859 -0.2670 -0.1798
 7559TIP3    H144168   6.195   0.269   3.427  0.8935  1.2925 -2.1595
 7559TIP3    H244169   6.105   0.177   3.346  0.2471 -0.6116  0.6389
 7560TIP3   OH244170   2.822   0.407   2.755 -0.1841  0.3390 -0.6396
 7560TIP3    H144171   2.767   0.454   2.818 -0.6758 -1.2959  0.1673
 7560TIP3    H244172   2.799   0.445   2.670 -1.7752  0.4025 -0.1869
 7561TIP3   OH244173   3.411   0.619   2.705 -0.1541  0.0174  0.0164
 7561TIP3    H144174   3.382   0.702   2.667 -2.4204  0.5878  2.7605
 7561TIP3    H244175   3.468   0.644   2.778  1.1663 -0.9286 -0.6734
 7562TIP3   OH244176   6.308   4.334   5.109  0.3392  0.0942 -0.2049
 7562TIP3    H144177   6.379   4.274   5.089 -0.9668 -2.1729  1.7730
 7562TIP3    H244178   6.239   4.313   5.045 -1.0933 -2.3329  2.0299
 7563TIP3   OH244179   2.643   0.491   1.298 -0.3702 -0.5523 -0.2042
 7563TIP3    H144180   2.676   0.458   1.215 -0.5878 -0.6620 -0.2493
 7563TIP3    H244181   2.575   0.554   1.274  0.2244  0.1268 -0.1203
 7564TIP3   OH244182   6.553   5.537   4.326  0.1101  0.0043 -0.0030
 7564TIP3    H144183   6.610   5.600   4.369 -0.7636  0.8387 -0.0641
 7564TIP3    H244184   6.469   5.581   4.318 -0.2992 -0.8822 -0.7427
 7565TIP3   OH244185   4.497   1.911   1.839  0.2340 -0.2313 -0.6443
 7565TIP3    H144186   4.423   1.863   1.876  0.4257  1.4300  2.0380
 7565TIP3    H244187   4.458   1.965   1.770 -0.6309 -1.1984 -0.9272
 7566TIP3   OH244188   2.864   4.205  10.854 -0.3067 -0.2729 -0.1887
 7566TIP3    H144189   2.914   4.249  10.923  2.3130 -2.8842 -0.2876
 7566TIP3    H244190   2.791   4.164  10.899 -0.1144  0.2773  0.6300
 7567TIP3   OH244191   4.045   1.974   4.735  0.6730 -0.4240 -0.1634
 7567TIP3    H144192   4.030   1.886   4.699  0.0712 -0.2137 -0.4352
 7567TIP3    H244193   4.134   1.971   4.768  0.6932 -1.1121 -0.2625
 7568TIP3   OH244194   5.191   6.118   0.070  0.3287 -0.7059  1.2142
 7568TIP3    H144195   5.109   6.069   0.082  0.2351 -0.7529  0.3528
 7568TIP3    H244196   5.206   6.118  -0.024 -0.0862  1.6007  1.1245
 7569TIP3   OH244197   2.612   3.337   3.090  0.3545  0.9482 -0.1668
 7569TIP3    H144198   2.569   3.254   3.112  1.7958  0.5801  1.3793
 7569TIP3    H244199   2.594   3.394   3.165 -0.3533  1.9357 -1.0810
 7570TIP3   OH244200   6.810   2.165   2.047 -0.9721 -0.3584  0.2407
 7570TIP3    H144201   6.727   2.172   2.000 -0.0533 -0.4352 -1.3951
 7570TIP3    H244202   6.853   2.088   2.010  0.4529  0.4936  0.1110
 7571TIP3   OH244203   6.381   4.170   6.160 -0.0699 -0.0496  0.3320
 7571TIP3    H144204   6.313   4.133   6.105  0.0862  0.0865  0.0465
 7571TIP3    H244205   6.336   4.236   6.213 -0.3923 -0.8183  1.0105
 7572TIP3   OH244206   4.622   3.967  14.496  0.1723 -0.1505 -0.3577
 7572TIP3    H144207   4.706   3.925  14.480  0.4011  0.5449 -0.9790
 7572TIP3    H244208   4.620   4.042  14.437 -0.1358  0.8486  0.8775
 7573TIP3   OH244209   1.052   2.672   4.902  0.2083 -0.5299 -0.2920
 7573TIP3    H144210   1.050   2.672   4.807 -1.4824 -2.1793 -0.2872
 7573TIP3    H244211   0.999   2.747   4.928  0.5092 -0.1977 -0.6394
 7574TIP3   OH244212   0.848   0.585  16.739  0.0038 -0.0282  0.2483
 7574TIP3    H144213   0.928   0.605  16.787  0.0588 -0.3014  0.2738
 7574TIP3    H244214   0.846   0.489  16.736  0.8439 -0.0127 -1.7002
 7575TIP3   OH244215   0.415   1.804  13.994 -0.1754  0.0361 -0.1271
 7575TIP3    H144216   0.366   1.878  14.030  1.0580  1.3077 -0.9914
 7575TIP3    H244217   0.465   1.770  14.068  0.1640  0.8251  0.0131
 7576TIP3   OH244218   2.327   0.753   1.442 -0.5015  0.2705 -0.4545
 7576TIP3    H144219   2.272   0.686   1.481  0.5783 -1.2758 -1.5085
 7576TIP3    H244220   2.281   0.835   1.458 -2.1576 -0.7858  0.3020
 7577TIP3   OH244221   1.875   4.126  12.941 -0.1440 -0.0934  0.3891
 7577TIP3    H144222   1.883   4.030  12.937  0.4057 -0.1002  1.5012
 7577TIP3    H244223   1.780   4.141  12.943 -0.2247 -0.6820  1.4745
 7578TIP3   OH244224   2.574   0.706  16.435  0.4338 -0.1782  0.0059
 7578TIP3    H144225   2.610   0.645  16.371 -0.6047 -1.1902  0.3606
 7578TIP3    H244226   2.486   0.672  16.454 -0.6878  2.1245 -0.7483
 7579TIP3   OH244227   4.336   4.592   0.010 -0.1770 -0.1968  0.0865
 7579TIP3    H144228   4.384   4.659   0.058 -0.9732 -0.3376  1.0850
 7579TIP3    H244229   4.245   4.619   0.014 -0.3771 -0.7889 -0.3926
 7580TIP3   OH244230   0.613   4.980  10.777  0.0579  0.2961 -0.5961
 7580TIP3    H144231   0.546   4.999  10.843  0.7895  1.8619 -0.2812
 7580TIP3    H244232   0.571   4.916  10.719 -2.1557  2.1046 -1.0704
 7581TIP3   OH244233   5.118   5.995  15.986 -0.3592  0.0120 -0.0701
 7581TIP3    H144234   5.073   5.941  16.051 -0.3694  1.5457  1.2185
 7581TIP3    H244235   5.070   6.078  15.985  0.0282  0.2390 -1.5718
 7582TIP3   OH244236   2.633   4.448  16.209 -0.4567  0.1986  0.3925
 7582TIP3    H144237   2.645   4.503  16.286 -1.0395  0.1880  0.4872
 7582TIP3    H244238   2.555   4.481  16.167 -0.1832  0.1509 -0.1569
 7583TIP3   OH244239   2.019   1.674   4.196  0.3847  0.3232  0.4342
 7583TIP3    H144240   1.979   1.761   4.191 -1.0796 -0.3852 -0.4400
 7583TIP3    H244241   1.953   1.620   4.241  1.3974 -0.2707  1.2204
 7584TIP3   OH244242   5.320   5.160  15.635  0.0624 -0.0057  0.5436
 7584TIP3    H144243   5.357   5.106  15.705 -1.8838  0.8270  2.2882
 7584TIP3    H244244   5.230   5.129  15.626 -0.3736  1.3927 -0.0441
 7585TIP3   OH244245   1.526   4.877   0.092  0.1939  0.0957 -0.4918
 7585TIP3    H144246   1.542   4.959   0.139  0.1386 -0.2785  0.1847
 7585TIP3    H244247   1.518   4.811   0.161 -1.7410 -0.1409 -0.9099
 7586TIP3   OH244248   1.401   0.680  14.570  0.4091  0.0789  0.2473
 7586TIP3    H144249   1.474   0.663  14.630  1.3592 -2.1610 -1.4825
 7586TIP3    H244250   1.441   0.724  14.495 -0.2040 -0.1297 -0.2076
 7587TIP3   OH244251   1.191   4.988   2.077 -0.5646 -0.3927  0.5869
 7587TIP3    H144252   1.211   4.918   2.014 -0.3616 -1.0170  1.3357
 7587TIP3    H244253   1.171   5.064   2.022  0.9973 -0.5437 -0.2241
 7588TIP3   OH244254   4.552   3.895   4.124 -0.3634 -0.0956 -0.2150
 7588TIP3    H144255   4.646   3.905   4.112 -0.1959 -0.5379  0.7037
 7588TIP3    H244256   4.541   3.805   4.154 -1.3411 -0.9558 -2.9450
 7589TIP3   OH244257   1.437   0.269   2.123  0.5746  0.5996  0.3479
 7589TIP3    H144258   1.395   0.227   2.198  0.7755  0.0046  0.1347
 7589TIP3    H244259   1.365   0.312   2.076  0.2208 -0.2725  0.0784
 7590TIP3   OH244260   4.439   1.086  12.876  0.0533  0.2655 -0.0204
 7590TIP3    H144261   4.466   1.082  12.968  0.9794  1.4990 -0.2389
 7590TIP3    H244262   4.517   1.063  12.827 -1.2637 -3.7536 -0.4490
 7591TIP3   OH244263   4.008   2.466   5.841  0.9398  0.1460 -0.1881
 7591TIP3    H144264   4.012   2.548   5.792  0.6682  1.2486  1.5784
 7591TIP3    H244265   4.060   2.483   5.919 -0.7951 -0.6778  1.1697
 7592TIP3   OH244266   3.315   3.348  16.627 -0.1988 -0.1620 -0.0836
 7592TIP3    H144267   3.274   3.375  16.710 -0.6666 -0.8237 -0.0942
 7592TIP3    H244268   3.384   3.412  16.613 -0.3909  0.2094  0.6072
 7593TIP3   OH244269   1.591   4.525  14.149  0.4450 -0.1439 -0.2894
 7593TIP3    H144270   1.650   4.449  14.146 -0.5167 -0.9281  0.3074
 7593TIP3    H244271   1.646   4.598  14.174  1.0906 -0.9545  0.6843
 7594TIP3   OH244272   6.683   4.053   2.446  0.0604  0.2927  0.5612
 7594TIP3    H144273   6.648   3.968   2.474  0.5971  0.0575  0.5324
 7594TIP3    H244274   6.740   4.080   2.518  0.0331  0.5422  0.4898
 7595TIP3   OH244275   1.234   2.099  12.206 -0.5218 -0.1445 -0.5751
 7595TIP3    H144276   1.267   2.073  12.292  1.8199 -0.6835 -1.5791
 7595TIP3    H244277   1.237   2.195  12.206 -1.0100 -0.1328  0.1277
 7596TIP3   OH244278   5.331   0.301   1.397  0.0758  0.0729 -0.0194
 7596TIP3    H144279   5.425   0.286   1.385  0.4298  1.5527  0.7358
 7596TIP3    H244280   5.297   0.315   1.309  0.1199 -2.7140 -0.5353
 7597TIP3   OH244281   2.719   5.011  10.379  0.2182 -0.3509 -0.0516
 7597TIP3    H144282   2.756   5.096  10.401  1.7099 -0.4794 -1.9376
 7597TIP3    H244283   2.755   4.951  10.445 -0.1256  0.3000  0.7358
 7598TIP3   OH244284   0.427   2.868  15.146 -0.0114 -0.0009  0.1388
 7598TIP3    H144285   0.390   2.823  15.222  0.4508 -2.0228 -0.7772
 7598TIP3    H244286   0.356   2.867  15.082 -0.0818  0.8195  0.2045
 7599TIP3   OH244287   6.430   0.497   6.775  0.3279  0.3742 -0.3835
 7599TIP3    H144288   6.438   0.498   6.871 -0.1027  0.0373 -0.3450
 7599TIP3    H244289   6.448   0.587   6.749  1.8452  0.1795 -0.0953
 7600TIP3   OH244290   2.483   5.882   4.356 -0.2917  0.7680 -0.2366
 7600TIP3    H144291   2.438   5.805   4.391 -0.2305  0.4783 -0.7922
 7600TIP3    H244292   2.509   5.856   4.268 -0.0508  1.3392 -0.3318
 7601TIP3   OH244293   6.153   0.511   5.303  0.5370  1.0625 -0.4624
 7601TIP3    H144294   6.224   0.568   5.276  1.3888  0.4046  0.3756
 7601TIP3    H244295   6.143   0.449   5.230  0.6711  1.2833 -0.6693
 7602TIP3   OH244296   1.210   4.898   4.487 -0.3261 -0.2226 -0.8007
 7602TIP3    H144297   1.213   4.981   4.440 -0.3055  0.5307  0.4961
 7602TIP3    H244298   1.121   4.892   4.520 -0.7622 -1.4464 -2.1382
 7603TIP3   OH244299   6.775   0.585   2.317 -0.4345  0.0185 -0.0934
 7603TIP3    H144300   6.780   0.561   2.409 -0.0210 -1.3469 -0.4466
 7603TIP3    H244301   6.740   0.674   2.316 -1.3103 -0.2961  1.3351
 7604TIP3   OH244302   0.828   1.354   1.790 -0.3553 -0.1270  0.4774
 7604TIP3    H144303   0.923   1.343   1.782 -0.4113  0.2656 -0.9265
 7604TIP3    H244304   0.797   1.270   1.823  0.6377  0.2388  2.4173
 7605TIP3   OH244305   0.786   1.213  15.173  0.3867  0.1412  0.5540
 7605TIP3    H144306   0.749   1.302  15.176  0.4148  0.1864 -0.3736
 7605TIP3    H244307   0.736   1.169  15.105  0.6989 -0.4108  0.6847
 7606TIP3   OH244308   0.638   4.074  12.191  0.9560  0.2514  0.4359
 7606TIP3    H144309   0.582   4.051  12.117  1.0975  1.4330 -0.0442
 7606TIP3    H244310   0.727   4.061  12.159  1.0174  0.7386  0.4123
 7607TIP3   OH244311   6.817   2.337   5.479  1.0460 -0.4841  0.4303
 7607TIP3    H144312   6.819   2.428   5.449  0.7728 -0.6621 -0.1206
 7607TIP3    H244313   6.909   2.317   5.501  1.3698 -0.6073 -1.0229
 7608TIP3   OH244314   0.972   2.323   3.175 -0.1222 -0.3870 -0.1072
 7608TIP3    H144315   0.908   2.362   3.115 -0.4554 -1.4511 -0.4583
 7608TIP3    H244316   1.039   2.391   3.187 -0.8715  0.4091 -0.4268
 7609TIP3   OH244317   2.301   5.888  17.209  0.2427 -0.2729 -0.2213
 7609TIP3    H144318   2.386   5.869  17.249  0.1586 -0.1890  0.0014
 7609TIP3    H244319   2.302   5.983  17.195 -0.0895 -0.1697  0.4318
 7610TIP3   OH244320   3.772   4.601   0.581  0.1698  0.0760 -0.6198
 7610TIP3    H144321   3.817   4.685   0.574  1.7103 -0.8143 -1.7970
 7610TIP3    H244322   3.813   4.558   0.656  1.1165 -0.5997 -1.4954
 7611TIP3   OH244323   3.488   0.423   6.228  0.2201  0.0096 -0.1691
 7611TIP3    H144324   3.508   0.342   6.275 -0.7424  0.1711  0.5290
 7611TIP3    H244325   3.566   0.477   6.240 -0.2922  0.3403  1.9066
 7612TIP3   OH244326   5.059   2.173  11.947 -0.2240  0.0180 -0.1193
 7612TIP3    H144327   5.012   2.120  11.882 -1.4384 -0.8736  1.4543
 7612TIP3    H244328   5.110   2.110  11.997 -0.2253  0.5572  0.5678
 7613TIP3   OH244329   1.485   0.844   4.141  0.1204 -0.0853  0.4456
 7613TIP3    H144330   1.488   0.857   4.236  0.5940  0.1249  0.4019
 7613TIP3    H244331   1.529   0.761   4.127  2.6557  1.2402  0.1540
 7614TIP3   OH244332   2.290   4.664   3.353 -0.1026  0.4020 -0.0390
 7614TIP3    H144333   2.200   4.669   3.321 -1.1885 -0.3718  2.7684
 7614TIP3    H244334   2.291   4.719   3.431  2.1577  1.2328 -0.6066
 7615TIP3   OH244335   6.553   5.465   0.490  0.1889 -0.1471 -0.4503
 7615TIP3    H144336   6.629   5.462   0.432  0.1952 -0.3861 -0.4302
 7615TIP3    H244337   6.567   5.543   0.544  0.7567 -0.5613  0.0050
 7616TIP3   OH244338   1.711   0.804  15.020  0.0346  0.7573 -0.5272
 7616TIP3    H144339   1.739   0.855  15.096  1.2230 -0.1884 -0.3000
 7616TIP3    H244340   1.764   0.724  15.025 -1.2077 -0.1344 -1.3134
 7617TIP3   OH244341   2.972   2.371  11.743 -0.5577  1.0989  0.3268
 7617TIP3    H144342   2.998   2.440  11.682 -1.2234  1.0214 -0.0530
 7617TIP3    H244343   2.892   2.404  11.785 -0.7982  0.6267  0.2492
 7618TIP3   OH244344   2.558   3.397  11.372  0.0877  0.2136 -0.3264
 7618TIP3    H144345   2.627   3.331  11.361 -0.6824 -0.7341  0.5232
 7618TIP3    H244346   2.546   3.432  11.283  1.0924 -0.1732 -0.6338
 7619TIP3   OH244347   4.308   5.396   3.447  0.2946  0.3053 -0.6372
 7619TIP3    H144348   4.322   5.488   3.426  1.2861  0.8935  2.3246
 7619TIP3    H244349   4.218   5.392   3.479 -0.1399  0.0137 -1.8799
 7620TIP3   OH244350   2.966   0.319  12.156 -0.3116  0.3672  0.1202
 7620TIP3    H144351   3.011   0.304  12.239 -1.1829 -0.4311  0.4578
 7620TIP3    H244352   2.888   0.264  12.161 -0.3822  0.3310 -1.2237
 7621TIP3   OH244353   1.439   4.855   5.218 -0.1287  0.1569 -0.4991
 7621TIP3    H144354   1.373   4.880   5.154 -0.0723  0.2040 -0.5396
 7621TIP3    H244355   1.520   4.892   5.184 -0.3228  1.3475  0.2755
 7622TIP3   OH244356   0.963   4.682   2.618 -0.6421 -0.0158 -0.1986
 7622TIP3    H144357   0.985   4.747   2.552 -2.6672  0.4757 -0.4298
 7622TIP3    H244358   0.869   4.666   2.605 -0.7458 -0.9778  1.6080
 7623TIP3   OH244359   1.969   2.307   3.453 -0.3206  0.5369 -0.0151
 7623TIP3    H144360   1.963   2.340   3.543  0.9577  1.3622 -0.2145
 7623TIP3    H244361   1.941   2.380   3.398  1.1275  0.8272 -0.3904
 7624TIP3   OH244362   4.682   4.232   0.380 -0.3070  0.0023  0.2147
 7624TIP3    H144363   4.644   4.316   0.353 -0.4305  0.7134  2.4874
 7624TIP3    H244364   4.624   4.166   0.342  0.6833  0.8358 -2.9761
 7625TIP3   OH244365   6.667   3.643  15.308 -0.3620  0.5130  0.1657
 7625TIP3    H144366   6.634   3.659  15.396 -1.5773 -0.3816 -0.1302
 7625TIP3    H244367   6.681   3.731  15.272  0.8986  0.8997  1.5047
 7626TIP3   OH244368   5.948   6.389  17.167 -0.7750  0.3435 -0.1737
 7626TIP3    H144369   5.893   6.368  17.091  1.1099 -1.7225 -1.0037
 7626TIP3    H244370   6.014   6.449  17.133 -0.6961  0.4297  0.1322
 7627TIP3   OH244371   0.625   0.236   1.426 -0.1567  0.3007  0.2210
 7627TIP3    H144372   0.582   0.197   1.502  0.2050 -0.4125  0.0657
 7627TIP3    H244373   0.595   0.327   1.425 -0.7303  0.1200  0.7937
 7628TIP3   OH244374   3.462   6.000   0.099 -0.4498 -0.0105  0.2908
 7628TIP3    H144375   3.464   6.049   0.181  1.3473  0.2176  0.1297
 7628TIP3    H244376   3.444   6.067   0.032  1.6529  0.4027  0.1103
 7629TIP3   OH244377   2.087   1.657  13.210  0.2441 -0.3381 -0.1198
 7629TIP3    H144378   1.992   1.649  13.199  0.3655 -0.6729 -0.9598
 7629TIP3    H244379   2.106   1.749  13.192  0.2637 -0.5893 -1.3753
 7630TIP3   OH244380   3.400   3.866   2.077 -0.3282 -0.1166  0.5174
 7630TIP3    H144381   3.378   3.898   1.989  1.7812 -3.5603 -1.3632
 7630TIP3    H244382   3.318   3.831   2.111 -0.6716 -0.8775 -1.0441
 7631TIP3   OH244383   3.927   1.278  10.264  0.3911 -0.5477  0.5804
 7631TIP3    H144384   4.021   1.291  10.257  0.2790 -0.6179 -1.2797
 7631TIP3    H244385   3.901   1.328  10.342  1.8117  0.2476  0.5471
 7632TIP3   OH244386   5.926   3.056   0.413  0.2966  0.0428 -0.1777
 7632TIP3    H144387   5.967   3.131   0.371  2.3305 -0.0850  1.4775
 7632TIP3    H244388   5.874   3.093   0.484  0.8658 -0.0864  0.3038
 7633TIP3   OH244389   4.474   2.904  16.238  0.1771 -0.8403  0.6747
 7633TIP3    H144390   4.454   2.913  16.145  0.2980  0.5385  0.7775
 7633TIP3    H244391   4.391   2.880  16.279  0.1673 -1.6553  0.1836
 7634TIP3   OH244392   1.415   6.796   1.393  0.7867  0.1510 -0.1271
 7634TIP3    H144393   1.451   6.713   1.361 -1.1429 -0.0248 -1.9082
 7634TIP3    H244394   1.351   6.771   1.459  0.9914  0.2925  0.1293
 7635TIP3   OH244395   1.176   0.456  11.517 -0.0588  0.1528  0.4800
 7635TIP3    H144396   1.159   0.438  11.425 -0.6587  1.0327  0.4145
 7635TIP3    H244397   1.271   0.443  11.527 -0.2625 -1.6809  0.1534
 7636TIP3   OH244398   5.708   5.193  16.982  0.0871 -0.5426  0.1125
 7636TIP3    H144399   5.655   5.117  17.007  1.4985 -0.8440  2.3161
 7636TIP3    H244400   5.738   5.173  16.893 -0.7550 -1.8832  0.1216
 7637TIP3   OH244401   3.863   0.062  12.302  0.4199 -0.2156 -0.0098
 7637TIP3    H144402   3.827   0.105  12.379  1.3588  1.5792 -0.5490
 7637TIP3    H244403   3.937   0.010  12.334  0.3937 -0.0064  0.3830
 7638TIP3   OH244404   4.052   2.129   0.679 -0.1936  0.0517 -0.2096
 7638TIP3    H144405   4.077   2.177   0.600 -0.5735  1.2147  0.3549
 7638TIP3    H244406   4.095   2.045   0.672  0.6149  0.5478 -1.1631
 7639TIP3   OH244407   0.599   5.811   0.250  0.1300 -0.0089  0.3995
 7639TIP3    H144408   0.649   5.799   0.169 -1.3630 -0.0540 -0.5280
 7639TIP3    H244409   0.651   5.873   0.301 -0.2950  2.2595 -1.8182
 7640TIP3   OH244410   3.014   4.713  14.465  0.0522  0.8396 -0.5618
 7640TIP3    H144411   3.025   4.666  14.382  1.9147  0.5181 -0.1666
 7640TIP3    H244412   2.999   4.644  14.530  2.6668  0.7198 -0.0028
 7641TIP3   OH244413   2.179   0.989  11.107 -0.6813 -0.1404 -0.0694
 7641TIP3    H144414   2.110   0.961  11.047 -0.7661  1.7611 -0.8849
 7641TIP3    H244415   2.254   0.933  11.083 -1.0890 -0.2630 -1.1075
 7642TIP3   OH244416   1.473   2.939   5.672  0.1199  0.3371  0.1522
 7642TIP3    H144417   1.492   2.846   5.672 -0.4636  0.2151  0.7288
 7642TIP3    H244418   1.559   2.981   5.677  0.3512 -0.1768  0.5311
 7643TIP3   OH244419   1.817   0.968  13.611 -0.1494 -0.4936  0.6016
 7643TIP3    H144420   1.808   0.873  13.608  1.5872 -0.6678  0.6889
 7643TIP3    H244421   1.800   0.996  13.521 -2.6763 -0.6715  0.9820
 7644TIP3   OH244422   4.706   1.610   4.523  0.3842  0.5543 -0.8452
 7644TIP3    H144423   4.681   1.701   4.536 -1.8504 -0.4086  2.2642
 7644TIP3    H244424   4.625   1.566   4.498  1.3921 -0.6374 -2.0823
 7645TIP3   OH244425   3.215   5.533   0.117  0.4629  0.1787 -0.2525
 7645TIP3    H144426   3.259   5.473   0.179  1.4113 -0.6318 -1.6887
 7645TIP3    H244427   3.267   5.613   0.120  1.6116 -0.5135 -1.3771
 7646TIP3   OH244428   1.019   6.691   1.403 -0.1925 -0.2950 -0.4384
 7646TIP3    H144429   0.984   6.771   1.441 -1.9823 -1.0395 -0.4863
 7646TIP3    H244430   1.068   6.650   1.474 -2.5848 -1.1169  0.7872
 7647TIP3   OH244431   4.288   3.592   4.946  0.0582  0.0432 -0.4115
 7647TIP3    H144432   4.214   3.546   4.907  0.3192 -0.5451 -0.2145
 7647TIP3    H244433   4.248   3.645   5.016 -0.1758 -0.2919 -0.2875
 7648TIP3   OH244434   4.843   0.318   1.753  0.2185  0.0435  0.7117
 7648TIP3    H144435   4.921   0.367   1.779 -0.4727  0.5483  1.9145
 7648TIP3    H244436   4.770   0.377   1.774 -0.3684  0.9082 -3.4384
 7649TIP3   OH244437   4.394   0.672  13.237 -0.2343 -0.4902 -0.0232
 7649TIP3    H144438   4.310   0.718  13.245  0.3024  0.7915 -1.5282
 7649TIP3    H244439   4.429   0.700  13.152  0.4597 -3.1149 -0.6538
 7650TIP3   OH244440   0.166   5.350   5.233  0.7042  0.1168 -0.3340
 7650TIP3    H144441   0.238   5.318   5.286  2.6668 -0.0478 -2.9882
 7650TIP3    H244442   0.104   5.276   5.229  1.6363 -0.6747 -0.2152
 7651TIP3   OH244443   3.019   1.861  14.107 -0.2219 -0.3637  0.6663
 7651TIP3    H144444   3.029   1.817  14.192  1.1486  0.1401  0.7667
 7651TIP3    H244445   3.046   1.795  14.043  3.5115  0.8302  0.9081
 7652TIP3   OH244446   4.472   2.353   3.671  0.4546  0.6168 -0.4012
 7652TIP3    H144447   4.381   2.352   3.643 -0.3094 -0.5098  1.9780
 7652TIP3    H244448   4.522   2.360   3.590 -1.7549  2.3944 -1.6594
 7653TIP3   OH244449   2.351   4.264  14.010 -0.2178  0.4393  0.0777
 7653TIP3    H144450   2.277   4.259  13.950 -0.4493 -0.2841  0.4191
 7653TIP3    H244451   2.362   4.175  14.043  0.2047  0.7339  0.7505
 7654TIP3   OH244452   0.487   3.910   0.630  0.3487 -0.1584  0.6051
 7654TIP3    H144453   0.447   3.907   0.717 -1.5994 -0.3884 -0.2765
 7654TIP3    H244454   0.437   3.847   0.578 -0.4003  2.0134 -1.4213
 7655TIP3   OH244455   0.310   4.571   3.827 -0.6029  0.4128  0.2211
 7655TIP3    H144456   0.239   4.636   3.817 -0.4723  0.2534 -2.0493
 7655TIP3    H244457   0.388   4.616   3.795 -0.1786 -0.2985  0.2544
 7656TIP3   OH244458   6.239   6.653  12.375  0.6642 -0.7034 -0.0233
 7656TIP3    H144459   6.260   6.564  12.402  1.4628 -0.5783 -0.2269
 7656TIP3    H244460   6.306   6.708  12.416 -0.4168 -0.0673  0.9451
 7657TIP3   OH244461   0.962   2.907  14.974 -0.0470 -0.0605 -0.2771
 7657TIP3    H144462   0.985   2.988  15.018  0.1939  0.5784 -1.5499
 7657TIP3    H244463   0.879   2.880  15.015  0.3666  0.2992  0.8104
 7658TIP3   OH244464   1.723   1.407   4.090  0.0854  0.2566 -0.5488
 7658TIP3    H144465   1.671   1.328   4.075  0.6299  0.2704 -2.6055
 7658TIP3    H244466   1.684   1.473   4.033  1.4815  0.6557 -1.0444
 7659TIP3   OH244467   1.357   2.385   1.043 -0.4809 -0.4506  0.5724
 7659TIP3    H144468   1.408   2.430   1.110 -0.8973  1.5421 -0.4097
 7659TIP3    H244469   1.332   2.302   1.083 -0.5814  0.6312  2.8088
 7660TIP3   OH244470   1.028   0.670  12.193 -0.1710 -0.1010  0.5018
 7660TIP3    H144471   1.047   0.759  12.222  0.0516  0.3070 -0.8212
 7660TIP3    H244472   1.001   0.623  12.272  0.8380  0.8340  1.4131
 7661TIP3   OH244473   4.553   0.162  12.708 -0.7670 -0.0925  0.3557
 7661TIP3    H144474   4.621   0.098  12.688  0.5753  1.0763  1.1337
 7661TIP3    H244475   4.575   0.239  12.656 -1.1794  0.4872  1.0234
 7662TIP3   OH244476   0.271   5.335   1.141 -0.2085  0.4991  0.4127
 7662TIP3    H144477   0.246   5.272   1.208 -1.4892  1.4134  0.8219
 7662TIP3    H244478   0.209   5.407   1.151  0.4828  1.2982 -0.8164
 7663TIP3   OH244479   4.683   1.142  16.949 -0.2433  1.0983 -0.3649
 7663TIP3    H144480   4.699   1.076  16.880  2.1427  0.4229  0.7826
 7663TIP3    H244481   4.702   1.226  16.907  2.8205  0.5726 -0.1273
 7664TIP3   OH244482   4.299   2.719   1.980  0.6902  0.3307 -0.0265
 7664TIP3    H144483   4.309   2.775   2.058  1.8705 -0.3099  0.2891
 7664TIP3    H244484   4.347   2.764   1.911 -1.4409  1.5584 -0.7447
 7665TIP3   OH244485   0.612   3.975  16.868 -0.1493  0.1610  0.5587
 7665TIP3    H144486   0.702   3.947  16.856 -0.8479 -2.0799  0.4088
 7665TIP3    H244487   0.564   3.938  16.794 -1.3406  0.6744  1.0490
 7666TIP3   OH244488   0.952   6.805  10.890  0.3269  0.3559  0.2528
 7666TIP3    H144489   0.966   6.799  10.796 -0.2248  2.1087  0.0381
 7666TIP3    H244490   1.006   6.879  10.918  0.2921  0.0133  1.2801
 7667TIP3   OH244491   1.818   4.048   0.227  0.1703 -0.5478  0.4629
 7667TIP3    H144492   1.810   4.142   0.247 -3.7280 -0.4300 -1.1658
 7667TIP3    H244493   1.902   4.040   0.184  0.4119  2.3024  0.2772
 7668TIP3   OH244494   4.160   1.380  11.527  0.0023 -0.5265 -0.5844
 7668TIP3    H144495   4.101   1.442  11.570  0.0818 -0.9491  0.1231
 7668TIP3    H244496   4.164   1.305  11.586  1.2541 -0.4959 -0.6208
 7669TIP3   OH244497   3.077   3.086   4.613 -0.2166  0.3873  0.3456
 7669TIP3    H144498   3.080   3.020   4.681  4.3277  1.3934  1.2260
 7669TIP3    H244499   3.156   3.072   4.561 -2.3789  1.1330 -3.3835
 7670TIP3   OH244500   6.699   1.023  13.976 -0.3994 -0.2046 -0.1606
 7670TIP3    H144501   6.611   1.043  13.945 -0.1205  0.2054 -0.7061
 7670TIP3    H244502   6.727   0.948  13.924 -1.3207 -1.8340  1.6595
 7671TIP3   OH244503   4.429   3.312  13.047  0.3511 -0.5487  0.1031
 7671TIP3    H144504   4.492   3.262  12.995 -0.9047 -1.3802 -0.6586
 7671TIP3    H244505   4.453   3.292  13.138  2.3277  0.6322 -0.1398
 7672TIP3   OH244506   3.564   4.454  15.735  0.3285 -0.2608  0.0015
 7672TIP3    H144507   3.480   4.495  15.715  2.0071  2.3270 -2.1485
 7672TIP3    H244508   3.581   4.396  15.661  1.4298  0.9264 -0.7050
 7673TIP3   OH244509   3.622   0.674  16.491 -0.7122 -0.2478 -0.0590
 7673TIP3    H144510   3.543   0.621  16.504 -0.5963 -1.0669 -2.3547
 7673TIP3    H244511   3.690   0.610  16.469  0.5319  0.4744  1.6271
 7674TIP3   OH244512   5.034   4.843   1.038  0.5341  0.5388  0.1379
 7674TIP3    H144513   5.082   4.922   1.012 -0.0926  1.1500  0.7917
 7674TIP3    H244514   4.952   4.848   0.990  0.3196  0.5093  0.4961
 7675TIP3   OH244515   1.930   2.085   0.269  0.1926 -0.1243  0.2389
 7675TIP3    H144516   2.008   2.107   0.218 -0.4703 -0.3703 -0.8934
 7675TIP3    H244517   1.883   2.168   0.277 -0.2607 -0.3018 -0.5203
 7676TIP3   OH244518   0.278   6.566  12.993  0.8203 -0.8207 -0.1068
 7676TIP3    H144519   0.240   6.480  13.010  1.3766 -0.9786  0.3843
 7676TIP3    H244520   0.305   6.563  12.901  0.7129 -1.1261 -0.1290
 7677TIP3   OH244521   1.054   4.279   1.771  0.3155  1.0008  0.3481
 7677TIP3    H144522   1.130   4.221   1.773 -0.6301 -0.2317  1.9496
 7677TIP3    H244523   1.024   4.278   1.680  1.4604  0.5169 -0.0274
 7678TIP3   OH244524   1.253   5.967   4.949 -0.2760  0.1699 -0.0605
 7678TIP3    H144525   1.206   5.898   4.902 -0.8681  0.7947 -0.3981
 7678TIP3    H244526   1.326   5.922   4.992  0.0505 -0.4677 -1.2656
 7679TIP3   OH244527   3.293   2.294  16.512  0.2808  0.3700  0.3807
 7679TIP3    H144528   3.264   2.214  16.469 -0.9027 -0.2108  2.2299
 7679TIP3    H244529   3.343   2.341  16.444  1.2922 -2.0639 -0.6115
 7680TIP3   OH244530   6.551   2.175   4.770 -0.0965 -0.0409  0.3602
 7680TIP3    H144531   6.493   2.251   4.762  0.7958  0.4101 -2.3978
 7680TIP3    H244532   6.502   2.104   4.729 -0.4759 -0.7052  1.9516
 7681TIP3   OH244533   5.512   3.694   4.108  0.0606  0.4113 -0.1286
 7681TIP3    H144534   5.516   3.608   4.065  0.9142  1.2895 -1.8196
 7681TIP3    H244535   5.419   3.716   4.108  0.2870  1.7480 -4.2679
 7682TIP3   OH244536   2.199   5.907   4.117 -0.0425  0.3007 -0.2525
 7682TIP3    H144537   2.134   5.899   4.048  0.2853 -1.6136 -0.3792
 7682TIP3    H244538   2.167   5.850   4.187  0.1079  1.4837  0.7845
 7683TIP3   OH244539   2.097   3.980   1.785  0.0565 -0.6128  0.3287
 7683TIP3    H144540   2.055   4.064   1.803 -1.1051 -1.1553  0.1935
 7683TIP3    H244541   2.143   3.993   1.702 -1.0601 -0.4440 -0.2721
 7684TIP3   OH244542   1.295   6.754   5.074 -0.4372  0.4499  0.2919
 7684TIP3    H144543   1.202   6.758   5.051 -0.2742  1.3751 -0.2150
 7684TIP3    H244544   1.311   6.661   5.093 -1.2855  0.1627 -0.3587
 7685TIP3   OH244545   3.356   3.934  11.483 -0.2745 -0.1645  0.0630
 7685TIP3    H144546   3.305   3.853  11.482  1.6544 -1.4399  1.8811
 7685TIP3    H244547   3.387   3.944  11.393 -3.9436  0.8266 -1.1799
 7686TIP3   OH244548   0.817   6.415   4.349 -0.1842 -0.2938  0.0909
 7686TIP3    H144549   0.807   6.346   4.414  0.3235 -1.1003 -0.6635
 7686TIP3    H244550   0.752   6.393   4.281  0.1221 -0.1493 -0.2493
 7687TIP3   OH244551   3.519   1.975  11.650  0.0695 -0.4738  0.5866
 7687TIP3    H144552   3.471   2.050  11.616 -0.8694 -1.5204 -0.4855
 7687TIP3    H244553   3.600   2.011  11.685 -0.4614  1.0513  0.2693
 7688TIP3   OH244554   1.104   1.765  16.197 -0.3751 -0.1404 -0.0358
 7688TIP3    H144555   1.111   1.807  16.111 -1.2143  0.1430  0.0258
 7688TIP3    H244556   1.012   1.774  16.220 -0.3342 -1.0111  0.4962
 7689TIP3   OH244557   2.318   4.238   4.733  0.2207 -0.0943  0.1812
 7689TIP3    H144558   2.345   4.203   4.818  0.5914  0.8290  0.4525
 7689TIP3    H244559   2.222   4.231   4.733  0.0713  1.5394  1.4313
 7690TIP3   OH244560   0.914   3.002   1.519 -0.0618  0.0054  0.1799
 7690TIP3    H144561   0.826   2.979   1.490 -0.5183  0.4687  1.1696
 7690TIP3    H244562   0.972   2.963   1.454 -0.9838 -0.5790 -0.2963
 7691TIP3   OH244563   2.167   4.188  12.452 -0.3446 -0.7658 -0.6562
 7691TIP3    H144564   2.111   4.227  12.518  0.1560 -2.1534  0.6323
 7691TIP3    H244565   2.115   4.188  12.372 -2.0871 -1.7993  0.4551
 7692TIP3   OH244566   6.113   5.447  12.666 -0.3533  0.3297 -0.6231
 7692TIP3    H144567   6.169   5.493  12.729 -0.0676  0.2050 -0.7826
 7692TIP3    H244568   6.168   5.376  12.634  0.1029  1.4257 -2.3056
 7693TIP3   OH244569   1.364   6.663   5.902  0.6391 -0.5778 -0.5198
 7693TIP3    H144570   1.305   6.594   5.931  0.8491 -0.2828  0.6646
 7693TIP3    H244571   1.326   6.695   5.820 -0.7792 -0.4804  0.1625
 7694TIP3   OH244572   0.523   3.822  16.640  0.9371  0.1423  0.0355
 7694TIP3    H144573   0.487   3.833  16.552 -1.6024  1.5915  1.2097
 7694TIP3    H244574   0.523   3.727  16.654  1.6831 -0.1231 -1.6332
 7695TIP3   OH244575   0.531   4.286  12.975 -0.3478 -0.4542  0.0985
 7695TIP3    H144576   0.525   4.268  13.069 -0.0862 -0.8644  0.0359
 7695TIP3    H244577   0.607   4.344  12.967 -0.3146 -0.4925  0.1326
 7696TIP3   OH244578   4.608   6.268   6.058  0.2454 -0.3628 -0.2738
 7696TIP3    H144579   4.600   6.203   6.127 -1.6199  0.4532  0.3050
 7696TIP3    H244580   4.573   6.349   6.096  2.3766  0.9730 -1.0148
 7697TIP3   OH244581   3.527   1.303   2.259  0.0119  0.1125 -0.1422
 7697TIP3    H144582   3.442   1.295   2.303  0.0362 -0.4256 -0.1886
 7697TIP3    H244583   3.537   1.396   2.242  0.2195  0.4099  1.4592
 7698TIP3   OH244584   2.711   4.095   2.129  0.5668  0.4191  0.1841
 7698TIP3    H144585   2.622   4.061   2.135  0.7921 -0.4373 -1.2546
 7698TIP3    H244586   2.713   4.167   2.192 -1.3926  1.0007 -0.3817
 7699TIP3   OH244587   4.764   2.047   3.158  0.1263  0.4336 -0.4443
 7699TIP3    H144588   4.809   1.974   3.115 -0.0730 -0.7960  1.3759
 7699TIP3    H244589   4.831   2.089   3.211 -0.3750 -0.1351  0.6624
 7700TIP3   OH244590   2.907   3.686   2.748 -0.3967  0.2127 -0.1372
 7700TIP3    H144591   2.918   3.591   2.759 -0.8750 -0.0097 -1.4958
 7700TIP3    H244592   2.995   3.718   2.730 -0.4018 -0.1474 -0.8393
 7701TIP3   OH244593   2.427   4.528   1.384  0.2293  0.2692 -0.0596
 7701TIP3    H144594   2.411   4.583   1.461 -0.6360  0.3277 -0.2784
 7701TIP3    H244595   2.345   4.481   1.370  0.5744 -0.1791 -0.5980
 7702TIP3   OH244596   2.694   1.584   4.480 -0.1513 -0.1482 -0.1264
 7702TIP3    H144597   2.699   1.659   4.421 -0.3457 -0.2533 -0.2768
 7702TIP3    H244598   2.656   1.619   4.561 -3.8870 -0.8683 -1.5033
 7703TIP3   OH244599   6.125   0.289   0.801  0.2519  0.4372  0.1777
 7703TIP3    H144600   6.205   0.262   0.847  0.3099  2.0241  1.0549
 7703TIP3    H244601   6.056   0.282   0.867  0.0723  1.2719  0.0836
 7704TIP3   OH244602   0.333   3.002  11.899 -0.8194  0.7911  0.2410
 7704TIP3    H144603   0.272   2.944  11.854  0.6390  0.8969 -1.9656
 7704TIP3    H244604   0.401   2.944  11.934 -2.0125  0.6995  2.4471
 7705TIP3   OH244605   3.883   6.081   3.364  0.1149  0.3635 -0.5686
 7705TIP3    H144606   3.816   6.015   3.344  0.5049 -0.3219  0.3622
 7705TIP3    H244607   3.834   6.158   3.391 -0.3022 -0.5004  1.2223
 7706TIP3   OH244608   0.195   4.493  13.288  0.1635  0.3155  0.2122
 7706TIP3    H144609   0.246   4.532  13.359  0.7899  0.7947 -0.4875
 7706TIP3    H244610   0.141   4.426  13.330 -0.1667  1.2494  1.2758
 7707TIP3   OH244611   1.894   0.255   2.277 -0.5195  0.4110  0.2083
 7707TIP3    H144612   1.806   0.240   2.313  0.7122  1.9007  4.1464
 7707TIP3    H244613   1.886   0.338   2.229 -1.4912 -0.0120 -0.3872
 7708TIP3   OH244614   5.281   5.221  12.034 -0.2024  0.2379 -0.0923
 7708TIP3    H144615   5.275   5.206  11.940  1.1087  1.4254 -0.3845
 7708TIP3    H244616   5.191   5.216  12.065 -0.7828  0.9989 -1.6089
 7709TIP3   OH244617   2.961   5.823  10.516  0.1847  0.3759  0.0866
 7709TIP3    H144618   2.865   5.827  10.513  0.2508  2.2917 -0.2498
 7709TIP3    H244619   2.986   5.783  10.434 -0.2476  2.4418 -1.0965
 7710TIP3   OH244620   0.687   0.330  16.736 -0.0111 -0.6278  0.3476
 7710TIP3    H144621   0.633   0.251  16.735 -0.4027 -0.3726  1.4488
 7710TIP3    H244622   0.750   0.316  16.665 -0.4754 -1.6502  0.1252
 7711TIP3   OH244623   6.036   3.846  12.627 -0.1583  0.3973 -0.4328
 7711TIP3    H144624   6.049   3.922  12.684  1.1905 -0.9836  1.1698
 7711TIP3    H244625   6.125   3.820  12.601 -0.3609 -2.4019  1.4777
 7712TIP3   OH244626   2.615   4.972  12.880  0.0246 -0.0189  0.6605
 7712TIP3    H144627   2.653   4.887  12.855 -0.2404 -0.0467  0.3683
 7712TIP3    H244628   2.563   4.952  12.958  1.4576  0.2042  1.6948
 7713TIP3   OH244629   3.505   3.372   4.770  0.0829  0.3724 -0.4364
 7713TIP3    H144630   3.499   3.466   4.758 -0.3377  0.4995  0.7177
 7713TIP3    H244631   3.454   3.354   4.850  0.4689 -0.7764 -0.4325
 7714TIP3   OH244632   0.596   2.348  14.410 -0.0957  0.0728  0.3788
 7714TIP3    H144633   0.677   2.306  14.380 -0.1635  0.7516 -0.8228
 7714TIP3    H244634   0.585   2.423  14.350 -2.0521 -0.5012 -0.0126
 7715TIP3   OH244635   3.672   5.582   4.573 -0.3055 -0.2574  0.2907
 7715TIP3    H144636   3.589   5.615   4.539 -0.9989 -0.3961  1.8284
 7715TIP3    H244637   3.671   5.606   4.666  1.9536  0.9011  0.0384
 7716TIP3   OH244638   0.483   6.609   1.186 -0.5492 -0.3881  0.0132
 7716TIP3    H144639   0.568   6.607   1.142 -0.4558  1.7266  0.0478
 7716TIP3    H244640   0.430   6.545   1.139  0.5763 -0.5856 -1.0196
 7717TIP3   OH244641   0.899   2.038  14.154 -0.0660 -0.1898  0.1198
 7717TIP3    H144642   0.808   2.008  14.151  0.0536 -0.4742 -0.6664
 7717TIP3    H244643   0.930   2.032  14.064  0.0630  1.9728 -0.0230
 7718TIP3   OH244644   3.885   1.680  14.466  0.1965 -0.6866 -0.8206
 7718TIP3    H144645   3.836   1.722  14.395  1.8258  1.8120 -0.5381
 7718TIP3    H244646   3.975   1.709  14.452  1.1143 -2.9335  0.3078
 7719TIP3   OH244647   5.592   5.211  11.923 -0.1152 -0.1407 -0.2499
 7719TIP3    H144648   5.629   5.245  11.842  0.0120 -0.8421 -0.4886
 7719TIP3    H244649   5.503   5.183  11.900  0.5295 -1.9735 -0.5729
 7720TIP3   OH244650   5.692   4.787  16.800  0.3881  0.6874  0.2583
 7720TIP3    H144651   5.741   4.708  16.776 -0.1919  0.4533 -0.1720
 7720TIP3    H244652   5.642   4.809  16.721 -1.1112  0.2463  1.0893
 7721TIP3   OH244653   6.483   4.970  15.219  0.0559 -0.4026 -0.7104
 7721TIP3    H144654   6.392   4.998  15.206  0.3350  2.0887  1.9920
 7721TIP3    H244655   6.532   5.021  15.155 -0.2379 -0.1396 -0.7325
 7722TIP3   OH244656   0.610   4.370  14.165 -0.3858  0.0028  0.5031
 7722TIP3    H144657   0.634   4.449  14.213 -2.0550 -0.1488  1.6171
 7722TIP3    H244658   0.694   4.333  14.136  0.5865  0.5917  2.5058
 7723TIP3   OH244659   0.285   4.149   5.989  0.7410 -0.1092 -0.4342
 7723TIP3    H144660   0.198   4.183   6.006  0.8536 -0.7735  1.6251
 7723TIP3    H244661   0.345   4.218   6.017  0.9122 -0.8261  1.0218
 7724TIP3   OH244662   0.121   2.613   2.736  0.3447  0.6758 -0.0857
 7724TIP3    H144663   0.140   2.519   2.731 -0.6856  0.4992 -0.7731
 7724TIP3    H244664   0.026   2.618   2.742  0.3278  1.7168 -1.1815
 7725TIP3   OH244665   3.629   3.135   4.457  0.0757  0.1405  0.2704
 7725TIP3    H144666   3.534   3.130   4.442  0.1475 -1.7678  0.4248
 7725TIP3    H244667   3.668   3.087   4.384  0.8847 -0.0682  0.8352
 7726TIP3   OH244668   1.813   1.029   5.864  0.4752 -0.3809 -0.6461
 7726TIP3    H144669   1.746   1.054   5.800  0.3774 -0.2250 -0.4857
 7726TIP3    H244670   1.763   0.990   5.936  0.6284 -1.0298 -0.8897
 7727TIP3   OH244671   4.772   3.556   4.781 -0.3163 -0.1264 -0.2318
 7727TIP3    H144672   4.770   3.472   4.735  0.3748  0.7503 -1.9312
 7727TIP3    H244673   4.787   3.533   4.873 -1.1517 -1.8977 -0.5215
 7728TIP3   OH244674   6.118   5.239   1.263  0.1401 -0.4435 -0.3229
 7728TIP3    H144675   6.114   5.226   1.169 -0.0645 -0.8580 -0.2578
 7728TIP3    H244676   6.039   5.289   1.284  1.1650  1.3610 -0.6382
 7729TIP3   OH244677   2.316   2.570  16.371  0.0913 -0.3454  0.5289
 7729TIP3    H144678   2.246   2.608  16.318  0.8342 -0.0144 -0.2177
 7729TIP3    H244679   2.298   2.602  16.460  0.7866  1.9254 -0.0929
 7730TIP3   OH244680   6.016   5.357   0.139  0.6989 -0.4127 -0.6727
 7730TIP3    H144681   5.935   5.310   0.159  1.1875 -1.9976 -2.3072
 7730TIP3    H244682   6.007   5.381   0.047  0.5527  2.5627  0.0713
 7731TIP3   OH244683   6.693   5.818   0.207  0.0643 -0.0541  0.4292
 7731TIP3    H144684   6.631   5.789   0.274  0.5367 -2.8449 -0.2793
 7731TIP3    H244685   6.641   5.821   0.127 -0.3536  2.6967  0.7643
 7732TIP3   OH244686   1.944   3.271  11.149 -0.0687 -0.5870 -0.1042
 7732TIP3    H144687   1.952   3.190  11.097 -0.9695  0.4622 -1.9170
 7732TIP3    H244688   1.916   3.337  11.086  2.1339  1.5255  1.0495
 7733TIP3   OH244689   6.813   4.015   5.897 -0.5040 -0.2165 -0.3008
 7733TIP3    H144690   6.762   4.055   5.967  0.0996 -1.5314  0.9046
 7733TIP3    H244691   6.896   3.990   5.938 -0.8258 -2.6098 -1.0417
 7734TIP3   OH244692   5.381   0.956  12.659 -0.4004 -0.4905  0.3606
 7734TIP3    H144693   5.461   1.002  12.683 -0.3730 -0.0321 -0.5728
 7734TIP3    H244694   5.372   0.887  12.724  0.9308 -0.7473  0.2826
 7735TIP3   OH244695   4.341   4.515   2.363  0.2624  0.6072 -0.5604
 7735TIP3    H144696   4.421   4.463   2.351  0.3350  0.0498  1.9736
 7735TIP3    H244697   4.361   4.573   2.436 -2.3168 -1.0319  1.5453
 7736TIP3   OH244698   6.582   5.820  14.950  0.1616 -0.3456 -0.0273
 7736TIP3    H144699   6.530   5.887  14.906  0.1814 -0.7921 -0.7279
 7736TIP3    H244700   6.590   5.749  14.887 -0.0346 -1.1076  0.7849
 7737TIP3   OH244701   4.773   1.577   5.397  0.2423  0.6486  0.0001
 7737TIP3    H144702   4.726   1.610   5.474  0.6895  0.5570  0.3156
 7737TIP3    H244703   4.814   1.655   5.359 -0.6677  0.8187 -0.6227
 7738TIP3   OH244704   5.168   1.525   2.130  0.3061  0.6956 -0.2325
 7738TIP3    H144705   5.132   1.439   2.112 -0.3598  0.7597  0.7550
 7738TIP3    H244706   5.241   1.508   2.190  0.4414  0.7765 -0.3753
 7739TIP3   OH244707   0.282   0.668   3.346 -0.7618 -0.5314 -0.0032
 7739TIP3    H144708   0.334   0.682   3.425 -0.2306  0.9271 -0.5909
 7739TIP3    H244709   0.285   0.574   3.331  2.6764 -0.3625 -0.6936
 7740TIP3   OH244710   5.731   1.784  16.611  0.1807  0.3498 -0.4402
 7740TIP3    H144711   5.775   1.773  16.527 -1.4393 -0.9723 -1.1426
 7740TIP3    H244712   5.674   1.860  16.599  1.0319  1.0745 -0.0361
 7741TIP3   OH244713   5.557   3.456   3.532  0.2012  0.4475  0.0009
 7741TIP3    H144714   5.607   3.524   3.576 -0.0562  0.7114 -0.1150
 7741TIP3    H244715   5.600   3.374   3.558  0.1625  0.6144  0.5916
 7742TIP3   OH244716   4.397   3.167  14.446  0.1924  0.5765  0.2244
 7742TIP3    H144717   4.458   3.095  14.463 -0.2965  0.4038  1.2703
 7742TIP3    H244718   4.380   3.205  14.532 -1.3076  0.5103 -0.0284
 7743TIP3   OH244719   4.063   4.514   4.052  0.2614 -0.5138  0.7300
 7743TIP3    H144720   4.033   4.554   4.133  0.9001 -3.2481  2.3698
 7743TIP3    H244721   3.988   4.519   3.993 -0.6657  0.1773  1.9516
 7744TIP3   OH244722   5.429   1.328  14.478  0.2520 -0.3034 -0.2363
 7744TIP3    H144723   5.382   1.391  14.423  1.7313 -1.3756 -2.8067
 7744TIP3    H244724   5.362   1.297  14.540 -0.3475  4.1904  1.5597
 7745TIP3   OH244725   0.861   2.748   1.807  1.5410 -0.3842  0.2159
 7745TIP3    H144726   0.846   2.703   1.724  0.6373  0.0557  0.1425
 7745TIP3    H244727   0.778   2.742   1.854  1.0974  2.1093 -0.2171
 7746TIP3   OH244728   2.910   1.115   1.359  0.4782 -0.4504  0.5939
 7746TIP3    H144729   2.861   1.074   1.287 -3.3135  2.5090  1.2858
 7746TIP3    H244730   2.978   1.166   1.314 -0.9332  0.2133 -0.8801
 7747TIP3   OH244731   3.184   2.937   2.644 -0.9877 -0.8543  0.3196
 7747TIP3    H144732   3.127   2.862   2.626 -1.4403 -0.5915  0.6478
 7747TIP3    H244733   3.254   2.929   2.580 -1.2946 -1.2875  0.0319
 7748TIP3   OH244734   0.396   4.492  15.366  0.0292 -0.3599 -0.0783
 7748TIP3    H144735   0.484   4.465  15.340  0.1159  0.4399 -0.6441
 7748TIP3    H244736   0.361   4.417  15.413 -0.0972 -1.8759 -2.4803
 7749TIP3   OH244737   5.363   0.729  14.933 -0.2718  0.1415 -0.0207
 7749TIP3    H144738   5.428   0.799  14.925 -2.0087  1.8246  0.1583
 7749TIP3    H244739   5.367   0.704  15.025  1.0480 -0.7112 -0.2927
 7750TIP3   OH244740   2.285   0.058  16.594 -0.1396 -0.1147 -0.3038
 7750TIP3    H144741   2.289   0.153  16.602  0.8609 -0.2353  0.8679
 7750TIP3    H244742   2.261   0.042  16.503 -1.1270  1.2698 -0.3029
 7751TIP3   OH244743   0.784   0.867  15.095 -0.0254 -0.1143 -0.0609
 7751TIP3    H144744   0.797   0.773  15.109  1.4906  0.4560  2.5625
 7751TIP3    H244745   0.827   0.909  15.169  0.1646  2.7248 -1.7118
 7752TIP3   OH244746   5.633   5.901  12.357 -0.3673  0.1648 -0.7965
 7752TIP3    H144747   5.718   5.886  12.315 -0.1201 -1.7061  0.3357
 7752TIP3    H244748   5.591   5.967  12.302  1.0381 -0.2823 -2.4641
 7753TIP3   OH244749   1.126   4.266   5.726  0.3249 -0.4906  0.0182
 7753TIP3    H144750   1.075   4.323   5.667  0.8070  0.0767  0.1421
 7753TIP3    H244751   1.115   4.306   5.812  0.6772 -0.5851  0.1040
 7754TIP3   OH244752   4.979   2.772  14.304  0.1947 -0.2399 -0.1486
 7754TIP3    H144753   4.951   2.840  14.243 -0.3239  0.6590  1.0752
 7754TIP3    H244754   4.918   2.780  14.378  0.8412 -1.2818  0.5063
 7755TIP3   OH244755   5.160   2.575  16.847  0.0350 -0.8348  0.3263
 7755TIP3    H144756   5.226   2.575  16.778 -0.0453 -0.9696  0.2494
 7755TIP3    H244757   5.078   2.597  16.801  0.2745  0.8203  0.6637
 7756TIP3   OH244758   0.137   3.068  12.488 -0.4463  0.0267 -0.5691
 7756TIP3    H144759   0.179   3.108  12.564  1.2950  1.0339 -2.0428
 7756TIP3    H244760   0.056   3.030  12.524  0.9313 -0.6188  2.0268
 7757TIP3   OH244761   4.894   4.000  12.541 -0.7498  0.9945 -0.2036
 7757TIP3    H144762   4.962   4.001  12.474 -0.7367 -0.2486 -0.2221
 7757TIP3    H244763   4.941   4.018  12.623 -0.2394 -0.6326 -0.1034
 7758TIP3   OH244764   1.207   0.337  10.761  0.0037 -1.4706  0.3493
 7758TIP3    H144765   1.196   0.370  10.672 -0.3416 -0.5925  0.7122
 7758TIP3    H244766   1.233   0.414  10.812 -1.4300 -1.6192  1.3393
 7759TIP3   OH244767   0.740   4.440   5.122  0.3924  0.3572 -0.3186
 7759TIP3    H144768   0.676   4.370   5.103  2.1042 -0.7262 -2.2833
 7759TIP3    H244769   0.689   4.521   5.115 -0.8640 -0.4974 -1.4706
 7760TIP3   OH244770   1.382   5.362   4.852 -0.2957 -0.4877  0.0782
 7760TIP3    H144771   1.326   5.342   4.927 -0.0868  0.8034  0.6015
 7760TIP3    H244772   1.328   5.418   4.796 -0.4626 -1.4887 -0.7501
 7761TIP3   OH244773   1.714   4.567  16.274  0.3599 -0.1635 -0.4179
 7761TIP3    H144774   1.644   4.502  16.280 -1.0476  1.1693 -1.8816
 7761TIP3    H244775   1.788   4.526  16.319 -1.3464 -1.5926  1.1996
 7762TIP3   OH244776   3.133   0.937   6.261 -0.5717 -0.1839  0.1578
 7762TIP3    H144777   3.082   0.895   6.191 -0.1017  0.2671 -0.4648
 7762TIP3    H244778   3.069   0.986   6.312 -0.9914 -0.9235  0.3469
 7763TIP3   OH244779   3.998   1.410  10.994 -0.1603 -0.6621  0.0998
 7763TIP3    H144780   3.999   1.433  10.901  1.7267 -0.7196  0.0940
 7763TIP3    H244781   4.085   1.433  11.026 -0.5900 -1.2074  1.7196
 7764TIP3   OH244782   3.568   3.384   4.364 -0.7020  0.0658 -0.3238
 7764TIP3    H144783   3.616   3.332   4.429 -2.7519  0.2653  1.4369
 7764TIP3    H244784   3.508   3.322   4.323 -0.0951  0.1482 -1.3376
 7765TIP3   OH244785   0.968   3.461  13.377  0.1301 -0.1729  0.0641
 7765TIP3    H144786   1.059   3.439  13.357 -0.4455 -1.6776 -1.0051
 7765TIP3    H244787   0.971   3.550  13.412  2.0769 -0.4363  0.5882
 7766TIP3   OH244788   0.152   4.567   3.414  0.0226 -0.0295  0.3907
 7766TIP3    H144789   0.095   4.551   3.339  0.6813  0.6903 -0.2794
 7766TIP3    H244790   0.197   4.649   3.392  0.2104  0.1913  1.5801
 7767TIP3   OH244791   6.028   1.193  12.423 -0.2436  0.5811 -0.1954
 7767TIP3    H144792   6.094   1.127  12.443  0.7052  1.5415 -0.1274
 7767TIP3    H244793   5.969   1.151  12.360 -1.0079 -1.1239  1.6376
 7768TIP3   OH244794   6.174   1.487   2.685  0.0046 -0.3122  0.3006
 7768TIP3    H144795   6.228   1.557   2.649  1.1655 -0.1507  2.2980
 7768TIP3    H244796   6.202   1.409   2.637  0.2809  0.1916 -0.3794
 7769TIP3   OH244797   5.787   4.826   0.100  0.4471  0.0703 -0.0911
 7769TIP3    H144798   5.738   4.743   0.101  0.1363  0.2405  2.4602
 7769TIP3    H244799   5.724   4.891   0.132  1.6234  0.7075  0.9867
 7770TIP3   OH244800   4.291   2.852  14.711  0.0171 -0.0310 -0.0026
 7770TIP3    H144801   4.348   2.789  14.756 -1.4745 -0.9817  0.6303
 7770TIP3    H244802   4.204   2.811  14.715 -0.7852  1.5954 -0.5343
 7771TIP3   OH244803   5.361   0.869  15.571  0.2569  0.8132 -0.4086
 7771TIP3    H144804   5.316   0.785  15.580 -0.9204  1.5061  0.3194
 7771TIP3    H244805   5.377   0.898  15.661 -1.3021  2.3767 -0.5869
 7772TIP3   OH244806   1.981   6.738   2.395  0.3428  1.0468  0.2808
 7772TIP3    H144807   1.985   6.830   2.370 -0.1175  1.0260  0.1366
 7772TIP3    H244808   2.059   6.725   2.449  2.9359  0.4079 -3.3925
 7773TIP3   OH244809   6.739   1.870   0.907  0.5569 -0.1416 -0.4248
 7773TIP3    H144810   6.755   1.898   0.997 -0.7675  1.7192 -0.7443
 7773TIP3    H244811   6.665   1.809   0.915  2.6262 -2.6480  0.1178
 7774TIP3   OH244812   5.097   2.502   6.468  0.3358  0.6655 -0.1126
 7774TIP3    H144813   5.165   2.515   6.402  0.4415 -0.2288 -0.1893
 7774TIP3    H244814   5.102   2.579   6.524  0.6987  1.1082 -0.7485
 7775TIP3   OH244815   0.055   4.397   1.989 -0.0271 -0.4563  0.0905
 7775TIP3    H144816   0.127   4.378   1.929  0.8915  2.1646  0.3089
 7775TIP3    H244817   0.095   4.445   2.061 -1.6610 -0.7491  1.2335
 7776TIP3   OH244818   3.080   5.287   1.122 -0.2760 -0.5056  0.1277
 7776TIP3    H144819   3.158   5.317   1.074 -0.2177 -1.7846 -0.6072
 7776TIP3    H244820   3.027   5.244   1.055 -1.9490  0.9355  0.4850
 7777TIP3   OH244821   5.783   4.183  13.875  0.1684  0.0182  0.0740
 7777TIP3    H144822   5.787   4.224  13.789  2.2845 -0.3071  0.0009
 7777TIP3    H244823   5.751   4.252  13.934 -2.0625  0.0107 -1.0869
 7778TIP3   OH244824   0.791   6.226   5.463  0.4261  0.0692 -0.1880
 7778TIP3    H144825   0.831   6.303   5.422  0.0497  0.7174  0.6438
 7778TIP3    H244826   0.713   6.209   5.410  1.7004 -1.1246 -1.7428
 7779TIP3   OH244827   2.587   0.549   2.348 -0.6710 -0.1566 -0.3365
 7779TIP3    H144828   2.563   0.506   2.266  0.3942 -0.7763 -0.3352
 7779TIP3    H244829   2.583   0.480   2.414 -0.7447  0.1555 -0.0128
 7780TIP3   OH244830   3.058   1.597  14.160  0.3477 -0.4311 -0.3511
 7780TIP3    H144831   3.050   1.635  14.248  0.1554 -0.7139 -0.2457
 7780TIP3    H244832   3.111   1.518  14.173 -0.0731 -0.7258 -0.4127
 7781TIP3   OH244833   3.153   3.486  11.923  0.0858 -0.3433  0.5859
 7781TIP3    H144834   3.105   3.522  11.848 -1.7899 -0.1885  1.8364
 7781TIP3    H244835   3.168   3.395  11.900 -1.5408 -0.6050  0.5213
 7782TIP3   OH244836   2.596   2.379  12.236 -0.2695  0.2180  0.0007
 7782TIP3    H144837   2.603   2.469  12.269  0.6005 -0.0732  0.6141
 7782TIP3    H244838   2.665   2.331  12.282  0.1646 -0.4615 -1.3248
 7783TIP3   OH244839   1.858   2.785  12.340  0.0593  0.0874 -0.2592
 7783TIP3    H144840   1.945   2.764  12.374  0.9152  3.1837 -0.4074
 7783TIP3    H244841   1.803   2.795  12.417 -0.1825 -1.7849 -0.1625
 7784TIP3   OH244842   3.671   3.962  15.576  0.0722 -0.6000 -0.0396
 7784TIP3    H144843   3.659   3.949  15.670  1.7574 -1.3003  0.0940
 7784TIP3    H244844   3.627   3.887  15.536 -3.2112  1.2116  0.0131
 7785TIP3   OH244845   0.818   6.157  15.868 -0.0569  0.5643  0.2468
 7785TIP3    H144846   0.768   6.198  15.798 -0.2643  0.4697  0.3409
 7785TIP3    H244847   0.895   6.213  15.879  0.4682  0.0554 -0.7161
 7786TIP3   OH244848   6.790   1.172  16.765  0.2806  0.0886  0.0713
 7786TIP3    H144849   6.737   1.212  16.834  1.1224  0.0290  0.7660
 7786TIP3    H244850   6.748   1.087  16.750 -0.3271  0.3976  0.0091
 7787TIP3   OH244851   4.434   5.105  15.378 -0.0187 -0.5576 -0.1262
 7787TIP3    H144852   4.428   5.017  15.415 -0.6802  0.1521  1.4805
 7787TIP3    H244853   4.468   5.159  15.449  0.3372  0.5038 -1.0896
 7788TIP3   OH244854   4.644   2.773   4.301  0.7676 -0.0425 -0.0133
 7788TIP3    H144855   4.678   2.705   4.359 -0.6477 -0.3934  0.4398
 7788TIP3    H244856   4.593   2.830   4.359  0.9615  0.7308 -0.5918
 7789TIP3   OH244857   4.146   3.950  15.463 -0.0597  0.3880 -0.3224
 7789TIP3    H144858   4.141   3.946  15.368  1.3840  0.0894 -0.4062
 7789TIP3    H244859   4.080   4.014  15.489 -0.1131  0.8424 -1.5673
 7790TIP3   OH244860   0.644   4.433  13.371  0.2422  0.3684  0.1460
 7790TIP3    H144861   0.635   4.429  13.466 -1.8533 -0.2474 -0.0614
 7790TIP3    H244862   0.634   4.343  13.342  3.1052  0.2186 -0.5039
 7791TIP3   OH244863   6.407   5.355   6.085  0.3968 -0.0246  0.2715
 7791TIP3    H144864   6.343   5.289   6.058  0.7930 -0.4229  0.2935
 7791TIP3    H244865   6.380   5.380   6.173  1.5294 -1.8037  1.1621
 7792TIP3   OH244866   5.740   6.105   3.174 -0.2277 -0.0673  0.0928
 7792TIP3    H144867   5.724   6.084   3.082  0.1056  2.2626 -0.5274
 7792TIP3    H244868   5.659   6.079   3.219 -0.3633 -1.2735 -0.8334
 7793TIP3   OH244869   5.306   1.611  15.190  0.5229 -0.0601 -0.0246
 7793TIP3    H144870   5.270   1.685  15.142  0.4688  0.3300  0.6145
 7793TIP3    H244871   5.265   1.615  15.276  1.9977  0.3264  0.6832
 7794TIP3   OH244872   5.260   6.792  15.657 -0.5776 -0.0101  0.1408
 7794TIP3    H144873   5.279   6.885  15.644  0.1038 -0.2608 -0.6623
 7794TIP3    H244874   5.257   6.782  15.752  1.8648  0.3428  0.2891
 7795TIP3   OH244875   3.132   3.728  12.064 -0.5093  0.2201  0.4664
 7795TIP3    H144876   3.096   3.691  12.145 -0.0854 -0.7645  0.2141
 7795TIP3    H244877   3.106   3.666  11.996  2.3522 -0.9878  0.3814
 7796TIP3   OH244878   4.631   1.386   6.562 -0.2408  0.0229 -0.1704
 7796TIP3    H144879   4.614   1.307   6.510 -1.7945 -0.7000  1.3502
 7796TIP3    H244880   4.544   1.425   6.574  0.1819  0.5598  1.2294
 7797TIP3   OH244881   0.268   2.195  12.951 -0.2888 -0.4524  0.1427
 7797TIP3    H144882   0.336   2.256  12.979 -1.2442  0.9637 -0.5114
 7797TIP3    H244883   0.307   2.146  12.879 -0.0945  0.6542 -0.5186
 7798TIP3   OH244884   4.592   6.726  16.078 -0.3559  0.4608  0.2924
 7798TIP3    H144885   4.662   6.791  16.079 -0.9360  1.2209 -2.6027
 7798TIP3    H244886   4.517   6.772  16.040 -1.2117 -1.4820 -0.4456
 7799TIP3   OH244887   1.166   1.930  17.042  0.0383  0.1582 -0.2261
 7799TIP3    H144888   1.128   1.844  17.061  0.4186  0.2438  0.9126
 7799TIP3    H244889   1.104   1.992  17.080  0.3597  0.3548 -0.0307
 7800TIP3   OH244890   3.760   1.596   1.740  0.0835 -1.0173  0.1938
 7800TIP3    H144891   3.718   1.653   1.805  2.8246 -0.2283  1.3492
 7800TIP3    H244892   3.688   1.545   1.703 -1.9397  0.5977  1.7665
 7801TIP3   OH244893   5.067   3.937   1.188  0.2313  0.3383  0.2141
 7801TIP3    H144894   5.118   4.019   1.184  0.0629  0.4141 -0.3700
 7801TIP3    H244895   5.121   3.873   1.143  0.1210  0.2528  0.2026
 7802TIP3   OH244896   4.593   2.481  12.857  0.1558 -0.6573 -0.5480
 7802TIP3    H144897   4.543   2.500  12.936 -0.9196 -0.0961 -1.3425
 7802TIP3    H244898   4.665   2.426  12.887  0.7726  0.9982  1.1118
 7803TIP3   OH244899   2.799   2.499  11.936  0.0630 -0.1919 -0.1524
 7803TIP3    H144900   2.725   2.559  11.926  0.3751  0.3069  0.5155
 7803TIP3    H244901   2.872   2.555  11.959  1.4038 -0.2880 -3.8875
 7804TIP3   OH244902   5.302   4.444   1.047 -0.2979  0.1351  0.3876
 7804TIP3    H144903   5.359   4.488   1.110 -2.5005  2.3344  0.9208
 7804TIP3    H244904   5.243   4.392   1.102  0.8512 -1.7775 -0.1385
 7805TIP3   OH244905   2.916   4.615   2.122 -0.1002 -0.2073  0.0287
 7805TIP3    H144906   2.842   4.570   2.081  0.0969  0.2522 -0.8473
 7805TIP3    H244907   2.922   4.577   2.210 -1.8884  0.3372  0.3959
 7806TIP3   OH244908   6.196   2.644  16.550  0.1493  0.9070 -0.0193
 7806TIP3    H144909   6.173   2.730  16.585  0.8730  1.1471 -0.1270
 7806TIP3    H244910   6.137   2.632  16.475 -1.3534  0.4236  1.2145
 7807TIP3   OH244911   0.276   6.659   5.878 -0.0751 -0.3850 -0.4591
 7807TIP3    H144912   0.211   6.623   5.938  0.1276 -2.0928 -1.2260
 7807TIP3    H244913   0.349   6.597   5.882  0.4752  0.1872 -1.4703
 7808TIP3   OH244914   4.672   4.736  15.029  0.1676  0.0086 -0.4944
 7808TIP3    H144915   4.700   4.758  14.941  0.0011 -0.7902 -0.7559
 7808TIP3    H244916   4.737   4.673  15.060 -0.0873 -0.1450 -0.2628
 7809TIP3   OH244917   2.604   3.129  15.758 -0.1550  0.7227  0.2977
 7809TIP3    H144918   2.584   3.063  15.824 -0.1587  0.8700  0.4453
 7809TIP3    H244919   2.692   3.108  15.728 -0.7956 -0.3576 -0.8702
 7810TIP3   OH244920   3.372   2.812   3.948  0.6326  0.0153 -0.0392
 7810TIP3    H144921   3.308   2.846   4.010  1.6250  0.6381  0.6747
 7810TIP3    H244922   3.351   2.855   3.865 -0.1025 -0.0742  0.1033
 7811TIP3   OH244923   4.442   1.090  16.773 -0.7235 -0.0528  0.0003
 7811TIP3    H144924   4.437   1.159  16.840  2.0074  0.2995 -0.1095
 7811TIP3    H244925   4.436   1.137  16.690  4.3597  0.5292 -0.1769
 7812TIP3   OH244926   1.942   1.943   4.202  0.3382 -0.3199  0.4487
 7812TIP3    H144927   2.005   1.947   4.274 -0.0167 -0.3706  0.7611
 7812TIP3    H244928   1.951   2.027   4.157 -0.1346  0.0996  1.1339
 7813TIP3   OH244929   3.547   5.495  10.879  0.3451  0.3641 -0.2695
 7813TIP3    H144930   3.604   5.545  10.820  0.6814 -1.0081 -1.1065
 7813TIP3    H244931   3.460   5.500  10.839  0.7346 -1.2687 -1.3205
 7814TIP3   OH244932   4.991   4.784  12.193 -0.5577 -0.5795  0.0012
 7814TIP3    H144933   5.003   4.766  12.286  1.2909 -0.9999 -0.2908
 7814TIP3    H244934   5.072   4.752  12.152 -0.5959  1.2019 -1.5309
 7815TIP3   OH244935   4.136   5.451  14.880 -0.2486  0.1512  0.2971
 7815TIP3    H144936   4.110   5.530  14.831 -0.1983  0.0994  0.1869
 7815TIP3    H244937   4.224   5.470  14.911 -1.0255  0.9903  2.0577
 7816TIP3   OH244938   5.848   1.273  12.609  0.4818 -0.5005  0.1771
 7816TIP3    H144939   5.919   1.273  12.545 -1.2383 -0.4181 -1.7899
 7816TIP3    H244940   5.776   1.230  12.564 -0.7556 -0.4867  2.1057
 7817TIP3   OH244941   0.748   2.880   0.586  0.0505 -0.4479  0.1300
 7817TIP3    H144942   0.697   2.804   0.560 -0.1329  0.3205 -1.8602
 7817TIP3    H244943   0.742   2.882   0.681 -0.1536 -2.7629  0.1930
 7818TIP3   OH244944   2.489   3.101   6.019 -0.3595  0.1844  0.0637
 7818TIP3    H144945   2.556   3.131   6.080 -0.7727 -0.5671  0.8900
 7818TIP3    H244946   2.539   3.065   5.945  0.1400  0.7299  0.1376
 7819TIP3   OH244947   0.005   3.598  15.900  0.3339 -0.2804 -0.4113
 7819TIP3    H144948   0.049   3.516  15.920 -0.3502 -0.5041  0.1900
 7819TIP3    H244949   0.044   3.662  15.960  1.2433 -0.0433 -1.2430
 7820TIP3   OH244950   1.535   2.754  13.015 -0.5524 -0.1709  0.5435
 7820TIP3    H144951   1.534   2.803  12.933 -2.5331 -1.0897 -0.0296
 7820TIP3    H244952   1.591   2.804  13.073 -2.1490  2.5201 -0.1629
 7821TIP3   OH244953   3.697   0.973  14.471  0.5522 -0.1844 -0.4691
 7821TIP3    H144954   3.765   1.024  14.428  0.2547 -0.1238 -0.8727
 7821TIP3    H244955   3.635   0.952  14.401 -0.4415  0.7502  0.1073
 7822TIP3   OH244956   3.151   0.653   2.190  0.0396 -0.0380  0.5448
 7822TIP3    H144957   3.159   0.560   2.168  0.3191 -0.2394  1.4813
 7822TIP3    H244958   3.214   0.666   2.261  0.4693  1.0187 -0.0366
 7823TIP3   OH244959   3.072   5.436  11.185 -0.0015 -0.0317  0.1215
 7823TIP3    H144960   3.009   5.387  11.132 -0.2225  1.6612 -1.2168
 7823TIP3    H244961   3.157   5.400  11.161 -0.0320  1.2263 -1.9747
 7824TIP3   OH244962   6.464   0.461   0.117 -0.2503 -0.3551 -0.0424
 7824TIP3    H144963   6.486   0.534   0.175 -1.8400  0.3657 -0.3288
 7824TIP3    H244964   6.539   0.401   0.125  0.2770  0.4770  1.5305
 7825TIP3   OH244965   1.957   0.855   6.763 -0.6640  0.5362 -0.7751
 7825TIP3    H144966   1.918   0.819   6.842  0.2468 -0.3689 -0.7272
 7825TIP3    H244967   1.931   0.947   6.763 -2.4651  0.0556 -0.5507
 7826TIP3   OH244968   5.105   1.161   5.426  0.2184  0.5482 -0.3917
 7826TIP3    H144969   5.065   1.246   5.408 -1.6336  0.0283  1.0407
 7826TIP3    H244970   5.060   1.100   5.367  1.0136  0.4349 -0.8863
 7827TIP3   OH244971   5.913   6.379   4.437  0.2458  0.4549 -1.1261
 7827TIP3    H144972   5.845   6.354   4.375 -1.5563 -1.2729  1.4455
 7827TIP3    H244973   5.867   6.435   4.500  1.3145 -0.3073  0.3449
 7828TIP3   OH244974   5.069   3.985  16.685  0.9506 -0.3996 -0.0158
 7828TIP3    H144975   5.144   3.926  16.675  0.3403 -1.2336  0.1874
 7828TIP3    H244976   5.090   4.060  16.630  1.9696 -0.5790  0.1114
 7829TIP3   OH244977   3.991   1.132   2.995 -0.0329 -0.5204  0.1038
 7829TIP3    H144978   3.963   1.206   2.941 -0.8224 -1.6907 -1.0940
 7829TIP3    H244979   4.021   1.173   3.076 -0.0539  1.1546 -0.7034
 7830TIP3   OH244980   0.262   1.543   4.278  0.1066  0.1730  0.2959
 7830TIP3    H144981   0.275   1.636   4.261  0.1820  0.2074  0.5413
 7830TIP3    H244982   0.167   1.535   4.294 -0.1249 -0.0280 -1.1757
 7831TIP3   OH244983   4.167   5.248  12.295 -0.5651 -0.1140  0.3286
 7831TIP3    H144984   4.199   5.246  12.386  0.2469  0.7363  0.0690
 7831TIP3    H244985   4.155   5.341  12.276 -0.9999 -0.3085 -0.3447
 7832TIP3   OH244986   6.020   1.622  14.975 -0.4825  0.3058  0.0146
 7832TIP3    H144987   6.011   1.712  14.946 -0.5382  0.9844  2.1027
 7832TIP3    H244988   5.976   1.570  14.907 -0.2824  1.8152 -1.2845
 7833TIP3   OH244989   6.016   5.334  14.778  0.3696 -0.0646 -0.3298
 7833TIP3    H144990   5.940   5.276  14.768  0.9960 -1.3303  1.8278
 7833TIP3    H244991   5.991   5.395  14.848  1.6491 -1.0921  1.0652
 7834TIP3   OH244992   1.491   2.837  10.774  0.2706  0.5223 -0.3205
 7834TIP3    H144993   1.536   2.841  10.689 -0.5260 -2.9890 -0.9574
 7834TIP3    H244994   1.406   2.797  10.755 -0.2019  0.3447  2.0302
 7835TIP3   OH244995   6.705   3.257   3.296  0.2544 -0.1015  0.3935
 7835TIP3    H144996   6.671   3.346   3.280 -2.0818 -0.8242  1.1738
 7835TIP3    H244997   6.761   3.266   3.373  0.1711  0.7051  0.3638
 7836TIP3   OH244998   5.218   5.084   1.867 -0.0715  0.0920 -0.8884
 7836TIP3    H144999   5.287   5.096   1.932 -1.2393  1.9963  0.0621
 7836TIP3    H245000   5.262   5.044   1.792  2.1660  1.6972 -0.4924
 7837TIP3   OH245001   4.435   0.051   0.361 -0.1032 -0.0583 -0.0673
 7837TIP3    H145002   4.372   0.080   0.295  2.4359  0.4019 -2.3840
 7837TIP3    H245003   4.431  -0.045   0.357  0.6069 -0.0437 -1.5016
 7838TIP3   OH245004   5.344   5.766  16.697 -0.4572 -0.1524  0.1999
 7838TIP3    H145005   5.273   5.795  16.639 -0.8868  2.0389  1.7422
 7838TIP3    H245006   5.422   5.809  16.662 -0.4485 -0.0793  0.3072
 7839TIP3   OH245007   0.416   0.158   4.805 -0.0739 -0.2954 -0.5235
 7839TIP3    H145008   0.421   0.074   4.760 -0.0788 -1.0149  0.7744
 7839TIP3    H245009   0.480   0.213   4.761 -0.0320 -1.0060 -1.3565
 7840TIP3   OH245010   0.864   3.395  16.174 -0.2049  0.2255  0.2548
 7840TIP3    H145011   0.938   3.365  16.121 -1.3071 -1.5695 -0.3163
 7840TIP3    H245012   0.872   3.345  16.256 -0.7445  0.0786  0.2198
 7841TIP3   OH245013   3.601   3.840  15.823  0.0900 -0.0195  0.2753
 7841TIP3    H145014   3.541   3.765  15.820  2.2345 -1.7854 -0.5468
 7841TIP3    H245015   3.646   3.832  15.907 -1.5632  1.9324  1.3808
 7842TIP3   OH245016   3.540   3.608  17.218  0.7041 -0.2353  0.1454
 7842TIP3    H145017   3.628   3.589  17.186  0.2379 -2.4244  0.1378
 7842TIP3    H245018   3.552   3.623  17.312  1.0351 -0.8742  0.2067
 7843TIP3   OH245019   0.265   1.998   1.064 -0.0439  0.0063  0.8019
 7843TIP3    H145020   0.263   2.044   0.980 -0.9565  0.7594  1.2175
 7843TIP3    H245021   0.271   1.906   1.041  0.3045  0.2444 -0.0787
 7844TIP3   OH245022   6.322   5.877  16.500 -0.1581  0.5349 -0.3025
 7844TIP3    H145023   6.334   5.854  16.408 -0.9786  1.8095 -0.7460
 7844TIP3    H245024   6.249   5.939  16.500  1.9577  3.1304  0.8006
 7845TIP3   OH245025   1.369   6.581   2.535 -0.1421  0.1392  0.2130
 7845TIP3    H145026   1.432   6.511   2.516 -1.6830 -1.5222  1.1130
 7845TIP3    H245027   1.394   6.652   2.476  2.9416 -0.2520  0.9311
 7846TIP3   OH245028   2.375   4.060  14.380  0.0546 -0.3570  0.0061
 7846TIP3    H145029   2.355   4.027  14.292  1.2937 -2.4900  0.5051
 7846TIP3    H245030   2.312   4.017  14.437  2.1507 -2.5037  0.7638
 7847TIP3   OH245031   6.816   3.261   3.551 -0.1490  0.4003  0.0828
 7847TIP3    H145032   6.851   3.260   3.641 -1.1640  1.6219  0.5036
 7847TIP3    H245033   6.725   3.288   3.561  0.0003  1.5122 -1.4120
 7848TIP3   OH245034   5.209   1.440  14.998 -0.2378  0.6422  0.2226
 7848TIP3    H145035   5.251   1.511  15.047  2.2851  0.4496 -1.5611
 7848TIP3    H245036   5.193   1.477  14.912  3.2297 -1.5654 -1.4788
 7849TIP3   OH245037   3.064   4.841   1.224  0.0728 -0.6000 -0.0084
 7849TIP3    H145038   3.097   4.805   1.306  1.3769  0.8585  0.1430
 7849TIP3    H245039   2.984   4.887   1.248 -1.0151 -2.4561 -0.0290
 7850TIP3   OH245040   6.729   5.801  12.672 -0.2766  0.9359  0.2933
 7850TIP3    H145041   6.824   5.805  12.684 -0.0391 -0.7236 -0.8527
 7850TIP3    H245042   6.695   5.776  12.758  0.3203  1.5161  0.7033
 7851TIP3   OH245043   3.478   6.106  12.773 -0.7536  0.2270 -0.0890
 7851TIP3    H145044   3.443   6.017  12.777  0.4334 -0.3224 -1.4236
 7851TIP3    H245045   3.558   6.098  12.722  0.8684  1.6171  2.1556
 7852TIP3   OH245046   1.788   5.190   2.658 -0.6861 -0.2408 -0.2770
 7852TIP3    H145047   1.881   5.180   2.637 -0.2893  0.5069  1.0189
 7852TIP3    H245048   1.766   5.278   2.629  0.0846  1.1128  3.0695
 7853TIP3   OH245049   2.513   6.032   0.152 -0.4421  0.2927 -0.2065
 7853TIP3    H145050   2.588   6.091   0.163 -1.6475  1.7434  0.3469
 7853TIP3    H245051   2.546   5.947   0.179  1.2914  0.7189 -0.8793
 7854TIP3   OH245052   2.113   4.039   4.122  0.0069  0.0349  0.5315
 7854TIP3    H145053   2.058   3.985   4.178 -0.0724  0.2095  0.6208
 7854TIP3    H245054   2.120   3.989   4.040  1.8216 -1.2219  1.4035
 7855TIP3   OH245055   4.159   6.737  16.527 -0.0235  0.1868  0.2593
 7855TIP3    H145056   4.226   6.801  16.503 -0.1275  0.0016 -0.5597
 7855TIP3    H245057   4.156   6.739  16.622  0.8635  0.4836  0.2803
 7856TIP3   OH245058   0.229   4.720   2.201  0.4744 -0.4234  0.3090
 7856TIP3    H145059   0.277   4.673   2.133  1.1349 -3.0310  2.4895
 7856TIP3    H245060   0.166   4.657   2.235 -0.6363  1.1917  1.3548
 7857TIP3   OH245061   4.677   0.608   2.219 -0.6104  0.6423 -0.6370
 7857TIP3    H145062   4.651   0.586   2.308 -0.3581 -1.2770 -1.0126
 7857TIP3    H245063   4.609   0.668   2.189 -0.7983  1.1521  0.7762
 7858TIP3   OH245064   1.520   4.423   2.974 -0.1993  0.1187  0.3352
 7858TIP3    H145065   1.519   4.331   2.949  0.2205  0.2637 -0.2480
 7858TIP3    H245066   1.478   4.426   3.059  0.0883 -0.6599  0.5074
 7859TIP3   OH245067   4.269   6.606  14.503 -0.0038  0.5289 -0.0640
 7859TIP3    H145068   4.345   6.586  14.558 -1.3552  1.4811  2.2463
 7859TIP3    H245069   4.223   6.522  14.496 -0.1962  0.5443  0.8869
 7860TIP3   OH245070   2.051   5.296   0.098 -0.6739  0.4635  0.2328
 7860TIP3    H145071   2.004   5.284   0.015  1.0393  1.9756 -1.0257
 7860TIP3    H245072   2.125   5.235   0.092 -0.8160  0.2327  0.8560
 7861TIP3   OH245073   5.903   0.526   5.735  0.8783  0.3003 -0.4580
 7861TIP3    H145074   5.968   0.594   5.753 -0.6953  1.0515  2.9519
 7861TIP3    H245075   5.890   0.483   5.820 -2.1875 -0.5944 -1.3320
 7862TIP3   OH245076   2.560   6.003   5.829 -0.0221  0.1706 -0.1154
 7862TIP3    H145077   2.466   5.984   5.825 -0.1279 -0.1497  2.7134
 7862TIP3    H245078   2.602   5.917   5.820 -0.2091 -0.3405  3.0026
 7863TIP3   OH245079   0.078   5.797   6.595  0.2501  0.0967  0.2475
 7863TIP3    H145080   0.131   5.717   6.598 -0.4459 -0.3391  2.4299
 7863TIP3    H245081   0.113   5.852   6.665  0.0861  1.2975 -0.5941
 7864TIP3   OH245082   5.270   0.745  12.348 -0.0636  0.0074  0.1752
 7864TIP3    H145083   5.348   0.743  12.403 -0.2296  0.0284  0.4120
 7864TIP3    H245084   5.304   0.752  12.258  0.3271 -3.1298  0.0054
 7865TIP3   OH245085   2.046   1.374   5.064  0.2896  0.6610  0.0778
 7865TIP3    H145086   1.965   1.323   5.062  0.6651  0.0168  1.2180
 7865TIP3    H245087   2.062   1.396   4.972  0.7039 -2.2039 -0.5786
 7866TIP3   OH245088   1.761   1.213   5.276  0.0339 -0.1157 -0.5900
 7866TIP3    H145089   1.696   1.260   5.328 -0.3752 -0.7544 -0.5157
 7866TIP3    H245090   1.842   1.222   5.326  0.1159  1.1250 -0.9507
 7867TIP3   OH245091   1.981   0.983   3.935  0.5921 -0.2672  1.0204
 7867TIP3    H145092   2.035   1.058   3.962 -0.7294  1.4783 -0.9876
 7867TIP3    H245093   1.905   0.987   3.993 -1.5464  2.6069 -1.8249
 7868TIP3   OH245094   3.229   2.487   0.908 -0.2760  0.3021  0.4247
 7868TIP3    H145095   3.320   2.496   0.937  0.3360  1.2314 -1.7028
 7868TIP3    H245096   3.204   2.576   0.882 -1.4412 -0.1557 -0.0336
 7869TIP3   OH245097   5.262   2.277   4.447  0.0371  0.5146  0.7468
 7869TIP3    H145098   5.253   2.299   4.539  2.4591  2.0112  0.6581
 7869TIP3    H245099   5.239   2.184   4.442 -4.5287  1.4369  2.0773
 7870TIP3   OH245100   1.611   6.107  14.442  0.7061  0.0860  0.3719
 7870TIP3    H145101   1.553   6.084  14.515 -1.2222  0.8206 -0.8978
 7870TIP3    H245102   1.643   6.023  14.410  0.2109 -0.3310  0.9634
 7871TIP3   OH245103   4.302   4.521  10.689 -0.0188 -0.0584 -0.0847
 7871TIP3    H145104   4.392   4.554  10.689 -0.1923  0.4602 -1.5097
 7871TIP3    H245105   4.254   4.581  10.632 -1.1260 -0.7163  0.1266
 7872TIP3   OH245106   5.693   5.298  11.680 -0.3215  0.0091  0.6364
 7872TIP3    H145107   5.771   5.344  11.648  0.6706 -2.0887 -0.1520
 7872TIP3    H245108   5.619   5.346  11.643  0.5830  2.0330  1.3858
 7873TIP3   OH245109   5.481   2.236  14.632 -0.1858 -0.6280 -0.3442
 7873TIP3    H145110   5.448   2.265  14.547 -0.0887  0.0207 -0.1620
 7873TIP3    H245111   5.542   2.305  14.659 -0.5881 -0.5876  0.4732
 7874TIP3   OH245112   4.674   4.349   1.269  0.4837 -0.2455 -0.3926
 7874TIP3    H145113   4.640   4.371   1.356  0.4782 -0.5631 -0.3102
 7874TIP3    H245114   4.749   4.406   1.257 -0.2714  0.6861 -0.7106
 7875TIP3   OH245115   1.372   0.389   1.714 -0.5336  0.5307 -0.1677
 7875TIP3    H145116   1.339   0.326   1.649  0.9363  0.9229 -1.3322
 7875TIP3    H245117   1.412   0.459   1.661  1.7420  0.2809  1.1591
 7876TIP3   OH245118   1.887   6.076   4.500  0.0999 -0.2832  0.3481
 7876TIP3    H145119   1.977   6.092   4.473  0.2784  1.8187  2.0685
 7876TIP3    H245120   1.886   5.983   4.522  2.0522 -0.1892  0.9860
 7877TIP3   OH245121   3.679   5.465   0.547  0.2124  0.1840  0.6120
 7877TIP3    H145122   3.588   5.435   0.540  0.8170 -1.9662  1.5899
 7877TIP3    H245123   3.710   5.429   0.629  2.5614 -0.7773 -0.6632
 7878TIP3   OH245124   4.989   1.583   6.517  0.2298 -0.1822 -0.3906
 7878TIP3    H145125   5.062   1.522   6.529 -0.0819 -0.1800  1.7506
 7878TIP3    H245126   5.026   1.657   6.469  0.6654 -1.9217 -2.8312
 7879TIP3   OH245127   0.782   1.832  16.625 -0.4090 -0.1114 -0.8090
 7879TIP3    H145128   0.742   1.792  16.548 -3.2116  1.1021 -0.0424
 7879TIP3    H245129   0.736   1.915  16.635  0.6907  0.2550  1.5364
 7880TIP3   OH245130   6.510   1.682   1.250 -0.1837  0.1611 -0.2186
 7880TIP3    H145131   6.483   1.737   1.324 -2.3786  0.1276 -0.9464
 7880TIP3    H245132   6.484   1.593   1.276  1.3765 -0.2323  0.0377
 7881TIP3   OH245133   3.005   3.685   3.367 -0.4173 -0.4236 -0.2062
 7881TIP3    H145134   3.055   3.650   3.440 -0.8814 -1.5878 -0.4432
 7881TIP3    H245135   3.055   3.762   3.339  2.4678 -2.7825 -1.8416
 7882TIP3   OH245136   0.457   2.797   0.281 -0.2408  0.1457 -0.1310
 7882TIP3    H145137   0.551   2.816   0.273  0.0286 -1.7703 -1.8683
 7882TIP3    H245138   0.439   2.735   0.211 -2.5874 -0.4264  0.9295
 7883TIP3   OH245139   1.241   2.480  13.448  0.3244 -0.5202 -1.1912
 7883TIP3    H145140   1.153   2.513  13.463 -0.8459 -2.9093 -2.5481
 7883TIP3    H245141   1.284   2.549  13.396 -0.6311  0.7889 -0.2620
 7884TIP3   OH245142   0.897   5.030  17.241  0.1351 -0.3849  0.2477
 7884TIP3    H145143   0.829   5.041  17.174 -1.8113 -0.2542  2.1613
 7884TIP3    H245144   0.977   5.014  17.192 -1.0743  0.5562 -2.1168
 7885TIP3   OH245145   3.931   5.182  14.163 -0.0659 -0.6789  0.2844
 7885TIP3    H145146   3.867   5.144  14.222  0.8195  0.4403  2.0142
 7885TIP3    H245147   3.900   5.271  14.148 -1.9439 -1.8640 -3.4679
 7886TIP3   OH245148   0.092   1.949   6.922  0.6689 -0.3767  0.0831
 7886TIP3    H145149   0.170   1.992   6.886  0.8103  0.6734  1.6069
 7886TIP3    H245150   0.024   2.016   6.918 -0.1175 -1.2214 -1.0382
 7887TIP3   OH245151   2.392   2.065  15.897  0.4353 -0.1095  0.3571
 7887TIP3    H145152   2.434   2.138  15.852  0.5927 -1.4890 -1.8386
 7887TIP3    H245153   2.313   2.102  15.936  0.8351  1.3524 -0.1995
 7888TIP3   OH245154   4.988   2.782  13.246  0.5461 -0.1287 -0.0678
 7888TIP3    H145155   4.917   2.741  13.295 -0.1446  0.3226 -0.6931
 7888TIP3    H245156   5.022   2.712  13.190  1.0141 -0.5110  0.6814
 7889TIP3   OH245157   5.800   2.534   3.653  0.2200  0.1290  0.6445
 7889TIP3    H145158   5.792   2.626   3.678  1.5631  0.5993 -0.5883
 7889TIP3    H245159   5.713   2.510   3.621  0.5127  1.7261 -1.4515
 7890TIP3   OH245160   2.569   6.453  15.494  0.2148  0.3243 -0.0823
 7890TIP3    H145161   2.526   6.369  15.514  0.0327 -0.0114 -1.8141
 7890TIP3    H245162   2.656   6.428  15.464  0.7100  0.8564  0.9013
 7891TIP3   OH245163   1.208   6.152  13.023 -0.0353 -0.0216  0.1277
 7891TIP3    H145164   1.184   6.061  13.004  1.4770 -0.3829 -0.1039
 7891TIP3    H245165   1.151   6.177  13.096  1.0432 -1.8683  1.6539
 7892TIP3   OH245166   4.328   2.639   3.095  0.2767 -0.3604 -0.1311
 7892TIP3    H145167   4.368   2.688   3.023  0.0391 -1.1025 -0.7618
 7892TIP3    H245168   4.289   2.707   3.151  0.5907  0.2221 -0.6151
 7893TIP3   OH245169   6.275   0.992   3.845 -0.0967 -0.2830  0.4212
 7893TIP3    H145170   6.206   0.967   3.906 -0.1471 -0.4162  0.3087
 7893TIP3    H245171   6.246   1.074   3.807 -0.0147 -0.1428  0.6576
 7894TIP3   OH245172   6.124   1.306   6.602  0.0089 -0.5750 -0.1192
 7894TIP3    H145173   6.122   1.380   6.662 -1.9122 -0.1269 -0.6848
 7894TIP3    H245174   6.078   1.236   6.649  0.5318 -0.9458 -0.1583
 7895TIP3   OH245175   6.287   4.839   6.500 -0.0036 -0.1425 -0.4684
 7895TIP3    H145176   6.295   4.751   6.464  0.9961 -0.1875 -0.1581
 7895TIP3    H245177   6.269   4.894   6.423  0.8457 -0.4166 -0.8713
 7896TIP3   OH245178   4.286   6.421  13.206  0.7825 -0.5175  0.7902
 7896TIP3    H145179   4.220   6.398  13.271 -0.1160 -1.0697 -0.2903
 7896TIP3    H245180   4.293   6.516  13.211  2.2107 -0.7047  3.0860
 7897TIP3   OH245181   0.869   2.139  11.518 -0.2106 -0.5562 -0.3672
 7897TIP3    H145182   0.828   2.112  11.436 -3.1579 -0.1418  0.9032
 7897TIP3    H245183   0.888   2.057  11.564  1.9447 -0.8149 -1.6260
 7898TIP3   OH245184   4.943   5.267   0.714 -0.7239 -0.3680  0.9817
 7898TIP3    H145185   4.856   5.229   0.723 -1.4269  0.8399 -0.3716
 7898TIP3    H245186   4.951   5.326   0.789 -1.4034  0.1181  0.6806
 7899TIP3   OH245187   2.361   6.767   4.742 -0.2978  0.0880  0.2441
 7899TIP3    H145188   2.416   6.752   4.819  1.5425  0.9713 -0.8837
 7899TIP3    H245189   2.389   6.851   4.707 -3.1303  1.1087  0.2459
 7900TIP3   OH245190   2.907   4.746  17.213 -0.4938 -0.0713 -0.3365
 7900TIP3    H145191   2.965   4.821  17.228 -0.3858 -0.1373 -0.4255
 7900TIP3    H245192   2.850   4.745  17.290  0.6404 -0.9420  0.5309
 7901TIP3   OH245193   2.429   4.181   2.874 -0.2428  0.4194  0.5262
 7901TIP3    H145194   2.468   4.160   2.789 -1.3919  0.9565 -0.1480
 7901TIP3    H245195   2.404   4.273   2.867  0.0245  0.5759  1.5899
 7902TIP3   OH245196   1.791   5.025   2.106 -0.4099 -0.2254 -0.0031
 7902TIP3    H145197   1.866   5.085   2.101  0.5303 -1.5222 -2.6883
 7902TIP3    H245198   1.743   5.052   2.184  1.3238  2.4444  0.1923
 7903TIP3   OH245199   0.934   1.893   6.078 -0.0924 -0.1477  0.0918
 7903TIP3    H145200   0.969   1.924   6.161  0.5900 -2.6258  0.7737
 7903TIP3    H245201   0.895   1.808   6.099 -0.6012 -0.4503 -1.9842
 7904TIP3   OH245202   4.319   2.623  15.187  0.1501 -0.2322 -0.9981
 7904TIP3    H145203   4.313   2.699  15.245 -1.5309 -1.1754  0.1181
 7904TIP3    H245204   4.392   2.642  15.129  1.7195  0.8679  1.2916
 7905TIP3   OH245205   0.878   5.047  13.927  0.2313 -0.0248 -0.5291
 7905TIP3    H145206   0.946   5.020  13.865  2.1705 -1.2596  2.0533
 7905TIP3    H245207   0.863   5.139  13.908  2.2131  0.0959 -1.5360
 7906TIP3   OH245208   2.449   0.883   2.783 -0.6852  0.0115  0.9175
 7906TIP3    H145209   2.505   0.805   2.784 -0.1783  0.3541 -0.1901
 7906TIP3    H245210   2.506   0.953   2.751 -1.6814  0.4107 -0.0154
 7907TIP3   OH245211   5.583   1.551  15.591 -0.1604 -0.7561 -0.1566
 7907TIP3    H145212   5.560   1.458  15.592 -0.1888 -0.9181 -4.6792
 7907TIP3    H245213   5.678   1.552  15.578 -0.0138 -0.1255  0.9073
 7908TIP3   OH245214   4.394   0.327  15.794 -0.6093 -0.2340 -0.6116
 7908TIP3    H145215   4.420   0.250  15.743 -0.0702  0.6354 -1.6797
 7908TIP3    H245216   4.477   0.366  15.822 -0.8916 -0.3073  0.3528
 7909TIP3   OH245217   3.965   0.491  12.887  0.4625 -0.2686  0.4503
 7909TIP3    H145218   3.947   0.481  12.793  1.3336  0.6718  0.1699
 7909TIP3    H245219   3.958   0.585  12.903 -0.0090 -0.4593  1.4025
 7910TIP3   OH245220   6.804   0.798   3.976  0.0981  0.1298  0.0040
 7910TIP3    H145221   6.743   0.808   3.903  1.0647 -1.0250 -0.9815
 7910TIP3    H245222   6.891   0.802   3.936  0.6997  1.6860  1.3735
 7911TIP3   OH245223   4.110   5.711  13.515  0.0746  0.1970  0.1440
 7911TIP3    H145224   4.205   5.712  13.527  0.3711  1.2191 -1.9636
 7911TIP3    H245225   4.075   5.697  13.603  2.1859 -1.0311  0.8441
 7912TIP3   OH245226   6.526   5.721  17.266 -0.1213 -0.1603 -0.0698
 7912TIP3    H145227   6.514   5.676  17.183 -0.7561  2.0938 -1.2477
 7912TIP3    H245228   6.443   5.711  17.312 -0.0680 -0.6663 -0.0855
 7913TIP3   OH245229   2.415   5.241  11.778  0.0353  0.0596 -0.4395
 7913TIP3    H145230   2.360   5.202  11.710  1.0665 -1.5870 -0.3622
 7913TIP3    H245231   2.404   5.183  11.853 -1.5397  2.1845  1.0081
 7914TIP3   OH245232   5.775   5.430   4.394  0.5913 -0.2248  0.7155
 7914TIP3    H145233   5.852   5.461   4.347  2.1929 -1.6365  2.3268
 7914TIP3    H245234   5.752   5.503   4.453  0.6965  0.1794  0.2620
 7915TIP3   OH245235   0.013   2.249   3.215 -0.4969 -0.2247  0.3593
 7915TIP3    H145236   0.013   2.156   3.193  1.3805 -0.5996  1.7497
 7915TIP3    H245237   0.082   2.286   3.160  0.8722 -0.2608  1.9997
 7916TIP3   OH245238   5.421   6.731  17.140 -0.0073  0.0760  0.4046
 7916TIP3    H145239   5.453   6.814  17.173  1.9384  0.4942 -2.3562
 7916TIP3    H245240   5.491   6.668  17.161  0.4675  0.0124 -1.2895
 7917TIP3   OH245241   1.915   1.506   5.915 -0.1584 -0.2663  0.2828
 7917TIP3    H145242   1.919   1.411   5.920 -1.5759 -0.2874  1.4816
 7917TIP3    H245243   1.976   1.529   5.845 -2.1060 -2.2754 -2.2071
 7918TIP3   OH245244   4.087   1.248   3.738  0.0065 -0.1286 -0.1124
 7918TIP3    H145245   4.034   1.252   3.658  0.5617 -0.7147 -0.5118
 7918TIP3    H245246   4.108   1.156   3.749 -0.2334 -0.0755  0.8284
 7919TIP3   OH245247   1.116   0.144  16.607  0.1224  0.6214  0.4159
 7919TIP3    H145248   1.076   0.067  16.648 -2.2693  1.4590 -0.2355
 7919TIP3    H245249   1.162   0.188  16.678 -0.9113  0.1059  1.4275
 7920TIP3   OH245250   0.247   1.917   1.933 -0.1745 -0.5348 -0.2981
 7920TIP3    H145251   0.171   1.863   1.911  0.6114 -0.4507 -3.5354
 7920TIP3    H245252   0.297   1.922   1.851  1.0669  3.0030  0.5677
 7921TIP3   OH245253   2.007   5.081   0.392  1.3237 -0.8671  0.5147
 7921TIP3    H145254   2.099   5.058   0.398  0.8757 -3.1191 -0.6542
 7921TIP3    H245255   1.964   5.001   0.361 -0.6910  0.8488 -1.3294
 7922TIP3   OH245256   5.889   4.646  14.596 -0.6331  0.2717 -0.4566
 7922TIP3    H145257   5.841   4.598  14.529 -1.0245  0.5202 -0.3575
 7922TIP3    H245258   5.821   4.687  14.649 -0.3378 -0.8457  0.7788
 7923TIP3   OH245259   1.687   0.907   6.096 -0.0257 -0.4784 -0.8292
 7923TIP3    H145260   1.769   0.888   6.142 -0.8671  0.6529  1.1747
 7923TIP3    H245261   1.630   0.944   6.163 -1.8850 -0.4334 -2.4125
 7924TIP3   OH245262   3.416   0.427   3.539 -0.1094 -0.3925  0.0003
 7924TIP3    H145263   3.394   0.455   3.628 -0.2107 -1.7895  0.4245
 7924TIP3    H245264   3.333   0.432   3.492  0.2158  1.7055 -0.4048
 7925TIP3   OH245265   3.307   5.889   5.844 -0.3207 -0.3572  0.4246
 7925TIP3    H145266   3.244   5.860   5.779 -0.9370  0.8578  0.4682
 7925TIP3    H245267   3.256   5.943   5.905  1.1545  2.5249 -0.8031
 7926TIP3   OH245268   6.541   2.828  17.087 -0.0311 -0.0783  0.3703
 7926TIP3    H145269   6.551   2.841  16.993  0.3493  1.5213  0.6202
 7926TIP3    H245270   6.621   2.866  17.125  1.1991 -3.2938  1.1497
 7927TIP3   OH245271   1.600   6.078   5.092 -0.1766 -0.0123  0.4062
 7927TIP3    H145272   1.603   6.130   5.012 -0.1957  1.7473  1.5174
 7927TIP3    H245273   1.687   6.039   5.099  0.1622  0.6884  0.0934
 7928TIP3   OH245274   0.591   6.626  15.462  0.4831  0.3811  0.4156
 7928TIP3    H145275   0.505   6.632  15.420 -0.0318  2.1008  1.6826
 7928TIP3    H245276   0.583   6.551  15.521  0.0830  0.1274  0.0494
 7929TIP3   OH245277   5.621   3.907  14.697  0.1388  0.0244 -0.0385
 7929TIP3    H145278   5.624   3.974  14.629  1.3237  0.1306  0.1063
 7929TIP3    H245279   5.713   3.888  14.716 -0.1850 -0.9166  0.6355
 7930TIP3   OH245280   6.393   5.870  15.291 -0.3965  0.2468 -0.2471
 7930TIP3    H145281   6.457   5.799  15.281 -0.2540  0.3772 -0.2684
 7930TIP3    H245282   6.312   5.835  15.253 -0.7372 -0.4536  1.0986
 7931TIP3   OH245283   6.312   1.868  13.334  0.6716  0.2856  0.0001
 7931TIP3    H145284   6.347   1.779  13.341  1.0684  0.4929  0.7878
 7931TIP3    H245285   6.367   1.920  13.393  0.4226  1.0477 -0.4241
 7932TIP3   OH245286   3.286   1.631  13.907 -0.2849 -0.0302  0.0889
 7932TIP3    H145287   3.327   1.679  13.835  2.3716 -0.4642  1.2428
 7932TIP3    H245288   3.249   1.553  13.865  1.0996 -0.1995 -0.8841
 7933TIP3   OH245289   2.545   6.338  14.285 -0.5662  0.0885 -0.4884
 7933TIP3    H145290   2.479   6.271  14.267 -0.4961 -0.1846  0.2681
 7933TIP3    H245291   2.628   6.289  14.288 -0.4094  0.3347 -0.7714
 7934TIP3   OH245292   6.671   6.002   0.682  0.3354  0.5245  0.4115
 7934TIP3    H145293   6.764   5.998   0.659  0.1016  0.9807 -0.6305
 7934TIP3    H245294   6.659   5.930   0.744  1.3567  0.3826  0.4523
 7935TIP3   OH245295   2.770   4.863   4.061 -0.6089  0.6899 -0.3018
 7935TIP3    H145296   2.700   4.885   3.999 -0.2513  0.6210 -0.7360
 7935TIP3    H245297   2.850   4.881   4.013 -0.3263  1.8607  0.5926
 7936TIP3   OH245298   4.594   3.665  12.946  0.4278  0.3578 -0.1323
 7936TIP3    H145299   4.502   3.639  12.941  0.0638  1.7247 -0.7896
 7936TIP3    H245300   4.593   3.751  12.989  1.3736  0.4836 -0.3381
 7937TIP3   OH245301   2.563   3.116  11.506  0.5980  0.1528 -0.0836
 7937TIP3    H145302   2.501   3.181  11.540  0.4607 -0.6368  1.2256
 7937TIP3    H245303   2.507   3.052  11.462  0.5909  0.0692  0.0476
 7938TIP3   OH245304   3.078   2.582  15.341  0.0364 -0.0227 -0.7101
 7938TIP3    H145305   3.093   2.532  15.260 -0.7198 -0.6620 -0.4620
 7938TIP3    H245306   2.993   2.550  15.373  0.3521  0.2030  0.3527
 7939TIP3   OH245307   2.490   4.618  16.032  0.3413  0.1032  0.1833
 7939TIP3    H145308   2.518   4.551  15.970  0.8741  0.3059  0.2046
 7939TIP3    H245309   2.537   4.697  16.004 -0.5538  0.5611 -0.0653
 7940TIP3   OH245310   4.992   5.348  15.584  0.9112  0.2816 -0.2281
 7940TIP3    H145311   4.912   5.313  15.543 -0.1391  1.8272  0.4765
 7940TIP3    H245312   5.006   5.291  15.660 -0.1362  0.6438  0.2542
 7941TIP3   OH245313   3.170   3.937  13.214  0.0891  0.1806 -0.2896
 7941TIP3    H145314   3.082   3.944  13.177 -0.7044 -0.2226  1.4372
 7941TIP3    H245315   3.204   3.853  13.182 -0.1169  0.3847 -1.0402
 7942TIP3   OH245316   3.573   4.244  16.683 -0.1383  0.5150  0.2473
 7942TIP3    H145317   3.653   4.235  16.631 -1.4800  0.7008 -1.8800
 7942TIP3    H245318   3.597   4.209  16.769  2.0294 -0.0728 -0.5631
 7943TIP3   OH245319   0.371   6.147   3.843 -0.0023 -0.3748  0.6400
 7943TIP3    H145320   0.414   6.176   3.763  1.3057 -0.2841  1.3463
 7943TIP3    H245321   0.278   6.150   3.824  0.1794  2.3618  0.0623
 7944TIP3   OH245322   0.875   0.173   0.998 -0.6136 -0.5452 -0.3128
 7944TIP3    H145323   0.892   0.136   1.084 -2.0127 -0.1572  0.1345
 7944TIP3    H245324   0.834   0.102   0.949 -0.8025 -0.4338 -0.3171
 7945TIP3   OH245325   3.756   1.404  13.804  0.7494  0.4432  0.0278
 7945TIP3    H145326   3.812   1.409  13.881  2.6057  0.6851 -1.3037
 7945TIP3    H245327   3.667   1.398  13.839  1.4775  1.7162  2.1744
 7946TIP3   OH245328   2.232   1.716  17.222  0.0666  0.2269 -0.6176
 7946TIP3    H145329   2.287   1.719  17.300  0.7036  2.4274 -1.1423
 7946TIP3    H245330   2.150   1.676  17.252  1.6416 -2.4053  0.3131
 7947TIP3   OH245331   1.507   5.452   3.276  0.0217  0.1607 -0.9091
 7947TIP3    H145332   1.543   5.424   3.192  1.1883  0.7805 -0.6275
 7947TIP3    H245333   1.497   5.370   3.326 -0.3071 -0.1642 -1.5036
 7948TIP3   OH245334   5.467   0.436   0.041 -0.0735  0.3180  0.3835
 7948TIP3    H145335   5.426   0.388  -0.031  0.4919  2.2448 -1.2698
 7948TIP3    H245336   5.433   0.525   0.032  0.6621  0.7690  2.0016
 7949TIP3   OH245337   0.655   2.637   4.058  0.6076  0.7305 -0.0018
 7949TIP3    H145338   0.670   2.559   4.005 -0.1059  0.6435 -0.0830
 7949TIP3    H245339   0.589   2.611   4.121  1.5976  0.7765  1.0765
 7950TIP3   OH245340   2.463   5.754   2.570 -0.2787 -0.2453 -0.3496
 7950TIP3    H145341   2.547   5.750   2.525  0.3888  0.5290  0.8022
 7950TIP3    H245342   2.441   5.847   2.574 -1.6222 -0.4939 -1.3976
 7951TIP3   OH245343   1.729   4.841   4.501  0.2582  0.1554  0.1869
 7951TIP3    H145344   1.771   4.866   4.583  0.2961  0.6798  0.0089
 7951TIP3    H245345   1.678   4.918   4.476  1.4068  0.5479 -1.0324
 7952TIP3   OH245346   2.138   5.347   0.637  0.4793 -0.1268 -0.7993
 7952TIP3    H145347   2.135   5.441   0.653  0.9428 -0.0500 -1.1573
 7952TIP3    H245348   2.094   5.336   0.552 -1.8880 -0.5179  0.4334
 7953TIP3   OH245349   0.410   1.379  16.415 -0.4669  0.0112 -0.6668
 7953TIP3    H145350   0.423   1.407  16.325 -0.5858 -0.7616 -0.9308
 7953TIP3    H245351   0.315   1.380  16.427 -0.4603 -0.0586 -0.6076
 7954TIP3   OH245352   4.029   4.910  14.781 -0.0627  0.1704 -0.0112
 7954TIP3    H145353   4.054   4.999  14.808 -0.3124 -0.1683  1.3801
 7954TIP3    H245354   4.113   4.866  14.764  0.0257  0.9360 -1.5753
 7955TIP3   OH245355   1.387   3.028  14.695  0.3324  0.3467  0.2047
 7955TIP3    H145356   1.417   2.981  14.773  1.2818  1.7820  0.7326
 7955TIP3    H245357   1.460   3.022  14.634 -0.5638 -1.1243 -0.7645
 7956TIP3   OH245358   4.136   1.932  16.687  0.2050 -0.8562  0.1112
 7956TIP3    H145359   4.188   1.867  16.640  1.9328 -0.2853  1.2013
 7956TIP3    H245360   4.095   1.883  16.758  0.6307 -0.9801  0.2759
 7957TIP3   OH245361   3.641   6.531   0.413  0.1570  0.7053 -0.3688
 7957TIP3    H145362   3.722   6.480   0.409 -0.1988  0.1027 -0.0225
 7957TIP3    H245363   3.641   6.569   0.501 -0.5676 -0.3662  0.1081
 7958TIP3   OH245364   0.622   0.990  17.161  0.2270 -0.1211 -0.0237
 7958TIP3    H145365   0.539   0.999  17.114 -0.4218 -1.1241  0.9022
 7958TIP3    H245366   0.686   0.972  17.092 -0.2658  0.9311 -0.7670
 7959TIP3   OH245367   4.873   3.471  12.399  0.2375  0.2738 -0.1303
 7959TIP3    H145368   4.875   3.552  12.451  0.0511 -0.3992  0.9452
 7959TIP3    H245369   4.782   3.466  12.367 -0.8545 -1.4517  2.9893
 7960TIP3   OH245370   6.098   2.835  13.255 -0.1695 -0.1352 -0.2267
 7960TIP3    H145371   6.172   2.896  13.245 -0.9643  0.6504 -1.4744
 7960TIP3    H245372   6.046   2.872  13.327  0.5413 -0.5867  0.5276
 7961TIP3   OH245373   4.748   4.646  10.526 -0.1275  0.3928  0.1318
 7961TIP3    H145374   4.828   4.687  10.559  0.4947 -1.8932  1.6481
 7961TIP3    H245375   4.776   4.558  10.499 -1.8043  0.1608 -0.9306
 7962TIP3   OH245376   3.488   5.017   0.621 -0.4104  0.4463  0.0466
 7962TIP3    H145377   3.500   5.107   0.592  1.2026  0.2992  0.2443
 7962TIP3    H245378   3.428   5.024   0.696 -1.3274  1.2127 -0.7432
 7963TIP3   OH245379   3.278   1.302   1.657  0.2949 -0.2826  0.0920
 7963TIP3    H145380   3.189   1.270   1.641  1.3076 -2.3715 -1.5166
 7963TIP3    H245381   3.318   1.235   1.712  0.8457  0.7365  0.9515
 7964TIP3   OH245382   4.310   4.400   3.458  0.7738 -0.3322 -0.3532
 7964TIP3    H145383   4.348   4.329   3.406  0.3989 -0.7081 -0.1215
 7964TIP3    H245384   4.217   4.399   3.435  0.7936  0.1993 -0.4780
 7965TIP3   OH245385   6.390   1.863  17.238 -0.4602  0.1677  0.5098
 7965TIP3    H145386   6.451   1.929  17.272 -0.5225  0.7564 -0.4836
 7965TIP3    H245387   6.447   1.796  17.199 -0.4187  0.3282  0.2889
 7966TIP3   OH245388   1.013   2.907  15.547 -0.3186  0.2293 -0.3593
 7966TIP3    H145389   0.936   2.963  15.544  0.8419  1.8917 -0.1297
 7966TIP3    H245390   1.055   2.918  15.462  0.7804  0.9959  0.2614
 7967TIP3   OH245391   3.250   2.472   5.716 -0.0330  0.0147  0.0827
 7967TIP3    H145392   3.237   2.451   5.809  0.3959 -0.7597 -0.0311
 7967TIP3    H245393   3.176   2.527   5.694 -0.5306 -0.3953  0.7021
 7968TIP3   OH245394   6.038   6.134  12.051 -0.3243 -0.3992  0.4640
 7968TIP3    H145395   5.998   6.186  12.121 -0.5786 -0.1316  0.1174
 7968TIP3    H245396   5.975   6.137  11.979  0.2117 -0.1611 -0.0045
 7969TIP3   OH245397   5.966   2.589  17.028 -0.2371 -0.2013  0.8624
 7969TIP3    H145398   6.052   2.593  17.071 -0.2529 -1.3597  1.0096
 7969TIP3    H245399   5.925   2.510  17.063 -1.9200  1.0443  1.7866
 7970TIP3   OH245400   5.049   6.298  16.256  0.4250  0.7465  0.1911
 7970TIP3    H145401   5.048   6.236  16.330 -2.8480 -0.3782 -0.6986
 7970TIP3    H245402   4.989   6.367  16.283  0.9418  1.4586 -0.4968
 7971TIP3   OH245403   5.797   1.525   1.232  0.0966  0.6251 -0.3322
 7971TIP3    H145404   5.717   1.473   1.224  0.0611  0.7015 -0.4841
 7971TIP3    H245405   5.779   1.604   1.181 -0.0102  0.9830  0.2600
 7972TIP3   OH245406   6.551   3.535   1.762 -0.3408  0.5647  0.1061
 7972TIP3    H145407   6.460   3.517   1.785 -0.3790 -0.4771 -0.7806
 7972TIP3    H245408   6.555   3.629   1.749 -1.3108  0.6094  0.0917
 7973TIP3   OH245409   2.914   6.583  12.094 -0.6713 -0.2685 -0.5355
 7973TIP3    H145410   2.892   6.659  12.040  0.0555 -1.5701 -2.7354
 7973TIP3    H245411   2.830   6.556  12.133 -1.3133  0.3298 -1.4880
 7974TIP3   OH245412   6.477   6.691   0.277  0.0653  0.1625  0.2543
 7974TIP3    H145413   6.498   6.659   0.190  1.3444 -0.5889  0.8183
 7974TIP3    H245414   6.492   6.785   0.272 -1.1907  0.3196 -0.7029
 7975TIP3   OH245415   5.155   4.598   5.908  0.6299  1.0418  0.2342
 7975TIP3    H145416   5.073   4.555   5.932  1.9221 -0.0639  2.8258
 7975TIP3    H245417   5.137   4.691   5.917 -0.4510  0.8150  0.4195
 7976TIP3   OH245418   6.649   4.117  12.508  0.9879 -0.1546 -0.0911
 7976TIP3    H145419   6.677   4.074  12.428 -1.2827 -0.0080 -1.0026
 7976TIP3    H245420   6.697   4.073  12.578  2.0531 -1.1213 -1.4187
 7977TIP3   OH245421   5.141   5.892  12.233  1.2311  0.1831  0.1463
 7977TIP3    H145422   5.069   5.890  12.296 -0.2571 -1.2508 -1.5515
 7977TIP3    H245423   5.163   5.985  12.225 -0.8431  0.7103  0.2510
 7978TIP3   OH245424   0.103   2.969  13.389 -0.1693 -0.5223  0.4384
 7978TIP3    H145425   0.140   3.054  13.364 -0.7262  0.4271  2.7159
 7978TIP3    H245426   0.022   2.963  13.339  0.4269 -0.2236 -0.5770
 7979TIP3   OH245427   0.776   6.196   2.755  0.2171 -0.2728 -0.1351
 7979TIP3    H145428   0.711   6.262   2.727 -0.2830 -0.8063 -0.2342
 7979TIP3    H245429   0.724   6.128   2.798  0.7655 -0.4763  0.2037
 7980TIP3   OH245430   5.106   2.145   2.851  0.0556 -0.3545 -0.2396
 7980TIP3    H145431   5.152   2.227   2.870 -0.1904 -0.4201  0.6635
 7980TIP3    H245432   5.158   2.078   2.894  0.8488 -0.8168 -1.8737
 7981TIP3   OH245433   5.763   2.643  16.828 -0.7077  0.1782 -0.0004
 7981TIP3    H145434   5.721   2.665  16.911  1.2623 -2.2621  1.7338
 7981TIP3    H245435   5.856   2.637  16.849 -0.0716  0.2479 -2.5759
 7982TIP3   OH245436   1.996   4.705  15.248 -0.0597  0.5473  0.2097
 7982TIP3    H145437   1.941   4.663  15.183 -0.6446  2.0813 -0.2943
 7982TIP3    H245438   2.020   4.634  15.308  1.4666 -1.1462 -2.2835
 7983TIP3   OH245439   3.384   2.184  11.510 -0.3641 -0.3792  0.2389
 7983TIP3    H145440   3.362   2.190  11.603 -0.8912 -0.6495  0.1320
 7983TIP3    H245441   3.308   2.219  11.464  0.6607  1.5464 -0.0430
 7984TIP3   OH245442   4.473   3.616   1.720  0.3167  0.1835  0.3045
 7984TIP3    H145443   4.558   3.658   1.728 -1.2329  3.2972  1.4420
 7984TIP3    H245444   4.465   3.595   1.627  2.1546  0.1881  0.1341
 7985TIP3   OH245445   6.649   1.210   1.373 -0.1097 -0.1140  0.7574
 7985TIP3    H145446   6.685   1.131   1.414  1.5949  0.7462  1.0037
 7985TIP3    H245447   6.577   1.179   1.320  0.6522 -1.8752  0.7067
 7986TIP3   OH245448   4.604   4.143   3.575  0.0258 -0.4361 -0.2796
 7986TIP3    H145449   4.511   4.138   3.597  0.1995 -0.8076  0.3759
 7986TIP3    H245450   4.611   4.223   3.523 -0.1553  1.3082  2.2543
 7987TIP3   OH245451   4.749   4.190  15.346 -0.2545 -0.7269  0.0681
 7987TIP3    H145452   4.734   4.095  15.352 -0.2619 -0.7074  0.3615
 7987TIP3    H245453   4.683   4.228  15.403 -1.3064 -0.4509 -1.3138
 7988TIP3   OH245454   0.313   2.611  12.520 -0.4321  0.4756 -0.5572
 7988TIP3    H145455   0.396   2.578  12.485 -0.9946 -2.0747  0.3921
 7988TIP3    H245456   0.249   2.596  12.450 -0.2793  1.5550 -0.9298
 7989TIP3   OH245457   3.190   2.351  13.604  0.7862  0.2298  0.3024
 7989TIP3    H145458   3.201   2.444  13.623  1.3309  0.5379 -1.4057
 7989TIP3    H245459   3.277   2.313  13.616  0.5074 -0.1060  1.2541
 7990TIP3   OH245460   0.327   0.320   3.639  0.0806  0.1660  0.5392
 7990TIP3    H145461   0.351   0.340   3.729 -0.9051  0.8021  0.6709
 7990TIP3    H245462   0.410   0.319   3.592  0.5228  0.6540  1.3016
 7991TIP3   OH245463   1.454   5.175  16.437 -0.5026  0.2643 -0.3800
 7991TIP3    H145464   1.550   5.172  16.441 -0.5259  0.4881  0.4103
 7991TIP3    H245465   1.427   5.085  16.457 -0.4359 -0.0246 -1.5424
 7992TIP3   OH245466   0.843   4.063  14.171 -0.4102 -0.1946 -0.4620
 7992TIP3    H145467   0.926   4.028  14.202 -1.0397  0.8254  2.5213
 7992TIP3    H245468   0.783   3.989  14.175 -0.5205 -0.0425  0.9890
 7993TIP3   OH245469   6.469   3.262   1.802  0.0316  0.2418 -0.2497
 7993TIP3    H145470   6.436   3.178   1.771 -0.4642  0.2847  0.1566
 7993TIP3    H245471   6.564   3.256   1.792 -0.1037  0.2357 -1.7519
 7994TIP3   OH245472   5.513   2.072   3.080 -0.0578 -0.3258  0.4311
 7994TIP3    H145473   5.591   2.025   3.051 -0.7602 -1.2694  0.0530
 7994TIP3    H245474   5.547   2.143   3.135  1.1748  0.2316 -0.9977
 7995TIP3   OH245475   2.879   3.502   5.349  0.5150 -0.0343 -0.1154
 7995TIP3    H145476   2.949   3.464   5.402 -0.6777 -0.3096  1.3001
 7995TIP3    H245477   2.923   3.534   5.270  2.2467 -0.0875  0.8028
 7996TIP3   OH245478   3.629   5.422  15.190  0.0831  0.1211  0.4992
 7996TIP3    H145479   3.616   5.516  15.178  1.5583  0.2040 -0.5167
 7996TIP3    H245480   3.716   5.405  15.156 -0.1099 -1.6009  0.8245
 7997TIP3   OH245481   4.024   2.085   5.218  0.5063 -0.1265  0.1522
 7997TIP3    H145482   4.068   2.116   5.139  1.0625 -1.1097  0.0717
 7997TIP3    H245483   4.039   2.154   5.282  0.7844  0.2834 -0.3510
 7998TIP3   OH245484   5.158   6.532   4.545  0.3316 -0.0534  0.0032
 7998TIP3    H145485   5.241   6.564   4.582  0.4272 -0.5229  0.2036
 7998TIP3    H245486   5.184   6.487   4.465  0.1468  0.7717 -0.5225
 7999TIP3   OH245487   3.032   1.000  12.993 -0.4027 -0.1930 -0.5746
 7999TIP3    H145488   2.943   1.018  13.023 -0.4151 -0.3406 -0.5254
 7999TIP3    H245489   3.086   1.009  13.072 -0.2733  0.6596 -0.7558
 8000TIP3   OH245490   4.154   5.952   4.113  0.1302 -0.1740 -0.3736
 8000TIP3    H145491   4.135   5.915   4.199  0.5770  0.3449 -0.0487
 8000TIP3    H245492   4.221   6.019   4.129 -0.6888  0.8065 -0.9289
 8001TIP3   OH245493   0.333   3.357  15.235  0.7814 -0.1003 -0.0761
 8001TIP3    H145494   0.357   3.370  15.143  0.9018 -0.9590 -0.1714
 8001TIP3    H245495   0.380   3.278  15.261 -2.4565 -2.2553 -0.4938
 8002TIP3   OH245496   6.011   3.013   4.880  0.2800 -0.0626  0.3674
 8002TIP3    H145497   5.945   3.082   4.877  0.8662  0.6369  2.5648
 8002TIP3    H245498   6.017   2.982   4.790 -2.7103  0.1635  0.0186
 8003TIP3   OH245499   5.562   2.356  13.164  0.2327  0.2588  1.0929
 8003TIP3    H145500   5.649   2.380  13.133 -0.3251 -0.7513 -1.3755
 8003TIP3    H245501   5.544   2.416  13.236  1.5618  2.7840 -0.6393
 8004TIP3   OH245502   4.953   5.578  15.699  0.4411  0.4796  0.2575
 8004TIP3    H145503   5.025   5.631  15.665  0.6820  0.9076  1.4112
 8004TIP3    H245504   4.963   5.493  15.655  2.9583 -0.1866  2.0102
 8005TIP3   OH245505   0.583   5.810   1.421  0.5510 -0.7328  0.0628
 8005TIP3    H145506   0.651   5.776   1.363  0.9493 -2.9939  1.7582
 8005TIP3    H245507   0.619   5.798   1.509 -0.4320  1.7450  0.8475
 8006TIP3   OH245508   4.161   1.074  16.938 -0.5483  0.0704  0.0081
 8006TIP3    H145509   4.239   1.019  16.929 -0.9902 -0.2842 -1.8768
 8006TIP3    H245510   4.145   1.107  16.850 -2.1974  0.6119  0.5013
 8007TIP3   OH245511   2.221   3.593   5.894 -0.3503  0.4333  0.2139
 8007TIP3    H145512   2.237   3.570   5.986  0.6973  1.2752  0.2600
 8007TIP3    H245513   2.305   3.580   5.851 -0.3721  1.7307 -0.2523
 8008TIP3   OH245514   0.268   3.651   3.703 -0.2323 -0.2858 -0.2512
 8008TIP3    H145515   0.342   3.603   3.667 -1.4288 -0.9564 -1.8690
 8008TIP3    H245516   0.277   3.640   3.798  1.4897 -0.7102 -0.4483
 8009TIP3   OH245517   4.469   6.030   1.797 -0.1335 -0.3013 -0.2932
 8009TIP3    H145518   4.428   5.956   1.752 -0.7543 -1.0144  1.3818
 8009TIP3    H245519   4.553   6.042   1.753 -0.7726 -0.9046 -1.6917
 8010TIP3   OH245520   6.697   3.051   6.190  0.4935 -0.5517 -0.6053
 8010TIP3    H145521   6.776   3.084   6.233  0.7166 -0.7889 -0.8248
 8010TIP3    H245522   6.666   2.982   6.248  0.4821 -0.4984 -0.5479
 8011TIP3   OH245523   6.218   1.288  15.706 -0.2426 -0.0005 -0.8721
 8011TIP3    H145524   6.265   1.247  15.779  0.6304  0.8872 -0.9223
 8011TIP3    H245525   6.285   1.298  15.638 -0.3762  1.7287 -0.7658
 8012TIP3   OH245526   6.720   4.464  14.541 -0.2965  0.1760 -0.4327
 8012TIP3    H145527   6.658   4.410  14.491 -0.1349 -0.9136  0.4942
 8012TIP3    H245528   6.716   4.427  14.630  1.3814  0.3625 -0.2652
 8013TIP3   OH245529   4.826   5.510   1.430 -0.4718  0.0509  0.6296
 8013TIP3    H145530   4.799   5.524   1.521 -1.3767 -1.5652  0.6387
 8013TIP3    H245531   4.747   5.526   1.379 -0.4538 -0.8693  0.3030
 8014TIP3   OH245532   1.331   1.933  14.857 -0.5113  0.9316  0.5332
 8014TIP3    H145533   1.279   1.921  14.937  0.6858 -0.9891  1.0410
 8014TIP3    H245534   1.296   1.868  14.796  1.9909 -1.1720  1.2559
 8015TIP3   OH245535   0.832   1.669   1.872  0.2405  0.1514  0.3345
 8015TIP3    H145536   0.822   1.574   1.862 -0.2041 -0.0788  2.5481
 8015TIP3    H245537   0.748   1.706   1.847  0.2684 -0.0921 -0.1078
 8016TIP3   OH245538   0.703   6.814   0.858 -0.2943 -0.9743 -0.2567
 8016TIP3    H145539   0.610   6.831   0.841 -0.4745 -0.6673  0.9537
 8016TIP3    H245540   0.741   6.797   0.772 -1.1529  0.5082 -0.9433
 8017TIP3   OH245541   0.112   3.479  13.622 -0.4185  0.3996 -0.2296
 8017TIP3    H145542   0.151   3.479  13.710 -0.2313  0.8085 -0.3127
 8017TIP3    H245543   0.093   3.387  13.605  2.5308 -0.0902 -1.0978
 8018TIP3   OH245544   4.396   3.031   3.672 -0.7688  0.1001 -0.0157
 8018TIP3    H145545   4.478   2.996   3.707 -1.8291 -1.5032  0.9287
 8018TIP3    H245546   4.404   3.126   3.682  0.2884 -0.1442  1.5809
 8019TIP3   OH245547   1.392   2.534  14.700  0.3285  0.1529  0.5954
 8019TIP3    H145548   1.484   2.532  14.672  0.4594 -0.8595  1.0685
 8019TIP3    H245549   1.388   2.470  14.770 -1.1863 -1.2936 -0.7806
 8020TIP3   OH245550   4.532   0.227  16.959 -0.2689 -0.0037  0.4412
 8020TIP3    H145551   4.534   0.135  16.931 -0.8518  0.5748 -1.5880
 8020TIP3    H245552   4.461   0.231  17.023 -0.1486 -0.9924  0.6505
 8021TIP3   OH245553   5.097   1.186   0.863  0.7184 -0.3477  0.6735
 8021TIP3    H145554   5.110   1.273   0.900 -1.1384  0.5299 -0.6601
 8021TIP3    H245555   5.032   1.145   0.921 -1.5368  0.7075 -1.0695
 8022TIP3   OH245556   0.369   0.630   4.727 -0.1406 -0.4052 -0.3191
 8022TIP3    H145557   0.292   0.610   4.674  0.2465 -2.1592 -0.2342
 8022TIP3    H245558   0.368   0.726   4.734 -3.0955 -0.4543  0.8409
 8023TIP3   OH245559   0.034   1.856   4.552  0.4644  0.0179  0.4579
 8023TIP3    H145560   0.082   1.938   4.565 -0.4270  0.6483 -0.1397
 8023TIP3    H245561  -0.038   1.880   4.494 -0.1934 -1.0576  0.8219
 8024TIP3   OH245562   4.325   5.462  13.338 -0.4536 -0.4279 -0.2459
 8024TIP3    H145563   4.332   5.410  13.257  0.0468 -0.4689 -0.1781
 8024TIP3    H245564   4.275   5.540  13.312  1.2957  0.4438 -1.0426
 8025TIP3   OH245565   5.070   3.413   1.333  0.4688  0.4165 -0.0725
 8025TIP3    H145566   5.003   3.458   1.385 -1.0641 -0.8189 -0.9029
 8025TIP3    H245567   5.153   3.440   1.371 -0.5136  1.8993  1.0702
 8026TIP3   OH245568   5.644   6.118  11.582  0.4164  0.2887  0.4372
 8026TIP3    H145569   5.733   6.120  11.545 -0.2781  1.2949 -1.2349
 8026TIP3    H245570   5.625   6.025  11.594  1.5365  0.0487  0.4219
 8027TIP3   OH245571   2.768   6.021  15.063  0.5282 -0.2972  0.1003
 8027TIP3    H145572   2.808   6.096  15.107 -0.8729  0.8759 -0.5382
 8027TIP3    H245573   2.798   5.945  15.112  0.2392  0.8545  2.1299
 8028TIP3   OH245574   6.457   2.193  12.722  0.0899  0.0763  0.1540
 8028TIP3    H145575   6.442   2.128  12.654 -0.5360  0.1314  0.2444
 8028TIP3    H245576   6.370   2.217  12.754  0.3811 -0.1733  1.1819
 8029TIP3   OH245577   1.713   0.525   2.720  0.0974  0.0521 -0.1299
 8029TIP3    H145578   1.718   0.554   2.812  1.4856 -0.6170  0.0298
 8029TIP3    H245579   1.783   0.575   2.676  1.4692 -1.8530 -0.1733
 8030TIP3   OH245580   4.910   1.465  16.168  0.3001  0.5224 -0.6234
 8030TIP3    H145581   4.942   1.544  16.213 -0.0612  1.4541 -1.9602
 8030TIP3    H245582   4.951   1.469  16.081 -1.0693  0.1645 -1.3029
 8031TIP3   OH245583   6.676   1.136  10.701  0.6843 -0.8576 -0.5762
 8031TIP3    H145584   6.655   1.194  10.629 -1.2731 -0.0930  0.5677
 8031TIP3    H245585   6.694   1.194  10.775 -1.7604 -1.6557  0.7077
 8032TIP3   OH245586   3.821   3.774   0.679  0.0911  0.4496 -0.2241
 8032TIP3    H145587   3.865   3.777   0.764  0.2294  0.1113 -0.2823
 8032TIP3    H245588   3.892   3.764   0.616 -0.0929 -0.5118 -0.2877
 8033TIP3   OH245589   1.843   5.926   1.673 -0.1610  0.1520  0.3235
 8033TIP3    H145590   1.791   5.861   1.720 -0.2956 -0.1981 -0.3169
 8033TIP3    H245591   1.785   5.957   1.603  1.7767 -2.9307 -2.7320
 8034TIP3   OH245592   1.839   1.973  15.662  0.2019  0.2209 -0.8070
 8034TIP3    H145593   1.746   1.953  15.648  0.6151 -2.3076 -0.1043
 8034TIP3    H245594   1.886   1.898  15.624  1.8199 -0.1214  1.7568
 8035TIP3   OH245595   2.712   2.812  11.455  0.4828  0.0857 -0.4911
 8035TIP3    H145596   2.784   2.871  11.480  0.6782 -0.1468 -0.5086
 8035TIP3    H245597   2.679   2.779  11.538  0.8956 -0.4036 -0.5206
 8036TIP3   OH245598   2.841   2.108  14.652  0.0961  0.3271  0.2919
 8036TIP3    H145599   2.767   2.090  14.595  0.1370  0.9862  0.0344
 8036TIP3    H245600   2.817   2.187  14.700  0.7372  0.6840  0.0277
 8037TIP3   OH245601   0.258   5.110  13.378  0.5950 -0.5454 -0.4571
 8037TIP3    H145602   0.295   5.072  13.457  0.8379 -0.3873 -0.4921
 8037TIP3    H245603   0.267   5.205  13.390 -1.4602 -0.4318  0.3357
 8038TIP3   OH245604   4.149   3.908   5.845  0.2316  0.5761  0.0190
 8038TIP3    H145605   4.167   3.948   5.760  0.0249  1.7733  0.5338
 8038TIP3    H245606   4.064   3.943   5.870  0.5212  0.6277  0.9499
 8039TIP3   OH245607   2.182   4.581  12.063 -0.2329  0.3199 -0.4790
 8039TIP3    H145608   2.151   4.567  11.973 -3.6044  2.7235  0.2224
 8039TIP3    H245609   2.182   4.494  12.102 -2.0203 -0.3272 -1.8285
 8040TIP3   OH245610   0.365   2.418  11.357  0.1025 -0.4805  0.3835
 8040TIP3    H145611   0.363   2.462  11.441  0.0719  0.7148 -0.2322
 8040TIP3    H245612   0.277   2.430  11.321  0.7941  1.1404 -0.8677
 8041TIP3   OH245613   0.495   5.891   1.972  0.5080  0.8598 -0.2265
 8041TIP3    H145614   0.564   5.946   2.008 -0.0015  1.0969  0.4055
 8041TIP3    H245615   0.516   5.803   2.002  0.7572  0.8687 -0.3743
 8042TIP3   OH245616   1.469   5.315  15.794 -0.4132 -0.1537  0.1073
 8042TIP3    H145617   1.512   5.314  15.709  0.1095 -0.6915  0.3789
 8042TIP3    H245618   1.520   5.378  15.845 -1.7526  1.4797 -0.5033
 8043TIP3   OH245619   6.274   6.757   1.047  0.1300  0.0724  0.3700
 8043TIP3    H145620   6.248   6.807   1.125 -0.2939  2.8622 -1.4833
 8043TIP3    H245621   6.368   6.742   1.059  0.2428  1.2090  1.0509
 8044TIP3   OH245622   2.251   5.782  10.779  0.4203  0.0802 -1.0179
 8044TIP3    H145623   2.268   5.791  10.685  0.6708  2.3679 -0.7824
 8044TIP3    H245624   2.166   5.824  10.792  0.2415 -0.5233 -0.2775
 8045TIP3   OH245625   1.622   6.542   3.601  0.8596 -0.1230 -0.2430
 8045TIP3    H145626   1.577   6.474   3.551  1.0005 -1.1520  0.9892
 8045TIP3    H245627   1.715   6.521   3.593  0.9292  0.1915 -0.2452
 8046TIP3   OH245628   4.032   0.259  10.804 -0.1012  0.1791  0.8692
 8046TIP3    H145629   3.984   0.325  10.855  0.1231  2.0921 -1.2826
 8046TIP3    H245630   3.997   0.267  10.716  0.0311 -2.5565  0.5246
 8047TIP3   OH245631   2.446   5.303  17.278  0.5298  0.5649  0.2582
 8047TIP3    H145632   2.424   5.388  17.241  2.8711  1.1339  0.0732
 8047TIP3    H245633   2.522   5.320  17.334 -0.8685 -0.8769  2.6717
 8048TIP3   OH245634   1.681   3.927   3.112  0.4337 -0.1832 -0.3063
 8048TIP3    H145635   1.766   3.963   3.086  0.9696  1.1247  2.9676
 8048TIP3    H245636   1.620   3.962   3.047  2.1239  0.4194 -1.6101
 8049TIP3   OH245637   6.040   6.485  16.216 -0.1647  0.4667 -0.5320
 8049TIP3    H145638   5.946   6.502  16.225 -0.1132  2.0197 -2.5038
 8049TIP3    H245639   6.074   6.493  16.305 -2.0040 -0.8721  0.3260
 8050TIP3   OH245640   0.243   3.946   4.340 -0.1437 -0.3029  0.1720
 8050TIP3    H145641   0.238   3.938   4.435 -1.0492 -0.2413  0.1395
 8050TIP3    H245642   0.152   3.941   4.311  0.0003  1.1271 -0.5770
 8051TIP3   OH245643   6.157   0.798   3.382  0.4313 -0.3690  0.0336
 8051TIP3    H145644   6.154   0.703   3.389  1.4243 -0.5843 -2.0188
 8051TIP3    H245645   6.232   0.824   3.436  0.8253 -0.8472 -0.2834
 8052TIP3   OH245646   3.548   4.496  17.028 -0.3970 -0.4126  0.1060
 8052TIP3    H145647   3.522   4.421  17.082 -2.4234  1.1264  1.3179
 8052TIP3    H245648   3.480   4.561  17.043  1.1983  1.5912 -1.1531
 8053TIP3   OH245649   2.140   5.050   3.369 -0.2698  0.0404  0.4867
 8053TIP3    H145650   2.135   4.966   3.324  2.6731  0.0806 -0.0216
 8053TIP3    H245651   2.052   5.064   3.404 -1.5019 -1.9882 -1.6627
 8054TIP3   OH245652   3.731   5.448  13.258  0.4284 -0.0170 -0.3013
 8054TIP3    H145653   3.642   5.478  13.275  0.6795 -0.2737  1.6126
 8054TIP3    H245654   3.782   5.529  13.249  0.0559  0.1303 -1.0621
 8055TIP3   OH245655   1.890   0.649  15.252 -0.2524 -0.0310  0.0765
 8055TIP3    H145656   1.934   0.710  15.311 -0.8430  0.8218 -0.3381
 8055TIP3    H245657   1.840   0.591  15.310  1.5959 -1.1752  0.5556
 8056TIP3   OH245658   4.811   3.698   4.115 -0.5985  0.3871  0.3285
 8056TIP3    H145659   4.858   3.705   4.199  2.5594 -0.5828 -1.2696
 8056TIP3    H245660   4.842   3.774   4.064 -2.9124  1.2788  0.1944
 8057TIP3   OH245661   2.427   0.302   1.789 -0.4804 -0.0750 -0.1067
 8057TIP3    H145662   2.455   0.355   1.714  1.3674 -3.3610 -1.8685
 8057TIP3    H245663   2.509   0.273   1.829 -1.4628 -0.8137  1.4049
 8058TIP3   OH245664   4.014   1.396  12.758 -0.1472  0.2534  0.1345
 8058TIP3    H145665   4.009   1.439  12.843 -0.4546  0.6009 -0.0568
 8058TIP3    H245666   3.955   1.321  12.766  1.0362 -0.6186  0.7429
 8059TIP3   OH245667   3.226   6.007  11.889 -0.0483  0.0328 -0.2575
 8059TIP3    H145668   3.204   5.937  11.827 -0.8749  0.9440 -1.0095
 8059TIP3    H245669   3.200   6.088  11.845  0.7783  0.8195  0.6542
 8060TIP3   OH245670   3.169   6.479  16.728 -0.1828  0.0940 -0.3880
 8060TIP3    H145671   3.159   6.393  16.770  1.0897 -0.0976 -0.4590
 8060TIP3    H245672   3.176   6.459  16.635 -4.1048  0.5941 -0.9029
 8061TIP3   OH245673   0.827   0.693  17.183  0.1578 -0.1468  0.5784
 8061TIP3    H145674   0.808   0.760  17.117 -0.1501  0.7687  1.5897
 8061TIP3    H245675   0.834   0.611  17.133 -2.3098  0.1568 -0.3376
 8062TIP3   OH245676   5.677   4.340  11.409  0.3612 -0.4060 -0.0388
 8062TIP3    H145677   5.646   4.251  11.396  0.4858 -0.5921  0.8773
 8062TIP3    H245678   5.769   4.338  11.383  0.2752 -0.4588 -0.3424
 8063TIP3   OH245679   5.463   0.561  11.258 -0.3608  0.0032 -0.0784
 8063TIP3    H145680   5.440   0.637  11.206 -0.4960 -1.0058 -1.5258
 8063TIP3    H245681   5.539   0.523  11.214 -0.6574 -1.0326  0.2793
 8064TIP3   OH245682   3.658   0.514  16.796  0.1858 -0.0765  0.2779
 8064TIP3    H145683   3.643   0.494  16.888  2.2283  0.2096  0.6998
 8064TIP3    H245684   3.663   0.610  16.793 -0.8557 -0.0357 -0.2959
 8065TIP3   OH245685   5.781   0.975  15.466  0.4564  0.0265 -0.1716
 8065TIP3    H145686   5.842   1.046  15.485  1.3383 -0.7294 -0.1376
 8065TIP3    H245687   5.789   0.916  15.542 -0.5481  0.0809 -0.0212
 8066TIP3   OH245688   2.805   5.388   2.495  0.0473 -0.1271 -0.1286
 8066TIP3    H145689   2.846   5.432   2.420  1.4671 -0.2542  0.5661
 8066TIP3    H245690   2.782   5.302   2.462 -0.1808  0.1412 -0.6843
 8067TIP3   OH245691   4.341   1.522  15.834 -0.3780 -0.7346 -0.4789
 8067TIP3    H145692   4.288   1.520  15.914 -1.1020 -0.0626 -0.9344
 8067TIP3    H245693   4.409   1.587  15.852 -1.1513  0.1726 -0.7768
 8068TIP3   OH245694   6.587   3.516  12.941 -0.0993 -0.2517  0.8823
 8068TIP3    H145695   6.627   3.452  12.882  0.0838  0.3983  0.2977
 8068TIP3    H245696   6.494   3.512  12.921 -0.0910 -0.3402  0.8601
 8069TIP3   OH245697   0.485   3.593   1.252  0.1205 -0.2382 -0.2661
 8069TIP3    H145698   0.440   3.533   1.312  0.4381  1.1734  1.4315
 8069TIP3    H245699   0.437   3.585   1.170 -0.8772 -1.5662  0.4214
 8070TIP3   OH245700   4.292   0.726   0.819  0.2216  0.2748  0.5231
 8070TIP3    H145701   4.357   0.723   0.748 -2.7509  0.0044 -2.2742
 8070TIP3    H245702   4.296   0.638   0.858 -2.3753 -1.7298 -3.3900
 8071TIP3   OH245703   6.430   0.134   2.808  0.1153  0.1813  0.0094
 8071TIP3    H145704   6.516   0.127   2.850  0.8263  0.1676 -1.4175
 8071TIP3    H245705   6.445   0.190   2.732 -0.9527 -0.5513 -0.7533
 8072TIP3   OH245706   3.071   4.201  15.166 -0.0860 -0.3003 -0.0072
 8072TIP3    H145707   3.116   4.175  15.086  0.7848  1.1910 -0.0056
 8072TIP3    H245708   3.126   4.165  15.236 -0.1620 -0.5069 -0.0537
 8073TIP3   OH245709   2.701   0.735  14.691  0.2119 -0.1022 -0.2674
 8073TIP3    H145710   2.669   0.773  14.609 -0.2240  2.0336  0.8843
 8073TIP3    H245711   2.631   0.675  14.718  0.0016 -0.2107 -1.0237
 8074TIP3   OH245712   1.999   0.348  16.358 -0.2188  0.3304 -0.3422
 8074TIP3    H145713   1.924   0.356  16.416  0.3432  0.1307  0.4296
 8074TIP3    H245714   2.011   0.435  16.321 -0.0874  0.6604  0.4734
 8075TIP3   OH245715   3.384   1.831  17.133  0.9731  0.6635  0.1841
 8075TIP3    H145716   3.411   1.922  17.140 -1.5378  1.5203 -0.5914
 8075TIP3    H245717   3.354   1.822  17.043 -1.4057 -0.1325  1.0071
 8076TIP3   OH245718   4.102   0.462  12.046  0.0439 -0.0400  0.4223
 8076TIP3    H145719   4.080   0.539  12.098  1.1704  0.2914  0.4215
 8076TIP3    H245720   4.104   0.390  12.109  2.7021  0.5838  1.1082
 8077TIP3   OH245721   2.758   6.657   1.066  0.0802  0.4256  0.5365
 8077TIP3    H145722   2.680   6.710   1.083  0.0550  1.6178 -2.8538
 8077TIP3    H245723   2.821   6.719   1.029  1.1127 -1.3498 -0.7636
 8078TIP3   OH245724   4.714   4.076   1.197 -0.1702  0.2373 -0.1766
 8078TIP3    H145725   4.692   4.168   1.210 -0.0104  0.2618 -0.0744
 8078TIP3    H245726   4.738   4.070   1.104 -2.2364 -0.1232 -0.7152
 8079TIP3   OH245727   0.679   5.233  11.507  0.6271 -0.2981  0.0194
 8079TIP3    H145728   0.707   5.246  11.417  2.3658  0.8145  0.7071
 8079TIP3    H245729   0.620   5.306  11.524  1.3127  0.2132  0.1968
 8080TIP3   OH245730   6.653   2.554   3.333  0.2705  0.1249  0.4945
 8080TIP3    H145731   6.634   2.642   3.300  2.1379  0.4702  0.3283
 8080TIP3    H245732   6.680   2.505   3.255  0.0680 -0.3592  0.7300
 8081TIP3   OH245733   2.813   6.517   5.599  0.4450 -0.1929  0.2871
 8081TIP3    H145734   2.842   6.445   5.655 -1.1168 -0.6723  0.5060
 8081TIP3    H245735   2.717   6.516   5.605  0.1873 -0.5412 -2.7258
 8082TIP3   OH245736   2.302   5.550  17.151 -0.0344  0.3053 -0.0424
 8082TIP3    H145737   2.320   5.562  17.058 -0.2660 -1.3046 -0.3115
 8082TIP3    H245738   2.361   5.610  17.195  2.2678 -1.1180 -1.1215
 8083TIP3   OH245739   1.271   3.926  14.174 -0.2361 -0.1461  0.2414
 8083TIP3    H145740   1.302   3.848  14.219 -0.2298 -1.7501 -2.4578
 8083TIP3    H245741   1.323   3.931  14.094 -1.3709  1.6919 -0.4270
 8084TIP3   OH245742   6.418   3.859  12.252 -0.6035  0.1671 -0.1740
 8084TIP3    H145743   6.434   3.792  12.318  1.1936  1.5866  0.9077
 8084TIP3    H245744   6.498   3.860  12.199 -0.7277  1.2119 -0.3577
 8085TIP3   OH245745   1.716   3.314   5.855 -0.3094 -1.1946  0.1064
 8085TIP3    H145746   1.621   3.310   5.863 -0.2750 -0.4224  0.8989
 8085TIP3    H245747   1.748   3.307   5.945  0.3744 -1.1139 -0.1310
 8086TIP3   OH245748   2.066   0.082  14.152 -0.2072 -0.3137 -0.3311
 8086TIP3    H145749   1.994   0.055  14.095  0.4824  0.0096 -1.3961
 8086TIP3    H245750   2.107   0.000  14.180 -0.1957 -0.4730 -0.7990
 8087TIP3   OH245751   3.835   3.743  15.418 -0.0685  0.2223  0.0211
 8087TIP3    H145752   3.919   3.722  15.377  0.1284  0.0087  0.5261
 8087TIP3    H245753   3.802   3.818  15.370 -0.3432 -0.6907 -1.2352
 8088TIP3   OH245754   2.729   1.495  14.640 -0.3144 -0.0845 -0.0967
 8088TIP3    H145755   2.770   1.573  14.676 -2.4641  1.3530 -0.6049
 8088TIP3    H245756   2.787   1.423  14.663  1.3520  1.5838  0.9978
 8089TIP3   OH245757   0.787   5.282  15.757  0.3514  0.3291 -0.5212
 8089TIP3    H145758   0.866   5.237  15.789  0.3696  0.0974 -0.8829
 8089TIP3    H245759   0.770   5.242  15.671  1.4099  2.2869 -1.6753
 8090TIP3   OH245760   6.533   6.489  13.829 -0.0726  0.1903 -0.4529
 8090TIP3    H145761   6.610   6.498  13.885 -0.3061 -0.9801  0.0649
 8090TIP3    H245762   6.555   6.538  13.749  0.3780  1.6215  0.5268
 8091TIP3   OH245763   2.100   3.440   2.895 -0.0103 -0.4417 -0.6798
 8091TIP3    H145764   2.141   3.430   2.809  0.8149 -0.1339 -0.3251
 8091TIP3    H245765   2.073   3.532   2.898  3.6245  0.6544  0.9747
 8092TIP3   OH245766   3.044   2.875   6.173  0.0938 -0.1717 -0.1833
 8092TIP3    H145767   3.082   2.788   6.185 -0.9487 -0.4642  1.1354
 8092TIP3    H245768   3.067   2.922   6.253 -2.3747 -0.3964  0.7065
 8093TIP3   OH245769   4.714   3.432  13.958 -0.2248  0.0233 -0.3810
 8093TIP3    H145770   4.745   3.476  13.878  1.4528 -0.5465 -0.0734
 8093TIP3    H245771   4.652   3.366  13.927 -0.6683  0.7766 -1.0915
 8094TIP3   OH245772   0.762   2.787  15.173  0.1909  0.5379 -0.3818
 8094TIP3    H145773   0.778   2.693  15.172  1.7452  0.7505  0.9797
 8094TIP3    H245774   0.668   2.796  15.188  0.0090 -0.7986 -0.6886
 8095TIP3   OH245775   1.757   5.395  13.617 -1.0939 -0.3404  0.0119
 8095TIP3    H145776   1.795   5.425  13.699  1.2006  0.4392 -1.2831
 8095TIP3    H245777   1.709   5.470  13.583 -3.0151 -1.0173  1.1655
 8096TIP3   OH245778   1.735   2.777   3.969  0.5303 -0.2370 -0.1738
 8096TIP3    H145779   1.765   2.727   3.892  1.3624  0.3090 -0.2090
 8096TIP3    H245780   1.652   2.816   3.942  0.4368 -0.6802 -0.5331
 8097TIP3   OH245781   0.615   1.702  14.528 -0.2486  0.7174 -0.4895
 8097TIP3    H145782   0.677   1.765  14.491  0.5975 -0.2523 -0.7552
 8097TIP3    H245783   0.661   1.619  14.524 -1.0710  0.2072  0.5601
 8098TIP3   OH245784   0.657   2.373  11.467 -0.1524 -0.0225  0.3938
 8098TIP3    H145785   0.700   2.352  11.550  0.9594  3.0562  0.6527
 8098TIP3    H245786   0.697   2.455  11.439 -1.3535 -0.3955 -2.6194
 8099TIP3   OH245787   5.034   5.108   5.546  0.0798 -0.0788 -0.7330
 8099TIP3    H145788   5.047   5.107   5.641 -0.2297 -1.3705 -0.6889
 8099TIP3    H245789   4.940   5.123   5.534 -0.2583 -2.1084 -0.7680
 8100TIP3   OH245790   0.532   6.655  13.621 -0.4490  0.2482  0.0796
 8100TIP3    H145791   0.535   6.751  13.626 -0.0676  0.3214 -1.2042
 8100TIP3    H245792   0.505   6.637  13.531 -0.1038 -0.8604  0.1912
 8101TIP3   OH245793   4.407   2.236  14.410 -0.0839  0.0005 -0.8024
 8101TIP3    H145794   4.453   2.201  14.334 -1.4500 -1.5130 -0.9592
 8101TIP3    H245795   4.333   2.176  14.423  0.5637 -0.2154  2.1854
 8102TIP3   OH245796   3.251   4.036  10.623  0.3541  0.0609 -0.7660
 8102TIP3    H145797   3.229   3.997  10.708 -1.2884  0.0521 -1.1664
 8102TIP3    H245798   3.299   4.115  10.645 -1.0182  0.6513  0.2243
 8103TIP3   OH245799   2.643   2.398   0.603 -0.8496  0.0784 -0.0302
 8103TIP3    H145800   2.643   2.410   0.698  3.3865  1.3128 -0.0873
 8103TIP3    H245801   2.671   2.308   0.590 -0.8978  0.0759 -0.1188
 8104TIP3   OH245802   3.683   2.192  16.101 -0.1549 -0.0973  0.4488
 8104TIP3    H145803   3.594   2.224  16.120  0.3045  2.3538 -1.3031
 8104TIP3    H245804   3.735   2.222  16.175 -0.7882 -1.6490  1.5450
 8105TIP3   OH245805   1.624   5.028   6.600  0.3314 -0.1100 -0.1984
 8105TIP3    H145806   1.705   5.069   6.628 -0.8804  2.1041  0.1983
 8105TIP3    H245807   1.624   4.943   6.642  0.9384  1.1395  2.4211
 8106TIP3   OH245808   1.917   2.241   1.646 -0.2511  0.5527 -0.5522
 8106TIP3    H145809   1.843   2.203   1.695  1.0644  0.1344  1.1485
 8106TIP3    H245810   1.945   2.170   1.588  0.7932 -0.3968  1.0563
 8107TIP3   OH245811   0.139   3.189  12.253 -0.6162  0.1220  0.0809
 8107TIP3    H145812   0.154   3.144  12.336 -0.6292  0.0128  0.0250
 8107TIP3    H245813   0.045   3.176  12.236 -0.1523 -1.9311 -1.1262
 8108TIP3   OH245814   0.376   1.405  15.848  0.3058 -0.1534  0.1579
 8108TIP3    H145815   0.454   1.368  15.891 -0.3056 -0.5741  0.9200
 8108TIP3    H245816   0.393   1.395  15.755  0.0844 -2.5057  0.3500
 8109TIP3   OH245817   6.588   1.929  14.622 -0.1146  0.2686  0.1471
 8109TIP3    H145818   6.545   1.916  14.537  0.1690 -3.3083  0.4563
 8109TIP3    H245819   6.552   2.011  14.656 -3.4496 -0.4483 -1.5055
 8110TIP3   OH245820   4.174   1.390  10.336  0.1074  0.0074 -0.4549
 8110TIP3    H145821   4.095   1.431  10.372 -0.1480 -0.4521 -0.4911
 8110TIP3    H245822   4.244   1.417  10.396 -0.1673 -0.0243 -0.1202
 8111TIP3   OH245823   1.786   2.307   0.021 -0.1072 -0.2419 -0.0231
 8111TIP3    H145824   1.852   2.374   0.038  1.7302 -1.9326 -0.4232
 8111TIP3    H245825   1.765   2.318  -0.072 -0.0415 -0.0278 -0.0155
 8112TIP3   OH245826   1.379   5.063  11.968 -0.4041 -0.3156  0.2260
 8112TIP3    H145827   1.418   5.079  12.054 -0.1350  1.9129 -0.2682
 8112TIP3    H245828   1.437   5.107  11.906  0.2159 -3.1307 -1.2872
 8113TIP3   OH245829   6.677   5.463   5.058  0.0072 -0.2319  0.5624
 8113TIP3    H145830   6.721   5.403   4.998  0.0301  1.5542 -1.2424
 8113TIP3    H245831   6.584   5.442   5.049  0.0767 -0.5580  0.5757
 8114TIP3   OH245832   4.828   0.849   2.863  0.4192 -0.2970 -0.1183
 8114TIP3    H145833   4.914   0.890   2.862  0.5445 -0.5568  0.0138
 8114TIP3    H245834   4.771   0.912   2.907 -0.0250  1.0168 -2.4459
 8115TIP3   OH245835   1.561   4.145  12.939 -0.0802  0.1367 -0.0458
 8115TIP3    H145836   1.614   4.160  12.861  1.2272 -1.6014  0.4841
 8115TIP3    H245837   1.491   4.210  12.933  0.0813  0.1184 -2.5828
 8116TIP3   OH245838   5.594   2.133  10.701  0.0888  0.5615 -0.4784
 8116TIP3    H145839   5.642   2.051  10.707 -0.6781  0.1332 -0.0616
 8116TIP3    H245840   5.646   2.197  10.749 -1.0414 -0.4946  2.2571
 8117TIP3   OH245841   5.185   0.539   1.433 -0.6330 -0.2529 -0.1563
 8117TIP3    H145842   5.226   0.557   1.349 -1.2320 -0.4181 -0.4873
 8117TIP3    H245843   5.238   0.469   1.471 -0.4843 -0.3204 -0.4855
 8118TIP3   OH245844   0.966   2.821   3.348  0.0564  0.5721 -0.0708
 8118TIP3    H145845   0.992   2.737   3.387  0.6441  0.0859 -1.4791
 8118TIP3    H245846   1.041   2.846   3.294 -1.6098  0.1173 -2.6489
 8119TIP3   OH245847   6.252   2.838  15.020  0.2553  0.0573 -0.0704
 8119TIP3    H145848   6.280   2.929  15.009  0.2831  0.4364  2.7146
 8119TIP3    H245849   6.157   2.842  15.021  0.2600  0.0685  0.2187
 8120TIP3   OH245850   3.620   2.798   4.477  0.1471 -0.0305 -0.1559
 8120TIP3    H145851   3.669   2.855   4.419  1.8516 -1.1437  0.1437
 8120TIP3    H245852   3.538   2.844   4.493  0.5213  1.2390 -1.7617
 8121TIP3   OH245853   2.021   4.166   1.587  0.2557  0.1019  1.1910
 8121TIP3    H145854   1.946   4.219   1.614 -0.0712  0.3345 -0.1428
 8121TIP3    H245855   1.983   4.083   1.558  0.1650  1.3044 -2.4055
 8122TIP3   OH245856   4.429   2.455   0.398 -0.3336 -0.1498  0.2766
 8122TIP3    H145857   4.401   2.389   0.461  0.2429  0.0418  0.7486
 8122TIP3    H245858   4.457   2.529   0.452 -0.1190  0.1315 -0.2137
 8123TIP3   OH245859   0.737   3.545   2.370 -0.3738  0.0283 -0.2466
 8123TIP3    H145860   0.691   3.530   2.452 -1.5294 -2.3204 -1.3009
 8123TIP3    H245861   0.668   3.552   2.304  0.6425 -0.4624 -1.3821
 8124TIP3   OH245862   5.993   6.185  15.261 -0.2132  0.3837 -0.5470
 8124TIP3    H145863   6.023   6.206  15.173 -0.8231 -1.1967 -1.1535
 8124TIP3    H245864   5.909   6.231  15.270  0.5347  1.7356 -0.2260
 8125TIP3   OH245865   3.203   1.511   2.728 -0.0962  0.0836 -0.0587
 8125TIP3    H145866   3.181   1.587   2.674 -1.0240 -0.0363  0.1380
 8125TIP3    H245867   3.120   1.465   2.739  0.1296 -0.0031  1.3040
 8126TIP3   OH245868   2.831   0.575  11.111  0.4409 -0.3583  0.2997
 8126TIP3    H145869   2.812   0.660  11.151 -0.4431 -0.8703  1.0072
 8126TIP3    H245870   2.754   0.556  11.057  0.3979 -0.9258  0.5483
 8127TIP3   OH245871   5.717   6.564  17.017  0.1036 -0.3839  0.7255
 8127TIP3    H145872   5.714   6.594  17.108  1.3172 -1.8684  1.2741
 8127TIP3    H245873   5.810   6.552  16.999 -0.0935  0.4554 -0.9089
 8128TIP3   OH245874   5.063   1.530   3.669 -0.4633  0.0822 -0.1530
 8128TIP3    H145875   5.021   1.469   3.731 -0.3200  0.5690  0.4312
 8128TIP3    H245876   4.990   1.579   3.632 -0.6665 -1.0746 -1.3209
 8129TIP3   OH245877   5.257   3.986   6.081  0.1250  0.2668  0.1507
 8129TIP3    H145878   5.234   3.896   6.104  0.5215  0.1909  0.2472
 8129TIP3    H245879   5.252   4.034   6.164  2.4442 -0.1883  0.5904
 8130TIP3   OH245880   3.779   4.981   3.720 -0.5249  0.0104  0.0928
 8130TIP3    H145881   3.843   5.048   3.744 -0.4919 -0.0659  0.2178
 8130TIP3    H245882   3.694   5.022   3.736 -0.5054 -0.6235  1.9918
 8131TIP3   OH245883   1.881   3.847   5.889 -0.2607 -0.5643 -0.1703
 8131TIP3    H145884   1.935   3.834   5.966 -1.0988 -1.4244  0.2903
 8131TIP3    H245885   1.840   3.761   5.873  2.7359 -1.4687 -3.7911
 8132TIP3   OH245886   4.312   5.377  15.315 -0.0905 -0.0317 -0.2140
 8132TIP3    H145887   4.238   5.379  15.255 -0.2861  1.0898  0.0458
 8132TIP3    H245888   4.345   5.287  15.311  0.1338  0.1158 -2.2810
 8133TIP3   OH245889   2.859   5.871  14.088  0.1294 -0.4080 -0.5907
 8133TIP3    H145890   2.853   5.942  14.151 -1.6419  0.3683 -1.5786
 8133TIP3    H245891   2.852   5.791  14.140  3.3725  0.0633  0.6694
 8134TIP3   OH245892   1.051   3.172   0.113 -0.1164 -0.3164  0.7785
 8134TIP3    H145893   1.086   3.114   0.181 -1.9106 -0.9137  1.2137
 8134TIP3    H245894   1.085   3.135   0.031 -0.0056 -1.0830  1.1619
 8135TIP3   OH245895   0.028   6.163   0.404 -0.6835  0.3289 -0.1669
 8135TIP3    H145896   0.033   6.078   0.449 -0.5351  0.6924  0.5033
 8135TIP3    H245897  -0.029   6.147   0.329 -0.8075 -0.3197  0.0639
 8136TIP3   OH245898   4.279   2.926   5.158 -0.1862 -0.1231  0.2199
 8136TIP3    H145899   4.296   2.884   5.242 -1.0943 -1.9189 -0.4658
 8136TIP3    H245900   4.268   2.853   5.096 -1.7111  1.1209 -1.0252
 8137TIP3   OH245901   3.600   6.321  17.196 -0.1103  0.3546  0.3731
 8137TIP3    H145902   3.680   6.355  17.236 -0.5027  1.7146  0.0199
 8137TIP3    H245903   3.620   6.229  17.178  1.2441  0.5831  0.6198
 8138TIP3   OH245904   6.198   4.664  12.730  0.1486 -0.4703 -0.0584
 8138TIP3    H145905   6.207   4.658  12.635 -1.1405 -1.4811 -0.1356
 8138TIP3    H245906   6.137   4.736  12.744 -0.3924 -0.9300 -0.0438
 8139TIP3   OH245907   2.873   6.019  10.714  0.4509 -0.1382 -0.2333
 8139TIP3    H145908   2.840   6.100  10.754 -0.2340 -1.1728  1.3300
 8139TIP3    H245909   2.873   6.038  10.620 -0.3110  1.4661  0.0597
 8140TIP3   OH245910   0.540   6.805  15.067  0.7499  0.1383 -0.6430
 8140TIP3    H145911   0.531   6.841  14.978  2.5598  0.3685 -0.7646
 8140TIP3    H245912   0.632   6.819  15.089  0.8638 -1.9562  0.3905
 8141TIP3   OH245913   1.794   2.498  10.858  0.3332  0.1822  0.5734
 8141TIP3    H145914   1.710   2.507  10.814 -0.2889 -1.7960  1.3204
 8141TIP3    H245915   1.784   2.546  10.941  0.4636  1.2252 -0.0044
 8142TIP3   OH245916   6.643   5.794   5.293  0.4060 -0.2769  0.0553
 8142TIP3    H145917   6.557   5.780   5.333  1.9831 -2.8349  2.7342
 8142TIP3    H245918   6.698   5.826   5.364  1.7281  1.2805 -1.6174
 8143TIP3   OH245919   2.198   0.692   4.380 -0.5819 -0.1498 -0.4544
 8143TIP3    H145920   2.212   0.700   4.286  0.3108  0.2083 -0.2950
 8143TIP3    H245921   2.237   0.771   4.417 -0.6713 -0.4265  0.2404
 8144TIP3   OH245922   6.618   5.968   4.625 -0.5173  0.0036 -0.0879
 8144TIP3    H145923   6.548   5.985   4.561  0.3065 -2.4760 -1.6963
 8144TIP3    H245924   6.589   5.891   4.673  0.4521 -0.1706  0.2246
 8145TIP3   OH245925   5.144   4.413  17.289 -0.1045  0.0912  0.7944
 8145TIP3    H145926   5.130   4.371  17.374 -2.0637  0.1105  0.5099
 8145TIP3    H245927   5.077   4.482  17.286  0.2311  0.3612 -0.5826
 8146TIP3   OH245928   6.210   0.177  14.598 -0.5823 -0.3208 -0.7444
 8146TIP3    H145929   6.172   0.262  14.577 -0.0124 -0.4135 -2.2313
 8146TIP3    H245930   6.191   0.164  14.690 -0.5082  1.5093 -0.4511
 8147TIP3   OH245931   1.725   6.363  11.308 -0.3045  0.3814 -0.6252
 8147TIP3    H145932   1.785   6.427  11.348 -0.8147 -0.9851  2.5248
 8147TIP3    H245933   1.781   6.287  11.290 -0.5229  0.1278 -0.2552
 8148TIP3   OH245934   4.703   0.013   6.675 -0.1611 -0.3540  0.3246
 8148TIP3    H145935   4.631  -0.049   6.688 -0.7566 -0.7018 -4.1175
 8148TIP3    H245936   4.781  -0.041   6.666 -0.2635 -0.3147 -0.8163
 8149TIP3   OH245937   5.115   1.176  11.986 -0.2133  0.3694 -0.7203
 8149TIP3    H145938   5.032   1.157  11.943 -0.1422 -0.1046 -0.6489
 8149TIP3    H245939   5.160   1.235  11.926 -0.4502  0.3440 -0.9240
 8150TIP3   OH245940   0.192   4.433   2.437 -0.0430 -0.2085 -1.0782
 8150TIP3    H145941   0.260   4.493   2.466 -1.0094  0.9468 -1.1277
 8150TIP3    H245942   0.237   4.370   2.380  1.0619  0.1970 -0.6561
 8151TIP3   OH245943   3.809   6.762  15.349 -0.3161  0.4848  0.1921
 8151TIP3    H145944   3.841   6.794  15.433 -1.0061  1.8767 -0.0593
 8151TIP3    H245945   3.715   6.779  15.352 -0.4517 -0.1474 -0.5615
 8152TIP3   OH245946   1.261   0.478  12.160  0.0808  0.3398 -0.0185
 8152TIP3    H145947   1.219   0.461  12.076 -1.1719  2.6680  0.0865
 8152TIP3    H245948   1.234   0.567  12.182 -1.1883 -0.9048  3.7711
 8153TIP3   OH245949   5.000   2.236   6.542 -0.7956 -0.2933 -0.5495
 8153TIP3    H145950   5.053   2.309   6.511 -0.2839 -0.6057 -0.4103
 8153TIP3    H245951   4.910   2.269   6.538 -0.4141  1.1205  1.5568
 8154TIP3   OH245952   1.990   3.133  14.583  0.5370  0.3019  0.0904
 8154TIP3    H145953   2.064   3.143  14.523  0.0854 -0.1399 -0.5458
 8154TIP3    H245954   2.030   3.123  14.670  1.2196  0.0528 -0.2555
 8155TIP3   OH245955   4.709   2.613  11.981 -0.1591  0.0072 -0.2954
 8155TIP3    H145956   4.763   2.534  11.978  0.3635  0.4079 -1.4392
 8155TIP3    H245957   4.750   2.667  12.048 -0.2610 -0.4991  0.1790
 8156TIP3   OH245958   5.256   0.348  11.230 -0.3419 -0.0014 -0.1389
 8156TIP3    H145959   5.324   0.404  11.266 -0.5863  1.1902 -1.4785
 8156TIP3    H245960   5.284   0.330  11.140 -1.3333 -0.2372 -0.4126
 8157TIP3   OH245961   3.010   0.557   5.473 -0.1183 -0.0561  0.0574
 8157TIP3    H145962   3.070   0.618   5.516 -0.5657 -0.5340  1.3726
 8157TIP3    H245963   2.923   0.593   5.490 -0.2807  0.0495 -0.9282
 8158TIP3   OH245964   2.626   2.888  15.916  0.0213 -0.1375 -0.6447
 8158TIP3    H145965   2.560   2.820  15.902  1.4870 -1.7050 -0.0954
 8158TIP3    H245966   2.709   2.847  15.889  1.2033  0.7151  1.5463
 8159TIP3   OH245967   2.155   0.287   1.450  0.2914 -0.1743 -0.2160
 8159TIP3    H145968   2.162   0.296   1.545 -0.6660  3.1138 -0.3890
 8159TIP3    H245969   2.061   0.292   1.433  0.5261  0.2543 -1.4095
 8160TIP3   OH245970   5.640   5.688  12.986  0.0817 -0.3752  0.4901
 8160TIP3    H145971   5.710   5.722  12.929 -1.1850  0.4248 -0.6330
 8160TIP3    H245972   5.633   5.753  13.056 -0.0976 -0.0096  0.1408
 8161TIP3   OH245973   6.647   5.373  16.150  0.0428 -0.3712 -0.3358
 8161TIP3    H145974   6.585   5.396  16.220  0.9011 -0.1100  0.3523
 8161TIP3    H245975   6.596   5.321  16.089 -1.1206  0.6946 -0.2873
 8162TIP3   OH245976   6.182   6.028   1.847 -0.5752  0.6526  0.2917
 8162TIP3    H145977   6.102   6.079   1.840 -1.2302 -0.0429  2.4883
 8162TIP3    H245978   6.221   6.033   1.759 -3.9214 -0.5324 -1.3553
 8163TIP3   OH245979   4.486   4.756  16.733  0.6339 -0.2135  0.2150
 8163TIP3    H145980   4.523   4.668  16.737  1.6533  0.1845 -0.3912
 8163TIP3    H245981   4.558   4.813  16.757  0.1857  0.5113 -0.1600
 8164TIP3   OH245982   4.593   4.915  13.951  0.0748 -0.2970  0.4198
 8164TIP3    H145983   4.616   5.005  13.930 -1.2809  0.3122  1.4596
 8164TIP3    H245984   4.675   4.866  13.942  0.5108  0.7486 -1.6288
 8165TIP3   OH245985   1.432   0.911  16.560  0.0141  0.4406 -0.2003
 8165TIP3    H145986   1.468   0.974  16.623  0.2482  0.2524 -0.1423
 8165TIP3    H245987   1.504   0.896  16.498  0.6505 -1.2725  0.9165
 8166TIP3   OH245988   2.188   4.281  15.667 -0.0212 -0.0317  0.0154
 8166TIP3    H145989   2.180   4.319  15.754 -0.8292 -1.9236  0.7813
 8166TIP3    H245990   2.156   4.349  15.608 -0.7125  0.7691  1.2989
 8167TIP3   OH245991   1.264   5.981  11.578 -0.1928 -0.2447  0.3688
 8167TIP3    H145992   1.233   6.071  11.567  0.1606 -0.1146  0.4314
 8167TIP3    H245993   1.223   5.951  11.660 -1.7147 -0.7424 -0.5439
 8168TIP3   OH245994   1.466   2.095   4.512 -0.2300  0.6351  0.3136
 8168TIP3    H145995   1.467   2.191   4.520  0.3917  0.5946  0.7844
 8168TIP3    H245996   1.425   2.079   4.427  0.9297  1.3676 -0.3985
 8169TIP3   OH245997   0.390   1.117  14.670 -0.0604  0.9568  0.3695
 8169TIP3    H145998   0.479   1.082  14.669 -0.0787  0.9303 -0.9971
 8169TIP3    H245999   0.341   1.056  14.727  0.4537  0.1294 -0.0662
 8170TIP3   OH246000   4.343   4.656  15.682  0.0515  0.0984 -0.3648
 8170TIP3    H146001   4.247   4.653  15.673  0.1303 -3.1519 -0.8520
 8170TIP3    H246002   4.360   4.614  15.765  1.1178 -0.0876 -0.6803
 8171TIP3   OH246003   6.282   5.592   2.222  0.2139  0.4824 -0.1585
 8171TIP3    H146004   6.200   5.542   2.227 -0.2291  0.8808 -2.7267
 8171TIP3    H246005   6.264   5.674   2.269 -0.1922 -0.2608  1.0015
 8172TIP3   OH246006   1.067   4.827   0.117  0.3134 -0.0549  0.0114
 8172TIP3    H146007   1.071   4.922   0.103 -0.0704 -0.0992 -0.4175
 8172TIP3    H246008   1.034   4.792   0.034  1.2942 -0.6451 -0.1340
 8173TIP3   OH246009   6.495   4.701  12.617  0.9555  0.6059 -0.2269
 8173TIP3    H146010   6.454   4.670  12.698 -1.5940  1.3140 -1.2061
 8173TIP3    H246011   6.588   4.706  12.638  0.4522 -0.1103  2.3710
 8174TIP3   OH246012   5.033   6.517   6.434 -0.3589  0.3756 -0.3162
 8174TIP3    H146013   5.077   6.542   6.353  0.2491  0.7230  0.1082
 8174TIP3    H246014   5.077   6.436   6.461 -0.2235  0.5252 -0.0828
 8175TIP3   OH246015   4.372   3.212  12.143 -0.2641  0.6098 -0.3203
 8175TIP3    H146016   4.338   3.123  12.144  1.2008  0.0036 -1.7563
 8175TIP3    H246017   4.307   3.263  12.190 -2.2499 -0.8150 -1.4326
 8176TIP3   OH246018   2.579   3.084  16.090  0.1035  0.5274 -0.5329
 8176TIP3    H146019   2.616   3.011  16.041 -2.4790 -1.8136  0.8374
 8176TIP3    H246020   2.496   3.103  16.047 -1.9790 -1.2405  2.4848
 8177TIP3   OH246021   2.393   4.375  11.762 -0.3229  0.5309  0.0477
 8177TIP3    H146022   2.408   4.302  11.702 -1.1711  0.5627 -0.2093
 8177TIP3    H246023   2.411   4.339  11.848  2.0644  0.8125 -0.3186
 8178TIP3   OH246024   0.323   2.451   0.274  0.4363 -0.3220 -0.1421
 8178TIP3    H146025   0.243   2.458   0.222  1.0684  2.1849 -0.8449
 8178TIP3    H246026   0.387   2.505   0.227  0.6798  3.1693  3.8290
 8179TIP3   OH246027   2.780   3.829  13.859  0.6238  0.6526  0.3666
 8179TIP3    H146028   2.826   3.902  13.902  0.5740  0.3797  0.8839
 8179TIP3    H246029   2.850   3.771  13.830  0.6090  0.1320  1.3417
 8180TIP3   OH246030   1.880   6.564   1.806 -0.0441  1.0074 -0.1033
 8180TIP3    H146031   1.796   6.590   1.768 -1.0830 -1.0857  0.6535
 8180TIP3    H246032   1.858   6.491   1.864  2.3688  0.1000 -0.2756
 8181TIP3   OH246033   6.624   3.324  16.502  0.0339 -0.1878  0.1098
 8181TIP3    H146034   6.644   3.260  16.433  1.0766 -0.8974  1.0492
 8181TIP3    H246035   6.693   3.311  16.567 -1.0180  0.3778  1.3565
 8182TIP3   OH246036   4.340   1.337  12.999  0.0096  0.5804 -0.4144
 8182TIP3    H146037   4.363   1.262  12.943  0.9529 -0.2864  1.1096
 8182TIP3    H246038   4.417   1.395  12.994  0.2908  0.2762  0.3563
 8183TIP3   OH246039   6.286   3.466  11.407  0.7275  0.0287 -0.7929
 8183TIP3    H146040   6.341   3.481  11.331  1.4239 -0.6723 -0.4285
 8183TIP3    H246041   6.196   3.467  11.372  1.0538 -0.5573 -1.6621
 8184TIP3   OH246042   2.693   6.703  11.512  0.2657  0.5229 -0.0366
 8184TIP3    H146043   2.650   6.636  11.459  0.6732  0.7386 -0.6448
 8184TIP3    H246044   2.749   6.750  11.450 -0.2006  1.5753  0.3508
 8185TIP3   OH246045   5.562   3.689   3.020  0.4436  0.0169 -0.2620
 8185TIP3    H146046   5.574   3.597   2.997  2.3001  0.4320 -1.0557
 8185TIP3    H246047   5.476   3.711   2.983 -0.7278 -1.7821  1.2952
 8186TIP3   OH246048   3.800   3.162   2.767 -0.5583 -0.4104  0.2123
 8186TIP3    H146049   3.805   3.256   2.782 -2.0199 -0.4155  0.8689
 8186TIP3    H246050   3.793   3.153   2.672 -0.8166  0.1593  0.1766
 8187TIP3   OH246051   4.598   4.929  13.367  0.5721  0.7090  0.2595
 8187TIP3    H146052   4.520   4.885  13.402  0.4757 -0.5111 -1.4535
 8187TIP3    H246053   4.652   4.946  13.444 -0.0165 -1.1575  1.1099
 8188TIP3   OH246054   2.256   3.285   3.065 -0.1553  0.0294 -1.2784
 8188TIP3    H146055   2.307   3.362   3.091  0.3290 -0.8484  0.4490
 8188TIP3    H246056   2.187   3.320   3.010 -0.0188  1.7281 -0.4224
 8189TIP3   OH246057   4.183   5.156  14.847  0.0954 -0.5326  0.2488
 8189TIP3    H146058   4.270   5.123  14.868  1.6960  1.3277 -3.0670
 8189TIP3    H246059   4.184   5.246  14.880 -0.8271 -0.6964  0.7389
 8190TIP3   OH246060   0.389   2.694  16.489  0.0360  0.2635  0.3644
 8190TIP3    H146061   0.454   2.722  16.424 -0.2007  0.7619  0.3435
 8190TIP3    H246062   0.440   2.677  16.568  0.0888  1.4805  0.5989
 8191TIP3   OH246063   5.648   6.569  12.624  0.3796  0.6699 -0.1894
 8191TIP3    H146064   5.621   6.516  12.699 -0.1122  0.7481 -0.3091
 8191TIP3    H246065   5.596   6.534  12.551 -0.4043  1.7258 -0.1455
 8192TIP3   OH246066   1.442   4.562  16.657  0.0991  0.3592  0.1247
 8192TIP3    H146067   1.388   4.624  16.706 -1.5417 -0.8703 -0.1196
 8192TIP3    H246068   1.507   4.531  16.720  0.4598  1.7403  0.4483
 8193TIP3   OH246069   4.453   0.636  12.274 -0.2451  0.3667 -0.7232
 8193TIP3    H146070   4.492   0.723  12.283 -0.0316  0.0109  2.4333
 8193TIP3    H246071   4.365   0.652  12.239  0.4520  1.6800 -1.8992
 8194TIP3   OH246072   6.721   2.628  11.480  0.2318  0.1752  0.3329
 8194TIP3    H146073   6.710   2.716  11.515 -1.7563 -0.4134  1.2656
 8194TIP3    H246074   6.711   2.570  11.556 -0.2747 -0.9350 -0.5597
 8195TIP3   OH246075   1.750   4.026   3.467 -0.0697 -0.2956  0.0736
 8195TIP3    H146076   1.767   3.932   3.467  0.8181 -0.1414  0.1883
 8195TIP3    H246077   1.682   4.038   3.401 -2.2193 -1.3541  2.0444
 8196TIP3   OH246078   2.124   5.617   0.075  0.7151 -0.1874 -0.2032
 8196TIP3    H146079   2.101   5.524   0.085  1.5844 -0.4038 -0.1064
 8196TIP3    H246080   2.173   5.621  -0.007 -0.8991  0.5078 -1.1373
 8197TIP3   OH246081   4.964   2.047  12.755 -0.1134  0.3379 -0.7264
 8197TIP3    H146082   5.040   1.995  12.782  0.2568  0.7986 -0.8737
 8197TIP3    H246083   4.934   2.089  12.836 -0.6579 -0.4109 -0.5297
 8198TIP3   OH246084   2.579   4.360   1.218 -0.2823  0.1791 -0.9479
 8198TIP3    H146085   2.532   4.414   1.283 -0.7934 -3.1028  1.5490
 8198TIP3    H246086   2.667   4.352   1.253  0.1154  0.3728 -1.9078
 8199TIP3   OH246087   4.346   4.726   1.966 -0.0499 -0.0190 -0.5959
 8199TIP3    H146088   4.289   4.656   1.998  0.2669  0.0378  0.1143
 8199TIP3    H246089   4.435   4.690   1.975  0.0720  0.2276 -0.8395
 8200TIP3   OH246090   4.627   3.333  16.747 -0.0118  0.4578  0.3822
 8200TIP3    H146091   4.584   3.247  16.745  1.0460 -0.0565 -0.3244
 8200TIP3    H246092   4.673   3.335  16.831 -0.4294  0.5357  0.6138
 8201TIP3   OH246093   1.125   6.086  14.428 -0.5036  0.0061 -0.0876
 8201TIP3    H146094   1.053   6.096  14.366  0.1806 -0.9466 -1.0437
 8201TIP3    H246095   1.135   5.992  14.440  1.2415  0.0789 -0.7490
 8202TIP3   OH246096   5.544   0.514   2.359 -0.5295  0.1407 -0.5608
 8202TIP3    H146097   5.634   0.482   2.351  0.0935  1.0680  2.0651
 8202TIP3    H246098   5.532   0.526   2.453 -3.0926  0.9403 -0.9616
 8203TIP3   OH246099   2.660   6.555  15.821  0.0513  0.0920 -0.3687
 8203TIP3    H146100   2.654   6.492  15.749 -0.6236  0.4146 -0.5970
 8203TIP3    H246101   2.641   6.504  15.899  2.0251 -0.5402 -0.2585
 8204TIP3   OH246102   3.262   2.518   1.278 -0.7041 -0.8184 -0.4283
 8204TIP3    H146103   3.187   2.519   1.219 -0.3324  1.8008 -0.9133
 8204TIP3    H246104   3.231   2.564   1.356  0.3544  0.2660 -0.6239
 8205TIP3   OH246105   2.889   1.096   2.078  0.0304  0.8425 -0.3820
 8205TIP3    H146106   2.962   1.055   2.124 -0.4119 -0.6589 -1.0131
 8205TIP3    H246107   2.830   1.127   2.148  0.6928  1.0322  0.0962
 8206TIP3   OH246108   5.694   3.420   4.147  0.1541  0.3119  0.1850
 8206TIP3    H146109   5.777   3.375   4.161 -0.1812 -0.5217 -0.5031
 8206TIP3    H246110   5.650   3.417   4.232  0.7927  0.6988  0.5342
 8207TIP3   OH246111   0.399   6.755  16.927 -0.5439  0.1659 -0.1604
 8207TIP3    H146112   0.481   6.738  16.880  0.7971 -0.6703  2.3654
 8207TIP3    H246113   0.406   6.846  16.957  0.5549 -0.5987  2.0311
 8208TIP3   OH246114   3.122   4.926  12.143  0.5295 -0.1764  0.5762
 8208TIP3    H146115   3.059   4.859  12.171  2.2762 -1.2507  2.1254
 8208TIP3    H246116   3.129   4.985  12.218  0.7677  0.3843  0.1127
 8209TIP3   OH246117   2.119   2.745   0.219  0.3721  0.2534 -0.0379
 8209TIP3    H146118   2.095   2.759   0.311  1.2760 -1.1764  0.4192
 8209TIP3    H246119   2.211   2.721   0.222 -0.1710 -2.0780 -1.1168
 8210TIP3   OH246120   0.293   0.292   1.773 -0.2034 -0.1574 -0.3358
 8210TIP3    H146121   0.305   0.342   1.853 -0.0425  0.7323 -0.9091
 8210TIP3    H246122   0.204   0.256   1.780 -0.5406  0.7022 -0.1971
 8211TIP3   OH246123   3.430   6.707  17.053  0.5808 -0.4459 -0.1288
 8211TIP3    H146124   3.384   6.644  17.108 -0.4118  1.8619  1.7901
 8211TIP3    H246125   3.369   6.729  16.983  0.4896 -0.7824 -0.1527
 8212TIP3   OH246126   5.174   2.408   3.027 -0.0662  0.4333 -0.2921
 8212TIP3    H146127   5.174   2.455   2.944 -1.3868 -3.0403 -2.3637
 8212TIP3    H246128   5.255   2.357   3.026 -1.5286 -1.9606 -0.9244
 8213TIP3   OH246129   2.670   5.733  12.582  0.1767  0.1560 -0.7885
 8213TIP3    H146130   2.731   5.806  12.570 -0.5400  0.7622 -0.7589
 8213TIP3    H246131   2.583   5.773  12.574 -0.2593 -0.2677  1.5975
 8214TIP3   OH246132   2.017   3.856   5.344  0.7762 -0.1190  0.2735
 8214TIP3    H146133   2.015   3.767   5.308  0.1114  0.7033 -1.7984
 8214TIP3    H246134   1.926   3.886   5.337  1.4669  1.6448 -1.4621
 8215TIP3   OH246135   0.484   1.086  13.186 -0.1477 -0.5625  0.2668
 8215TIP3    H146136   0.413   1.131  13.232 -0.7910 -0.3376 -0.9219
 8215TIP3    H246137   0.456   0.995  13.181 -0.8081 -0.3081 -1.0163
 8216TIP3   OH246138   3.374   4.104  11.689 -0.3065 -0.0287  0.1063
 8216TIP3    H146139   3.349   4.043  11.620  0.8399  1.2044 -1.4299
 8216TIP3    H246140   3.456   4.069  11.723 -0.1953  0.0668 -0.0591
 8217TIP3   OH246141   1.574   2.129   2.895  0.2803 -0.1114 -0.1370
 8217TIP3    H146142   1.626   2.083   2.961  0.4895  2.2294  1.3841
 8217TIP3    H246143   1.628   2.130   2.817  1.7102  0.5822  0.8518
 8218TIP3   OH246144   4.453   3.176  11.350  0.1188  0.2153  0.0652
 8218TIP3    H146145   4.544   3.202  11.338  0.3876 -1.0528 -0.8514
 8218TIP3    H246146   4.432   3.126  11.271 -1.7906  1.6152 -0.3535
 8219TIP3   OH246147   5.906   4.560  13.310  0.4001 -0.0429  0.0290
 8219TIP3    H146148   5.909   4.546  13.215  3.4957 -0.1816  0.0666
 8219TIP3    H246149   5.968   4.632  13.324 -1.7773  1.5533  1.7330
 8220TIP3   OH246150   5.689   0.123  13.547 -0.4591  0.1543  0.4645
 8220TIP3    H146151   5.689   0.205  13.497 -0.1433  0.0983  0.3698
 8220TIP3    H246152   5.699   0.055  13.481 -0.9245  0.0256  0.5253
 8221TIP3   OH246153   5.690   1.324   4.648  0.0877 -0.4015 -0.0021
 8221TIP3    H146154   5.672   1.292   4.737 -0.2577  1.5957  0.6948
 8221TIP3    H246155   5.779   1.360   4.654 -0.7838  1.8108  0.1883
 8222TIP3   OH246156   3.301   2.561   3.230 -0.2482 -0.3441 -0.2353
 8222TIP3    H146157   3.309   2.650   3.197  3.5555 -0.5181  0.0118
 8222TIP3    H246158   3.388   2.522   3.217 -1.1445 -3.2578  1.8553
 8223TIP3   OH246159   6.724   1.271   3.932 -0.2601 -0.1108  0.1660
 8223TIP3    H146160   6.636   1.281   3.967 -1.4043 -0.0677 -2.5878
 8223TIP3    H246161   6.750   1.183   3.959 -2.2994 -1.2269 -1.3514
 8224TIP3   OH246162   1.569   1.801  12.040 -0.3192 -0.7282 -0.2173
 8224TIP3    H146163   1.583   1.810  12.135  0.7116 -0.4144 -0.3926
 8224TIP3    H246164   1.474   1.789  12.031 -0.5493  0.2177  0.7916
 8225TIP3   OH246165   6.220   3.676   0.738  0.0406 -0.5453 -0.0699
 8225TIP3    H146166   6.197   3.769   0.735  2.2707  0.0313  0.0613
 8225TIP3    H246167   6.135   3.631   0.738 -1.0715  1.4684 -0.2278
 8226TIP3   OH246168   0.283   4.359  15.635 -0.2432  0.2114 -0.0652
 8226TIP3    H146169   0.302   4.360  15.729  0.8746  2.7526 -0.2622
 8226TIP3    H246170   0.195   4.323  15.629 -0.2701 -0.1241  1.9507
 8227TIP3   OH246171   5.357   4.037  11.986  0.5389  0.0735 -0.4170
 8227TIP3    H146172   5.330   3.945  11.988  1.8626 -0.3335 -0.4840
 8227TIP3    H246173   5.279   4.086  12.011  0.0766 -1.1284  0.5599
 8228TIP3   OH246174   4.164   6.525  16.887  0.1859  0.6094 -0.0179
 8228TIP3    H146175   4.254   6.513  16.857 -0.4736  0.2505 -1.9388
 8228TIP3    H246176   4.112   6.526  16.807 -1.9244 -2.7162  1.1938
 8229TIP3   OH246177   0.343   5.032  15.151 -0.0522  0.1628 -0.6286
 8229TIP3    H146178   0.315   4.941  15.138 -1.7997  0.3004  1.6916
 8229TIP3    H246179   0.391   5.030  15.234 -0.9413  1.5101 -0.0634
 8230TIP3   OH246180   0.141   4.715   1.434  0.6685 -0.6638  0.5385
 8230TIP3    H146181   0.154   4.683   1.523 -0.6490 -1.5112  0.4516
 8230TIP3    H246182   0.121   4.808   1.444 -0.3986 -0.9618  1.2099
 8231TIP3   OH246183   4.443   2.884   1.849 -0.7659  0.2791  0.5479
 8231TIP3    H146184   4.486   2.834   1.779 -2.0388  0.9584 -0.7475
 8231TIP3    H246185   4.448   2.975   1.820 -0.9815  0.6108  1.5402
 8232TIP3   OH246186   3.159   2.602   2.994  0.1944 -0.1371  0.0950
 8232TIP3    H146187   3.245   2.609   2.953 -0.0331 -3.0913 -0.9763
 8232TIP3    H246188   3.163   2.523   3.047 -0.6757  1.7336  3.1129
 8233TIP3   OH246189   4.318   1.531   0.991  0.2029  0.3957  0.2434
 8233TIP3    H146190   4.278   1.490   0.914 -0.8408 -0.1596  1.0636
 8233TIP3    H246191   4.396   1.574   0.958  0.1110 -0.3946 -1.0175
 8234TIP3   OH246192   3.334   4.184  10.980 -0.0183  0.4156 -0.3616
 8234TIP3    H146193   3.289   4.120  10.925  2.1987  0.6333 -2.4950
 8234TIP3    H246194   3.316   4.269  10.939  2.8844  0.4456 -1.7508
 8235TIP3   OH246195   0.943   4.416   1.521  0.3504 -0.2215  0.0210
 8235TIP3    H146196   0.857   4.433   1.559  0.4466 -0.1206  0.1947
 8235TIP3    H246197   0.944   4.322   1.504 -1.1503  0.2823 -3.3005
 8236TIP3   OH246198   1.154   1.000   4.595 -0.3095  0.1584  1.0655
 8236TIP3    H146199   1.177   1.088   4.625  1.5348 -0.1519  0.6230
 8236TIP3    H246200   1.216   0.943   4.640 -2.1094 -1.0321  2.0971
 8237TIP3   OH246201   1.746   5.915  13.873  0.1592  0.0129  0.0288
 8237TIP3    H146202   1.828   5.880  13.908  0.9096  1.2405 -0.4758
 8237TIP3    H246203   1.761   6.009  13.866 -0.5675  0.0063 -1.9604
 8238TIP3   OH246204   3.294   0.304  15.953  0.2156  0.3258  0.6041
 8238TIP3    H146205   3.342   0.381  15.923  1.1350  0.1135  1.4937
 8238TIP3    H246206   3.204   0.334  15.963 -0.5588 -0.0481 -4.1321
 8239TIP3   OH246207   2.521   5.903  11.173 -0.0338 -0.7117 -0.1722
 8239TIP3    H146208   2.458   5.833  11.159  0.4131 -0.6949 -2.3578
 8239TIP3    H246209   2.467   5.981  11.186 -0.5059 -1.2390  1.0892
 8240TIP3   OH246210   5.925   3.660  16.447  0.3202  0.4284  0.5096
 8240TIP3    H146211   5.946   3.753  16.442 -0.1794  0.5405  0.4668
 8240TIP3    H246212   6.009   3.616  16.457  0.5417  0.8971  0.6695
 8241TIP3   OH246213   3.978   3.198  16.822 -0.1163  0.7135 -0.1858
 8241TIP3    H146214   4.022   3.198  16.907 -1.9143  1.0061  0.7917
 8241TIP3    H246215   4.048   3.204  16.758  1.2275  1.6730  1.3311
 8242TIP3   OH246216   5.217   0.781   2.801 -0.3397 -0.1817 -0.0137
 8242TIP3    H146217   5.159   0.857   2.795  0.3424  0.3756  0.4055
 8242TIP3    H246218   5.298   0.808   2.758 -0.0785 -0.6570  0.1698
 8243TIP3   OH246219   0.013   3.670  10.425  0.7797  0.5625 -0.4372
 8243TIP3    H146220  -0.011   3.584  10.391  2.4950 -0.5385  1.0850
 8243TIP3    H246221  -0.029   3.732  10.365 -0.2981 -1.3191 -1.6646
 8244TIP3   OH246222   5.819   5.883  15.145 -0.7093 -0.1555 -0.1553
 8244TIP3    H146223   5.902   5.897  15.190 -0.9820  0.9349  0.0258
 8244TIP3    H246224   5.781   5.807  15.189 -0.2150 -0.1087  0.3617
 8245TIP3   OH246225   1.528   2.681   0.733 -0.0459  0.0941 -0.0408
 8245TIP3    H146226   1.528   2.772   0.703  0.0995 -0.2427 -1.0962
 8245TIP3    H246227   1.617   2.668   0.766  0.1132  0.1648 -0.4337
 8246TIP3   OH246228   4.099   0.664  16.976 -0.1387  0.0879 -0.4838
 8246TIP3    H146229   4.126   0.602  17.044  1.1724  1.2334  0.0536
 8246TIP3    H246230   4.074   0.743  17.024 -1.8179 -0.0096 -1.1693
 8247TIP3   OH246231   3.751   0.921  11.347 -0.4754  0.6654  0.0102
 8247TIP3    H146232   3.713   0.993  11.298 -0.9068 -0.1631 -0.8780
 8247TIP3    H246233   3.676   0.876  11.386 -0.2516  0.2804 -0.0012
 8248TIP3   OH246234   0.203   4.527   2.796  0.2032  0.3386  0.3677
 8248TIP3    H146235   0.133   4.588   2.821  0.6741  0.9870  0.1284
 8248TIP3    H246236   0.242   4.500   2.879 -0.9244 -0.7406  0.5544
 8249TIP3   OH246237   0.618   4.331   2.372  0.4560 -0.2688 -0.2686
 8249TIP3    H146238   0.679   4.401   2.348  2.3277 -1.7926 -0.1007
 8249TIP3    H246239   0.623   4.269   2.300 -0.1198 -0.9197  0.2383
 8250TIP3   OH246240   2.100   2.548  14.057  1.2016  0.2592 -0.5441
 8250TIP3    H146241   2.028   2.545  13.994  0.6417 -0.2333  0.1028
 8250TIP3    H246242   2.111   2.457  14.084  1.1226  0.5280  0.4072
 8251TIP3   OH246243   4.855   4.603   4.766 -0.6532  0.0595 -0.3374
 8251TIP3    H146244   4.795   4.660   4.718 -0.4501  0.3492 -0.2480
 8251TIP3    H246245   4.943   4.636   4.745 -0.6587  2.0709  2.5753
 8252TIP3   OH246246   5.798   5.962   6.918 -0.5928  0.2010  0.1172
 8252TIP3    H146247   5.775   5.986   7.008 -2.7670  1.4354 -0.7328
 8252TIP3    H246248   5.885   5.923   6.925 -1.8823 -2.3438  3.1641
 8253TIP3   OH246249   3.684   2.241  14.356  0.3073  0.0775 -0.8297
 8253TIP3    H146250   3.692   2.207  14.445 -0.9390  2.2254  0.1300
 8253TIP3    H246251   3.693   2.163  14.300  1.5415 -1.2338  1.1245
 8254TIP3   OH246252   6.600   3.570  14.707 -0.5421 -0.0762  0.2056
 8254TIP3    H146253   6.666   3.501  14.710  1.0900  1.5326  1.6079
 8254TIP3    H246254   6.530   3.538  14.763  0.8535  0.0600  2.0487
 8255TIP3   OH246255   3.072   0.692  16.004 -0.2777 -0.4553  0.5112
 8255TIP3    H146256   3.002   0.731  16.056 -0.7042 -1.6362  0.8473
 8255TIP3    H246257   3.113   0.766  15.959 -0.7813  0.4173  1.4658
 8256TIP3   OH246258   1.608   1.477  13.023 -0.1970 -0.5736  0.3246
 8256TIP3    H146259   1.639   1.435  13.103 -0.2489 -1.0926  0.0783
 8256TIP3    H246260   1.687   1.496  12.973 -0.2727 -2.4466 -0.5748
 8257TIP3   OH246261   0.355   5.402  13.412  0.2086  0.1197  0.6743
 8257TIP3    H146262   0.280   5.455  13.386 -0.5834 -1.3323 -0.0991
 8257TIP3    H246263   0.430   5.440  13.366 -0.1946  1.0547  0.7820
 8258TIP3   OH246264   0.073   4.263   4.019 -0.4401  0.3581  0.1544
 8258TIP3    H146265   0.118   4.241   4.101  2.8122  0.8455 -1.4559
 8258TIP3    H246266   0.056   4.178   3.977 -0.4855  0.2120  0.4655
 8259TIP3   OH246267   2.496   3.010  14.447 -0.1894 -0.0977 -0.0236
 8259TIP3    H146268   2.483   2.929  14.496 -1.0042  0.3843  0.5606
 8259TIP3    H246269   2.535   3.070  14.511 -0.0797  0.1384 -0.3122
 8260TIP3   OH246270   5.516   5.883  16.295 -0.0960 -0.0441 -0.1430
 8260TIP3    H146271   5.517   5.979  16.292 -0.7202 -0.0627 -2.5830
 8260TIP3    H246272   5.432   5.859  16.256  0.6284 -1.6107 -0.7859
 8261TIP3   OH246273   6.733   3.427   1.605  0.4655  0.2346  0.0410
 8261TIP3    H146274   6.667   3.451   1.670  1.9953 -2.8527  2.8877
 8261TIP3    H246275   6.739   3.332   1.611  1.7627  0.0032 -3.6230
 8262TIP3   OH246276   4.433   5.780  13.390  0.1054  0.0619 -0.6685
 8262TIP3    H146277   4.498   5.796  13.322  0.5977  1.8273  0.2018
 8262TIP3    H246278   4.376   5.857  13.388 -1.4965 -1.0901 -0.8808
 8263TIP3   OH246279   3.301   4.620  17.076 -0.3592 -0.3948 -0.6631
 8263TIP3    H146280   3.210   4.590  17.075 -0.2455 -0.7471 -0.9625
 8263TIP3    H246281   3.295   4.714  17.064 -0.6490 -0.5389 -1.7296
 8264TIP3   OH246282   3.707   2.115  16.997  0.5558 -0.0446 -0.1263
 8264TIP3    H146283   3.700   2.050  16.927 -0.9237 -0.0739  0.0258
 8264TIP3    H246284   3.782   2.085  17.049  0.0730 -1.4705 -0.2213
 8265TIP3   OH246285   4.691   0.647  15.533  0.2547  0.6937  0.0530
 8265TIP3    H146286   4.707   0.710  15.603  1.4839 -1.3480  1.6908
 8265TIP3    H246287   4.769   0.652  15.477  1.0390 -0.3778  1.0171
 8266TIP3   OH246288   1.275   4.405  14.264  0.1289  0.1808 -0.4245
 8266TIP3    H146289   1.270   4.435  14.173 -1.2427 -1.2640 -0.8364
 8266TIP3    H246290   1.357   4.357  14.268  0.1237  0.1222 -0.9313
 8267TIP3   OH246291   5.719   0.814  11.380  0.0341 -0.2056  0.4096
 8267TIP3    H146292   5.767   0.754  11.322  0.5213 -0.5110  1.1266
 8267TIP3    H246293   5.630   0.813  11.345  0.5137  0.2972 -0.8835
 8268TIP3   OH246294   2.549   0.398   4.638  0.3873  0.3919  0.3037
 8268TIP3    H146295   2.620   0.461   4.628  1.0102 -0.0838  1.5782
 8268TIP3    H246296   2.477   0.433   4.585  1.4863  0.9976 -0.8036
 8269TIP3   OH246297   1.686   2.833  14.767 -0.5960  0.4484 -0.5042
 8269TIP3    H146298   1.766   2.860  14.812 -0.5915  2.7697 -1.8614
 8269TIP3    H246299   1.714   2.812  14.678 -1.1282 -1.1195 -0.3303
 8270TIP3   OH246300   4.667   1.507  10.599 -0.0514 -0.5453  0.3045
 8270TIP3    H146301   4.675   1.536  10.689 -1.4075 -0.6737  0.4758
 8270TIP3    H246302   4.742   1.449  10.585 -0.2686 -1.1373  1.5805
 8271TIP3   OH246303   2.610   5.966  12.314 -0.4475  0.0176  0.4913
 8271TIP3    H146304   2.573   5.909  12.247  1.0122  0.1946 -0.4870
 8271TIP3    H246305   2.536   6.020  12.343 -0.8654  0.7010 -1.7697
 8272TIP3   OH246306   4.522   4.765   5.017  1.1173  0.2034  0.2930
 8272TIP3    H146307   4.572   4.847   5.014  1.3957  0.0315  0.2256
 8272TIP3    H246308   4.519   4.735   4.926  0.1833  0.6384  0.1787
 8273TIP3   OH246309   3.386   2.657   4.808 -0.6201  0.3718  0.5989
 8273TIP3    H146310   3.298   2.650   4.771  0.5649 -1.9728 -1.9472
 8273TIP3    H246311   3.425   2.571   4.796  2.3821  1.6169  0.7641
 8274TIP3   OH246312   1.210   6.524  12.789 -0.3128 -0.8995 -0.4968
 8274TIP3    H146313   1.169   6.506  12.873  0.7644  1.5541  0.6089
 8274TIP3    H246314   1.304   6.526  12.807 -0.1799  2.4996 -1.0793
 8275TIP3   OH246315   2.367   4.139   1.249  0.0751 -0.3289  0.0027
 8275TIP3    H146316   2.298   4.082   1.216  0.0863 -0.2979 -0.0744
 8275TIP3    H246317   2.328   4.226   1.250  0.7148  0.0209 -1.8951
 8276TIP3   OH246318   0.093   5.558   3.029 -0.4432  0.4169  0.0547
 8276TIP3    H146319   0.182   5.560   2.994 -0.3994  1.4141  0.2345
 8276TIP3    H246320   0.062   5.470   3.007  0.9149 -0.2797  0.8190
 8277TIP3   OH246321   5.006   2.411   1.941  0.3327 -0.3524  0.0130
 8277TIP3    H146322   5.040   2.499   1.957 -0.8628 -0.0903  1.3025
 8277TIP3    H246323   5.008   2.369   2.027 -0.3194 -1.1360 -0.3442
 8278TIP3   OH246324   6.054   1.405  11.084  0.8679 -0.5145 -0.0921
 8278TIP3    H146325   6.001   1.481  11.107  0.9645 -0.6626  0.6619
 8278TIP3    H246326   6.015   1.333  11.134  0.4069 -1.0815 -1.2671
 8279TIP3   OH246327   5.530   0.787   4.229  0.5939  0.7863 -0.0257
 8279TIP3    H146328   5.502   0.807   4.319 -1.3722  0.6897 -0.5892
 8279TIP3    H246329   5.533   0.691   4.226  0.6920  0.7905 -0.0594
 8280TIP3   OH246330   6.659   4.118  12.994  0.6596  0.0013 -0.5464
 8280TIP3    H146331   6.718   4.123  13.069  0.9921 -0.0166 -0.8023
 8280TIP3    H246332   6.693   4.183  12.933 -2.0747  2.9640  1.0015
 8281TIP3   OH246333   6.478   0.981  16.305  0.2530 -0.0829 -0.2846
 8281TIP3    H146334   6.555   0.985  16.249  0.4797 -1.3006 -0.0723
 8281TIP3    H246335   6.425   1.058  16.279 -0.5782 -1.6536 -3.5211
 8282TIP3   OH246336   3.610   3.742   2.927 -0.0029  0.2195 -0.1313
 8282TIP3    H146337   3.599   3.834   2.951 -1.9777  0.0763 -0.4148
 8282TIP3    H246338   3.570   3.693   2.999 -0.3069 -0.3693 -0.6914
 8283TIP3   OH246339   6.757   2.035  13.818 -0.4132  0.3866 -0.1043
 8283TIP3    H146340   6.786   2.023  13.908 -0.2307  0.6782 -0.1245
 8283TIP3    H246341   6.837   2.055  13.769  0.0188 -3.1665 -0.9618
 8284TIP3   OH246342   1.271   4.106   4.529 -0.2946 -0.1988  0.3605
 8284TIP3    H146343   1.343   4.110   4.466  0.4264 -1.4615  1.0727
 8284TIP3    H246344   1.310   4.132   4.612 -1.0072  0.5135  0.4725
 8285TIP3   OH246345   1.978   1.059   5.428 -0.6186 -0.2890 -0.5739
 8285TIP3    H146346   2.074   1.059   5.427 -0.6181 -0.9723 -1.2393
 8285TIP3    H246347   1.954   0.966   5.418 -1.3660  0.1816 -3.5361
 8286TIP3   OH246348   4.290   6.743   4.276  0.3276 -0.1830 -0.6172
 8286TIP3    H146349   4.283   6.661   4.325 -0.9424 -0.4655 -1.2452
 8286TIP3    H246350   4.368   6.786   4.311 -0.2692 -0.6185  1.2729
 8287TIP3   OH246351   1.157   1.801  15.769  0.7585  0.0622 -0.1543
 8287TIP3    H146352   1.236   1.762  15.732  0.1078 -0.8906 -0.5720
 8287TIP3    H246353   1.135   1.873  15.709  0.7542 -0.2989 -0.5909
 8288TIP3   OH246354   5.888   3.567  17.088  0.1481 -0.2423  0.1580
 8288TIP3    H146355   5.908   3.651  17.046 -0.4967  0.0021  0.3388
 8288TIP3    H246356   5.898   3.502  17.018 -0.4470  0.1084 -0.2573
 8289TIP3   OH246357   1.798   3.715  12.350  0.0210  0.1354  0.1725
 8289TIP3    H146358   1.788   3.763  12.268  0.6297  2.0112  1.1632
 8289TIP3    H246359   1.834   3.630  12.324  1.7002  1.2944 -1.3405
 8290TIP3   OH246360   2.031   2.512   1.805 -1.3762  0.3586 -0.1608
 8290TIP3    H146361   2.000   2.535   1.892  2.2243  0.1152  1.2869
 8290TIP3    H246362   2.013   2.418   1.797 -0.2677  0.0315  1.0101
 8291TIP3   OH246363   1.122   3.842   1.976 -0.4630 -0.8598  0.0774
 8291TIP3    H146364   1.130   3.844   2.071  2.3473  0.1993 -0.1323
 8291TIP3    H246365   1.029   3.828   1.960 -1.2319  0.5163  2.9790
 8292TIP3   OH246366   1.129   2.380   4.478  0.8973  0.1722  0.7509
 8292TIP3    H146367   1.171   2.461   4.451 -0.7130  1.0360  0.8067
 8292TIP3    H246368   1.129   2.326   4.399  2.1922  0.1218  0.7793
 8293TIP3   OH246369   6.779   6.101  13.427  0.4237 -0.3283  0.3203
 8293TIP3    H146370   6.695   6.060  13.450 -0.2006 -0.5656 -2.2602
 8293TIP3    H246371   6.767   6.193  13.450 -1.2697  0.0204 -1.7972
 8294TIP3   OH246372   4.222   4.824   3.071 -0.0061  0.5115 -0.4872
 8294TIP3    H146373   4.171   4.895   3.109 -1.5353 -1.2887  0.9811
 8294TIP3    H246374   4.194   4.746   3.120  0.8424 -1.2632 -2.7262
 8295TIP3   OH246375   0.216   4.220   4.260  0.0709 -0.1957 -0.1677
 8295TIP3    H146376   0.216   4.134   4.300 -1.9481 -0.8484 -1.4974
 8295TIP3    H246377   0.200   4.281   4.333 -1.4218 -1.1842  0.3398
 8296TIP3   OH246378   5.174   2.177   4.157 -0.9016  0.0063 -0.1010
 8296TIP3    H146379   5.085   2.142   4.152 -1.4214  1.4180 -0.7845
 8296TIP3    H246380   5.172   2.236   4.233 -0.8287  0.8444 -0.7509
 8297TIP3   OH246381   2.969   1.128  15.367 -0.2150 -0.6234 -0.1079
 8297TIP3    H146382   2.932   1.210  15.335  0.3652 -0.1953  0.3204
 8297TIP3    H246383   3.019   1.095  15.292 -0.0417 -0.3410 -0.1171
 8298TIP3   OH246384   1.665   3.076  15.167  0.0458 -0.1150 -0.2681
 8298TIP3    H146385   1.592   3.114  15.217  0.7410  0.0643  0.6251
 8298TIP3    H246386   1.727   3.148  15.157  0.1289 -0.2850 -0.9697
 8299TIP3   OH246387   4.634   4.494  16.710  0.3114  0.6059  0.2246
 8299TIP3    H146388   4.729   4.496  16.717  0.2944 -0.4726  0.8390
 8299TIP3    H246389   4.609   4.407  16.742 -0.7758  0.3683 -1.2326
 8300TIP3   OH246390   1.345   5.900   3.269 -0.1704  0.7140 -0.5245
 8300TIP3    H146391   1.420   5.896   3.329 -1.2864  0.6617  0.9021
 8300TIP3    H246392   1.364   5.973   3.211  0.4321  1.4734  0.6098
 8301TIP3   OH246393   0.227   5.458   4.315 -0.0974  0.3248  0.3437
 8301TIP3    H146394   0.233   5.382   4.373  0.9419 -0.0095 -0.1911
 8301TIP3    H246395   0.212   5.532   4.375 -1.9347 -0.3952  0.7952
 8302TIP3   OH246396   4.337   6.004  15.075  0.5847 -0.2470 -0.3671
 8302TIP3    H146397   4.328   5.975  14.984 -0.4546  0.6082 -0.5386
 8302TIP3    H246398   4.247   6.020  15.104  0.9862  0.4387  0.5027
 8303TIP3   OH246399   5.620   1.916   6.128 -0.2023 -0.1159 -0.9827
 8303TIP3    H146400   5.527   1.933   6.115 -0.6952 -1.8175  0.1383
 8303TIP3    H246401   5.640   1.954   6.213  0.6045  1.9370 -2.0544
 8304TIP3   OH246402   3.221   2.611  15.858  0.5479 -0.1024 -0.5092
 8304TIP3    H146403   3.210   2.667  15.781 -0.7692 -0.1367 -0.3477
 8304TIP3    H246404   3.316   2.602  15.868  0.7404  0.9441 -1.3764
 8305TIP3   OH246405   0.857   5.495   3.675  0.3069  0.0252 -0.4440
 8305TIP3    H146406   0.934   5.530   3.719  0.3931  1.2869 -1.5512
 8305TIP3    H246407   0.832   5.564   3.613 -0.3193 -1.3445 -1.7512
 8306TIP3   OH246408   1.476   0.559  14.027  0.2360 -0.5812 -0.0932
 8306TIP3    H146409   1.412   0.520  13.968 -0.1126  0.3220 -0.3167
 8306TIP3    H246410   1.556   0.507  14.015 -0.3027 -1.3949 -0.1781
 8307TIP3   OH246411   5.509   2.634  15.935 -0.6235  0.2692 -0.0656
 8307TIP3    H146412   5.475   2.657  15.849  0.2089 -1.7524 -0.9612
 8307TIP3    H246413   5.594   2.676  15.940  0.7484 -2.2306 -1.5624
 8308TIP3   OH246414   2.705   3.542  10.785 -0.5254  0.4330 -1.2137
 8308TIP3    H146415   2.716   3.493  10.867 -1.7365  0.7467 -0.8527
 8308TIP3    H246416   2.760   3.620  10.796 -1.8184  1.2107 -0.0843
 8309TIP3   OH246417   3.829   0.256   4.669  0.0369 -0.0101  0.4605
 8309TIP3    H146418   3.872   0.339   4.650  2.7610 -1.7336 -1.4133
 8309TIP3    H246419   3.782   0.270   4.751  0.1316  3.4413 -0.0343
 8310TIP3   OH246420   3.516   3.738   4.107  0.3283  0.3887 -0.2148
 8310TIP3    H146421   3.508   3.737   4.202 -0.8438 -0.4646 -0.3104
 8310TIP3    H246422   3.558   3.655   4.085 -0.1712  0.2143 -0.5087
 8311TIP3   OH246423   1.564   1.136   0.357  0.1366  0.7530 -0.1784
 8311TIP3    H146424   1.471   1.149   0.341 -0.6429 -1.6504  1.9920
 8311TIP3    H246425   1.582   1.048   0.323  1.5540  1.0949 -0.3339
 8312TIP3   OH246426   0.176   1.110   0.366 -0.4356 -0.5780 -0.0027
 8312TIP3    H146427   0.257   1.131   0.321 -1.7407  2.1430 -1.1700
 8312TIP3    H246428   0.121   1.069   0.300 -0.4005 -1.5012  0.5288
 8313TIP3   OH246429   3.373   1.434  14.518  0.2100  0.0619 -0.0672
 8313TIP3    H146430   3.360   1.468  14.607 -1.0609 -0.6821  0.0375
 8313TIP3    H246431   3.348   1.342  14.524 -0.7750  0.2307 -1.4091
 8314TIP3   OH246432   2.568   1.808   2.218 -0.3628 -0.6747 -0.1619
 8314TIP3    H146433   2.629   1.756   2.271 -1.0956 -0.9448  0.4117
 8314TIP3    H246434   2.520   1.861   2.281  0.4633  0.7944 -0.7540
 8315TIP3   OH246435   1.165   5.470   3.013  0.4680 -0.1781  0.0512
 8315TIP3    H146436   1.208   5.541   3.060 -1.0508  0.6108  0.2783
 8315TIP3    H246437   1.169   5.396   3.075  0.1912  0.3048  0.6542
 8316TIP3   OH246438   4.067   1.467  13.015 -0.1542 -0.0124  0.8135
 8316TIP3    H146439   4.157   1.495  13.003  0.2340 -1.6148 -0.1853
 8316TIP3    H246440   4.073   1.392  13.075 -0.6288 -1.0992 -0.4611
 8317TIP3   OH246441   0.626   5.506  15.831 -0.1089 -0.4129  0.1607
 8317TIP3    H146442   0.679   5.435  15.793  0.3655  0.1778 -0.2946
 8317TIP3    H246443   0.561   5.461  15.885 -0.7881 -1.2853 -1.3412
 8318TIP3   OH246444   1.635   2.252   3.508 -0.3362  0.1358 -0.2431
 8318TIP3    H146445   1.633   2.159   3.530 -0.0751  0.0778 -0.4729
 8318TIP3    H246446   1.689   2.291   3.577 -1.3937  0.2891  0.5105
 8319TIP3   OH246447   3.062   2.965  13.619  0.1171  0.3112  0.0815
 8319TIP3    H146448   3.089   3.042  13.670 -1.5690  0.0935  1.3723
 8319TIP3    H246449   3.089   2.891  13.673  0.0015  0.0327 -0.2475
 8320TIP3   OH246450   1.229   4.094   1.888  0.1507 -0.1075 -0.6561
 8320TIP3    H146451   1.310   4.052   1.914 -0.7520 -0.2257  2.1404
 8320TIP3    H246452   1.163   4.024   1.892 -0.4276  0.3972 -1.1540
 8321TIP3   OH246453   1.048   3.748   0.617 -0.0681  0.3573  0.0517
 8321TIP3    H146454   1.102   3.669   0.618 -1.2693 -0.4742 -0.4636
 8321TIP3    H246455   1.009   3.750   0.529 -0.4755  1.2297  0.2422
 8322TIP3   OH246456   6.803   3.916   5.624 -0.1476 -0.8231  0.3547
 8322TIP3    H146457   6.871   3.849   5.628 -0.0918 -0.7505  0.7255
 8322TIP3    H246458   6.802   3.953   5.713 -1.0653 -1.2124  0.5101
 8323TIP3   OH246459   2.547   6.506  14.041  0.0732  0.2035  0.2032
 8323TIP3    H146460   2.550   6.440  13.973 -2.9215  0.0032  0.2098
 8323TIP3    H246461   2.552   6.456  14.123  1.2805  0.2692  0.1783
 8324TIP3   OH246462   4.706   2.212   5.559 -0.4192 -0.3880 -0.4304
 8324TIP3    H146463   4.678   2.302   5.574 -1.5158 -0.8747  0.4841
 8324TIP3    H246464   4.678   2.164   5.636  0.1320 -1.5353 -0.9207
 8325TIP3   OH246465   3.498   3.152   2.771 -0.0450  0.2322 -0.4014
 8325TIP3    H146466   3.546   3.102   2.705  0.7452  0.8946 -0.3411
 8325TIP3    H246467   3.491   3.240   2.735  1.7060  0.9957  1.0042
 8326TIP3   OH246468   5.022   2.129   6.810  0.2984 -0.6530  0.2457
 8326TIP3    H146469   4.930   2.158   6.816 -0.1198 -2.0917  0.9595
 8326TIP3    H246470   5.063   2.192   6.750  0.0128  2.8668  3.6038
 8327TIP3   OH246471   5.555   4.741   5.180 -0.3672 -0.3906 -0.6463
 8327TIP3    H146472   5.619   4.758   5.249 -0.7672  0.5992 -0.5132
 8327TIP3    H246473   5.585   4.660   5.139  1.3733  0.4391 -1.0524
 8328TIP3   OH246474   0.110   0.546   4.962 -0.5024  0.4566 -0.8358
 8328TIP3    H146475   0.040   0.561   5.026 -0.4816 -0.2219 -0.6515
 8328TIP3    H246476   0.141   0.634   4.940 -0.5931  0.7016 -0.0122
 8329TIP3   OH246477   0.796   5.382   1.075 -0.1632 -0.4137  0.6477
 8329TIP3    H146478   0.708   5.365   1.109 -0.2651 -2.1795 -0.3963
 8329TIP3    H246479   0.852   5.318   1.120  0.2249 -0.6560 -0.1631
 8330TIP3   OH246480   1.057   5.874   2.746  0.4388  0.2083 -0.0497
 8330TIP3    H146481   1.009   5.829   2.816  1.5926 -0.7962  0.1185
 8330TIP3    H246482   1.122   5.926   2.793  0.5783  0.2889 -0.3359
 8331TIP3   OH246483   5.053   5.475   0.864  0.3094  0.0938 -0.5187
 8331TIP3    H146484   5.116   5.535   0.904  0.0803 -0.4741  0.7238
 8331TIP3    H246485   5.016   5.427   0.938 -1.2401  0.0880 -1.2829
 8332TIP3   OH246486   5.456   4.501  12.178  0.1230  0.7469 -0.0149
 8332TIP3    H146487   5.520   4.452  12.126 -0.4591 -0.7711  0.6685
 8332TIP3    H246488   5.475   4.476  12.268 -1.7485 -0.1193  0.1560
 8333TIP3   OH246489   1.164   0.388   5.927  0.2739  0.5582  0.1078
 8333TIP3    H146490   1.086   0.443   5.933 -0.1016  0.1529 -0.9732
 8333TIP3    H246491   1.210   0.401   6.010 -0.1007  2.0617  0.0766
 8334TIP3   OH246492   3.395   1.875   2.026 -0.2245  0.1737 -0.1522
 8334TIP3    H146493   3.355   1.794   1.994  1.5162 -0.7106 -0.1237
 8334TIP3    H246494   3.366   1.881   2.117 -1.9341  0.6199 -0.6972
 8335TIP3   OH246495   5.553   0.554  13.827 -0.1949 -0.0387 -0.7149
 8335TIP3    H146496   5.522   0.467  13.803 -1.8431  0.1400  0.6764
 8335TIP3    H246497   5.525   0.610  13.755  1.8867 -0.8039 -2.1881
 8336TIP3   OH246498   4.987   4.407  12.254 -0.2024  0.0119  0.3477
 8336TIP3    H146499   5.077   4.439  12.261 -0.7241  2.0568 -1.7602
 8336TIP3    H246500   4.948   4.428  12.339  0.4288  2.0712  0.1697
 8337TIP3   OH246501   0.906   5.293   2.100  0.6513 -0.0588 -0.5535
 8337TIP3    H146502   0.915   5.297   2.004  2.2388 -1.0618 -0.4718
 8337TIP3    H246503   0.946   5.374   2.130  1.8909 -0.6112 -0.6613
 8338TIP3   OH246504   6.410   2.353   0.575 -0.6474 -0.5301 -0.4527
 8338TIP3    H146505   6.365   2.369   0.657  0.6486 -0.1735  0.2031
 8338TIP3    H246506   6.448   2.438   0.551 -0.9144 -0.6556 -1.3571
 8339TIP3   OH246507   2.299   1.563  16.653  0.3726  0.1594  0.1512
 8339TIP3    H146508   2.223   1.585  16.599  0.3841  0.9650  0.4497
 8339TIP3    H246509   2.343   1.647  16.668  1.3447 -0.3045 -0.0473
 8340TIP3   OH246510   0.146   3.042  15.879  0.1233  0.1381  0.1469
 8340TIP3    H146511   0.176   3.104  15.814  0.5773 -0.5297 -0.2820
 8340TIP3    H246512   0.051   3.036  15.865 -0.4442  3.0928  2.2299
 8341TIP3   OH246513   6.560   2.714  13.041  0.0170 -0.4067  0.7870
 8341TIP3    H146514   6.564   2.787  12.979 -0.0534  0.0563  1.3238
 8341TIP3    H246515   6.474   2.721  13.081  1.2598  1.2600  3.2937
 8342TIP3   OH246516   1.225   0.949   2.513 -0.3771  0.1536 -0.6293
 8342TIP3    H146517   1.202   0.933   2.422  1.9294 -0.4787 -1.1345
 8342TIP3    H246518   1.190   1.036   2.531 -1.7147 -0.1160 -1.7963
 8343TIP3   OH246519   6.812   3.147   4.479 -0.7454 -0.1879  0.8679
 8343TIP3    H146520   6.752   3.153   4.553 -2.0577  1.6910 -0.3277
 8343TIP3    H246521   6.829   3.238   4.453 -0.1747 -0.8093 -1.0396
 8344TIP3   OH246522   3.324   5.996   2.211  0.0312 -0.0675  0.4068
 8344TIP3    H146523   3.265   5.969   2.282  1.0435 -0.0605  1.2717
 8344TIP3    H246524   3.369   5.916   2.186 -1.0690 -0.2756 -0.9631
 8345TIP3   OH246525   3.817   0.049  11.328 -0.6513  0.6138 -0.2577
 8345TIP3    H146526   3.835  -0.024  11.270  0.7192  0.0653  0.8123
 8345TIP3    H246527   3.735   0.025  11.372 -0.4230 -0.0874 -0.2049
 8346TIP3   OH246528   1.308   5.623   3.181 -0.2108 -0.8723  0.5966
 8346TIP3    H146529   1.262   5.645   3.262  2.3889 -0.2816  1.9878
 8346TIP3    H246530   1.393   5.591   3.210  1.2726  0.5745 -1.9338
 8347TIP3   OH246531   6.714   5.801  11.821  0.8730 -0.4488 -0.4122
 8347TIP3    H146532   6.706   5.892  11.793  1.3201 -0.4223 -0.4616
 8347TIP3    H246533   6.738   5.754  11.742  0.5191 -0.6311 -0.4114
 8348TIP3   OH246534   3.108   5.525   4.575 -0.5444  0.0403  0.2716
 8348TIP3    H146535   3.029   5.479   4.606  1.3370  0.0450  5.6231
 8348TIP3    H246536   3.150   5.464   4.515  0.0410 -3.9686  4.4738
 8349TIP3   OH246537   3.774   3.659   0.327  0.4420 -0.2286  0.6346
 8349TIP3    H146538   3.860   3.673   0.288  1.0031  0.5243  2.0881
 8349TIP3    H246539   3.744   3.747   0.350 -1.2725 -0.3498 -0.9740
 8350TIP3   OH246540   5.076   3.589  10.883  0.2688 -0.3690 -0.1086
 8350TIP3    H146541   5.055   3.678  10.854  0.5533 -0.0239  0.7273
 8350TIP3    H246542   5.136   3.556  10.816 -0.9282 -0.4474 -1.1620
 8351TIP3   OH246543   1.459   6.269  12.972  0.4232 -0.2817 -0.1225
 8351TIP3    H146544   1.456   6.364  12.984  0.5563 -0.3386  0.3630
 8351TIP3    H246545   1.369   6.240  12.991  0.8662 -0.4838  1.7040
 8352TIP3   OH246546   0.849   3.488  11.004 -0.2076  0.5511  0.5931
 8352TIP3    H146547   0.849   3.532  10.919  1.8851 -0.5997 -0.0566
 8352TIP3    H246548   0.834   3.396  10.982 -0.9083  0.4253  1.5871
 8353TIP3   OH246549   3.149   2.664   1.936 -0.0391 -0.2781  0.1587
 8353TIP3    H146550   3.233   2.693   1.898  0.3688 -0.6284  0.7919
 8353TIP3    H246551   3.083   2.717   1.890  0.5431  0.1699 -0.1757
 8354TIP3   OH246552   5.391   0.799  16.787  0.2793  1.0000 -0.3282
 8354TIP3    H146553   5.438   0.864  16.838  0.4394  2.4097 -2.1958
 8354TIP3    H246554   5.374   0.727  16.848  0.3687  2.6567  1.6865
 8355TIP3   OH246555   2.372   0.620   1.686  0.7535 -0.0849  0.0522
 8355TIP3    H146556   2.375   0.560   1.611 -1.5682  0.9450 -0.9030
 8355TIP3    H246557   2.361   0.707   1.647 -1.3830  0.3628  1.5834
 8356TIP3   OH246558   0.369   6.652   6.228 -0.3265 -0.6025  0.8418
 8356TIP3    H146559   0.279   6.622   6.220 -0.0952 -1.1727  0.3973
 8356TIP3    H246560   0.362   6.748   6.229 -0.7717 -0.6083 -1.1519
 8357TIP3   OH246561   3.743   5.464  15.924  0.2533 -0.1431 -0.3142
 8357TIP3    H146562   3.810   5.450  15.990  0.6170 -1.7511 -1.0008
 8357TIP3    H246563   3.670   5.504  15.972  0.8114 -0.5596  0.8932
 8358TIP3   OH246564   6.291   0.223   1.656 -0.1258  0.0464 -0.3934
 8358TIP3    H146565   6.281   0.173   1.737  1.1457  0.7011  0.1670
 8358TIP3    H246566   6.318   0.310   1.684 -1.5106  0.8368 -1.4182
 8359TIP3   OH246567   5.504   4.346   3.842  0.5024  0.1317 -0.2988
 8359TIP3    H146568   5.432   4.303   3.888  0.2749  0.4362 -0.3690
 8359TIP3    H246569   5.578   4.286   3.853  0.2103 -0.2388 -0.3263
 8360TIP3   OH246570   0.671   2.233   3.216  0.2899  0.3771  0.1331
 8360TIP3    H146571   0.613   2.305   3.238 -0.6873  0.0517 -1.3549
 8360TIP3    H246572   0.672   2.178   3.295 -1.9887  0.0090 -0.0672
 8361TIP3   OH246573   3.533   0.790   3.896 -0.8029 -0.3891 -0.5017
 8361TIP3    H146574   3.609   0.740   3.925 -0.5428 -0.4821 -1.3290
 8361TIP3    H246575   3.514   0.849   3.969  0.2147 -0.1930 -0.3901
 8362TIP3   OH246576   6.550   3.198  12.466 -0.9590 -0.0302 -0.8757
 8362TIP3    H146577   6.627   3.147  12.440  0.4136  1.4838  0.1430
 8362TIP3    H246578   6.478   3.136  12.460  0.9064 -2.6639  2.0425
 8363TIP3   OH246579   0.930   3.659  14.773  0.7410 -0.5048  0.2138
 8363TIP3    H146580   0.905   3.751  14.765  1.0635 -0.3315  1.1314
 8363TIP3    H246581   0.936   3.628  14.683 -2.3407 -0.4591 -0.0348
 8364TIP3   OH246582   5.864   5.357  16.734  0.4006 -0.7155 -0.4864
 8364TIP3    H146583   5.860   5.370  16.829  2.0422 -0.3009 -0.4549
 8364TIP3    H246584   5.942   5.303  16.720  0.2868 -0.6042 -1.6094
 8365TIP3   OH246585   6.535   2.233   5.158 -0.3256  0.3273  0.5926
 8365TIP3    H146586   6.503   2.302   5.215 -0.8723  0.6260 -0.0719
 8365TIP3    H246587   6.581   2.278   5.088 -0.0495 -0.0143  0.5512
 8366TIP3   OH246588   6.718   5.935   2.334  0.3584  0.1327 -0.1023
 8366TIP3    H146589   6.809   5.908   2.346  0.2274 -0.1305  0.2845
 8366TIP3    H246590   6.715   5.968   2.244  0.8679  0.2678 -0.0714
 8367TIP3   OH246591   1.506   4.365  14.724  0.2129 -0.9964  0.0969
 8367TIP3    H146592   1.535   4.435  14.783 -1.4502 -0.7325  0.6247
 8367TIP3    H246593   1.542   4.389  14.639 -0.1626  0.3888  0.3100
 8368TIP3   OH246594   1.874   0.408  16.009  0.4406  0.2699 -0.4630
 8368TIP3    H146595   1.878   0.393  15.914 -0.7268  0.4769 -0.5509
 8368TIP3    H246596   1.825   0.333  16.043  0.4596  0.4307 -0.0791
 8369TIP3   OH246597   4.741   0.691  13.139  0.5750  0.3735  0.1242
 8369TIP3    H146598   4.807   0.624  13.119  0.7286  0.4347  0.4292
 8369TIP3    H246599   4.786   0.774  13.124  0.4759  0.4115  0.0406
 8370TIP3   OH246600   6.466   2.197  12.373 -0.3063  0.5529 -0.1432
 8370TIP3    H146601   6.496   2.283  12.402  2.3043 -0.7467  1.3346
 8370TIP3    H246602   6.398   2.173  12.436 -0.4865  1.2261 -0.0828
 8371TIP3   OH246603   4.400   5.685   3.372 -0.2362  0.6073  0.2829
 8371TIP3    H146604   4.406   5.734   3.454  0.5083 -1.4789  1.5166
 8371TIP3    H246605   4.474   5.624   3.375 -3.0271 -2.9514  0.4075
 8372TIP3   OH246606   1.756   6.754   4.019 -0.1842  0.5931 -0.7534
 8372TIP3    H146607   1.836   6.703   4.006 -0.9258 -0.9375  0.5197
 8372TIP3    H246608   1.786   6.845   4.021  1.1065  0.2822 -3.4878
 8373TIP3   OH246609   5.890   3.159  12.342 -0.1678 -0.0676 -0.7507
 8373TIP3    H146610   5.978   3.147  12.377 -0.4840  0.0082  0.0851
 8373TIP3    H246611   5.903   3.211  12.263  0.6066 -0.6672 -1.0254
 8374TIP3   OH246612   4.664   6.002   2.548  0.3399 -0.0436 -0.0797
 8374TIP3    H146613   4.614   6.043   2.477 -0.7996 -0.5574  0.4055
 8374TIP3    H246614   4.687   6.075   2.606 -1.7152 -0.0575  0.8038
 8375TIP3   OH246615   3.875   1.900   2.153  0.3508 -0.5880 -0.2159
 8375TIP3    H146616   3.940   1.967   2.173  1.5725 -1.5936 -0.6917
 8375TIP3    H246617   3.793   1.948   2.139  1.4160  0.8967 -1.5631
 8376TIP3   OH246618   0.369   2.720  12.042 -0.3638  0.0686 -0.4200
 8376TIP3    H146619   0.369   2.626  12.062 -1.2116 -0.1790 -1.5200
 8376TIP3    H246620   0.446   2.733  11.987 -0.8271 -0.1873 -1.1393
 8377TIP3   OH246621   5.557   2.488  14.887  0.1078  0.0286  0.2913
 8377TIP3    H146622   5.527   2.418  14.830  0.5125 -0.6390  0.8873
 8377TIP3    H246623   5.637   2.454  14.928  0.7558  1.1422 -0.0205
 8378TIP3   OH246624   6.814   5.102   0.630 -0.7445  0.4178  0.1169
 8378TIP3    H146625   6.835   5.053   0.551 -0.7110  1.3619 -0.4606
 8378TIP3    H246626   6.729   5.141   0.612 -0.7914  0.5427  0.6004
 8379TIP3   OH246627   1.942   3.424  12.652 -0.5172 -0.1761 -0.3868
 8379TIP3    H146628   1.944   3.466  12.738  0.6013  0.0379 -0.5083
 8379TIP3    H246629   1.945   3.497  12.590  1.6842 -0.3900 -0.6000
 8380TIP3   OH246630   3.316   4.328  15.498 -0.2819 -0.4076  0.2717
 8380TIP3    H146631   3.401   4.284  15.506 -1.0062 -1.7296  0.7968
 8380TIP3    H246632   3.337   4.413  15.458  1.3865 -0.4092  1.0792
 8381TIP3   OH246633   6.290   5.195   2.794  0.4412  0.4974  0.0548
 8381TIP3    H146634   6.328   5.281   2.809  0.7771  0.1628  1.2233
 8381TIP3    H246635   6.241   5.203   2.712 -0.6726  2.1654  0.8755
 8382TIP3   OH246636   4.782   4.423  11.626 -0.5698  0.4265 -0.6585
 8382TIP3    H146637   4.853   4.412  11.690 -0.9246 -0.6239 -0.4492
 8382TIP3    H246638   4.716   4.475  11.673 -0.5437  0.2182 -0.3886
 8383TIP3   OH246639   2.373   0.471  13.761  0.5908 -0.2692 -0.2753
 8383TIP3    H146640   2.326   0.393  13.732 -2.4373  0.5281  2.1765
 8383TIP3    H246641   2.435   0.439  13.827  0.8187 -0.8537 -0.7711
 8384TIP3   OH246642   2.903   2.071  16.043  0.0224  0.0829 -0.3057
 8384TIP3    H146643   2.894   1.997  16.104 -2.5160  0.3494 -0.2995
 8384TIP3    H246644   2.951   2.137  16.093  0.7298 -0.8669  0.3026
 8385TIP3   OH246645   5.505   1.345  10.870  0.2623  0.0162  0.7671
 8385TIP3    H146646   5.492   1.260  10.912  0.4159  0.2090  1.2058
 8385TIP3    H246647   5.467   1.334  10.782 -2.9616  0.5595  2.0230
 8386TIP3   OH246648   0.854   6.469   1.355  0.0450  0.4754 -0.0531
 8386TIP3    H146649   0.913   6.543   1.343  0.3248  0.1632 -0.6162
 8386TIP3    H246650   0.835   6.439   1.266 -2.0044  1.3796  0.0378
 8387TIP3   OH246651   0.200   6.801   3.598  0.1006  0.2384 -0.5171
 8387TIP3    H146652   0.257   6.761   3.664 -0.1237  0.2154 -0.3395
 8387TIP3    H246653   0.261   6.845   3.538  0.5219 -2.1572 -1.9422
 8388TIP3   OH246654   3.672   4.593   2.680 -0.0234 -0.4423 -0.1196
 8388TIP3    H146655   3.580   4.607   2.701  0.5223  0.8940  1.5614
 8388TIP3    H246656   3.674   4.581   2.585 -2.2340 -3.2868  0.1293
 8389TIP3   OH246657   6.446   4.589  15.582  0.9526  0.2215 -0.4465
 8389TIP3    H146658   6.476   4.669  15.537  0.8959  0.5835  0.1481
 8389TIP3    H246659   6.497   4.519  15.543  1.2008  0.5905 -0.7860
 8390TIP3   OH246660   6.413   0.122   5.116 -0.1559 -0.5285 -0.4912
 8390TIP3    H146661   6.444   0.066   5.044 -1.1948 -1.5294 -0.1774
 8390TIP3    H246662   6.491   0.168   5.146  0.5055 -0.9754 -1.4997
 8391TIP3   OH246663   5.629   4.121   0.095  0.3786  0.1003  0.1328
 8391TIP3    H146664   5.652   4.129   0.187 -0.0136 -1.1639  0.3481
 8391TIP3    H246665   5.588   4.204   0.073  0.3539  0.3587  1.1331
 8392TIP3   OH246666   4.857   2.338  12.073  0.4163 -0.2726 -0.8620
 8392TIP3    H146667   4.925   2.380  12.126 -0.5572  0.6783 -0.3498
 8392TIP3    H246668   4.905   2.279  12.015  1.5335 -1.0161  0.7714
 8393TIP3   OH246669   4.892   1.318   0.132  0.3572  0.5058  0.0246
 8393TIP3    H146670   4.952   1.365   0.189 -1.1562  1.2135  1.0517
 8393TIP3    H246671   4.898   1.227   0.161 -0.1571  0.8075  1.1021
 8394TIP3   OH246672   2.851   4.554  11.795 -0.3572 -0.2699  0.2314
 8394TIP3    H146673   2.771   4.586  11.837 -1.0262 -0.1352 -1.1369
 8394TIP3    H246674   2.825   4.533  11.706  1.1628 -0.1148 -0.2613
 8395TIP3   OH246675   5.937   0.569  11.860  0.4828 -0.0302  0.4444
 8395TIP3    H146676   5.900   0.481  11.872 -0.4325 -0.1641 -2.7988
 8395TIP3    H246677   6.022   0.554  11.819  0.6081  0.5620  0.4775
 8396TIP3   OH246678   1.289   4.941   5.474  0.5208 -0.3041  0.9228
 8396TIP3    H146679   1.366   4.936   5.417  0.4246 -0.9891  0.8529
 8396TIP3    H246680   1.255   4.852   5.477 -1.6430  0.4016 -0.9553
 8397TIP3   OH246681   3.968   3.285  11.279  1.0493 -0.1321 -0.5069
 8397TIP3    H146682   3.917   3.347  11.331  2.5327  0.1890  0.5988
 8397TIP3    H246683   4.024   3.340  11.224  1.1894 -0.4791 -0.7106
 8398TIP3   OH246684   0.532   0.323  12.836  0.5364  0.6560 -0.2942
 8398TIP3    H146685   0.446   0.343  12.799 -0.3203  1.0724  1.8485
 8398TIP3    H246686   0.563   0.407  12.870  0.5060 -0.0416  1.4992
 8399TIP3   OH246687   3.333   6.221   3.619  0.2216 -0.1396  0.8169
 8399TIP3    H146688   3.274   6.152   3.648  0.5881  0.1940  2.4154
 8399TIP3    H246689   3.324   6.222   3.524 -1.7232 -0.6424  0.9808
 8400TIP3   OH246690   0.428   0.470   4.973 -0.1536  0.2063  0.1964
 8400TIP3    H146691   0.333   0.473   4.959 -0.0602 -1.7564 -1.0790
 8400TIP3    H246692   0.465   0.514   4.897 -0.0058  0.1617  0.2424
 8401TIP3   OH246693   3.950   4.228  14.603  0.2386 -0.5831 -0.0866
 8401TIP3    H146694   3.980   4.137  14.598  1.1046 -0.2729 -0.4924
 8401TIP3    H246695   4.030   4.279  14.613 -0.0775  0.3216 -2.0483
 8402TIP3   OH246696   5.453   0.862   2.681  0.1013  0.3066  0.1390
 8402TIP3    H146697   5.424   0.914   2.606 -0.9127  0.6495  0.7629
 8402TIP3    H246698   5.546   0.882   2.689 -0.2178  1.8140  0.1941
 8403TIP3   OH246699   6.252   2.560  15.878  0.0329  0.1486 -0.0353
 8403TIP3    H146700   6.241   2.474  15.837 -0.3588 -0.0361  0.4457
 8403TIP3    H246701   6.344   2.561  15.906 -0.3035 -0.6606  1.1597
 8404TIP3   OH246702   0.061   4.847  16.964  0.0397  0.1015  0.1533
 8404TIP3    H146703   0.123   4.805  17.024  1.0568 -0.2398 -1.1004
 8404TIP3    H246704   0.096   4.828  16.877 -0.4390  2.0849 -0.4921
 8405TIP3   OH246705   4.234   2.338  14.706  0.2555  0.2275  0.0368
 8405TIP3    H146706   4.272   2.378  14.784  2.7358 -1.4569 -0.2469
 8405TIP3    H246707   4.246   2.244  14.719 -1.0900 -0.1797 -1.4825
 8406TIP3   OH246708   3.406   6.392   5.190 -0.9130  0.1475 -0.0509
 8406TIP3    H146709   3.347   6.457   5.229  0.6265  1.3240  0.3385
 8406TIP3    H246710   3.401   6.409   5.096 -1.4390  0.0387 -0.0424
 8407TIP3   OH246711   0.092   6.359  11.789  0.3328 -0.2191 -0.1103
 8407TIP3    H146712   0.129   6.301  11.722  1.2706  1.5451 -1.1499
 8407TIP3    H246713   0.001   6.371  11.762  0.9762  1.3162 -1.6798
 8408TIP3   OH246714   6.221   2.974  12.846 -0.3417  0.4332 -0.0605
 8408TIP3    H146715   6.220   3.060  12.802 -0.5096  0.9491  0.9368
 8408TIP3    H246716   6.268   2.917  12.785 -3.1231  0.3938 -2.3006
 8409TIP3   OH246717   5.599   2.287   0.879  0.2904  0.9545 -0.5724
 8409TIP3    H146718   5.522   2.292   0.823 -1.4699 -3.6363  1.1924
 8409TIP3    H246719   5.565   2.283   0.968  2.4292 -1.8250  0.2031
 8410TIP3   OH246720   2.301   5.208  12.713  0.4912  0.1739  0.1125
 8410TIP3    H146721   2.366   5.241  12.775 -0.2001  0.5509  0.6439
 8410TIP3    H246722   2.275   5.123  12.747  0.6458  0.0552 -0.0628
 8411TIP3   OH246723   6.271   1.577  14.165  0.6507  0.3596 -0.6571
 8411TIP3    H146724   6.253   1.519  14.239 -2.4494 -0.1107 -1.6968
 8411TIP3    H246725   6.289   1.662  14.206  0.2929 -0.1953  0.6879
 8412TIP3   OH246726   2.904   2.322  10.881 -0.3295 -0.3665 -0.0618
 8412TIP3    H146727   2.914   2.258  10.951  0.9428 -0.5130 -0.3523
 8412TIP3    H246728   2.927   2.274  10.801 -1.9358 -0.2517 -0.6110
 8413TIP3   OH246729   3.206   3.205  15.514 -0.8112 -0.0225  0.2977
 8413TIP3    H146730   3.178   3.236  15.428 -0.3625 -1.1194 -0.2532
 8413TIP3    H246731   3.200   3.282  15.570 -0.8265  0.7732 -0.7772
 8414TIP3   OH246732   0.263   1.129  16.565  0.1312 -0.0128 -0.2920
 8414TIP3    H146733   0.344   1.113  16.613 -1.6460  0.4075  3.0227
 8414TIP3    H246734   0.267   1.222  16.542  0.4916  0.0671  0.0824
 8415TIP3   OH246735   2.614   1.739  13.321 -0.0861 -0.4632 -0.2985
 8415TIP3    H146736   2.561   1.659  13.310 -0.9530  0.2331 -1.3277
 8415TIP3    H246737   2.623   1.748  13.416 -0.7947 -1.2644 -0.1414
 8416TIP3   OH246738   1.336   1.678  14.001 -0.6710  0.6537  0.2701
 8416TIP3    H146739   1.271   1.710  14.064 -0.8877  1.6398 -0.4446
 8416TIP3    H246740   1.287   1.664  13.920 -0.5408 -1.3176  0.5016
 8417TIP3   OH246741   5.282   4.715  13.098  0.1053 -0.3995  0.2934
 8417TIP3    H146742   5.240   4.771  13.034  1.3907  0.2230 -0.0166
 8417TIP3    H246743   5.220   4.643  13.111 -1.2165  0.6892  0.1380
 8418TIP3   OH246744   4.135   6.577   1.531 -0.0200  0.6423  0.0087
 8418TIP3    H146745   4.221   6.595   1.569 -0.6782  0.2865  1.7085
 8418TIP3    H246746   4.095   6.514   1.591  0.4448 -3.0225 -3.3431
 8419TIP3   OH246747   3.483   2.380  12.722  0.0329 -0.1010 -0.4505
 8419TIP3    H146748   3.483   2.350  12.813 -1.2666  3.0557  0.6795
 8419TIP3    H246749   3.573   2.410  12.708  0.2799 -0.7403 -0.2573
 8420TIP3   OH246750   4.103   2.328   3.286  0.2127  0.0514  0.0717
 8420TIP3    H146751   4.013   2.303   3.306 -1.1223  1.9449 -3.1955
 8420TIP3    H246752   4.152   2.307   3.365 -3.1326 -0.8155  1.9983
 8421TIP3   OH246753   1.615   6.553  16.392 -0.2092 -0.6045  0.4104
 8421TIP3    H146754   1.525   6.538  16.363  0.5312 -0.8195 -1.8378
 8421TIP3    H246755   1.624   6.500  16.471 -2.3029  0.0832  1.1454
 8422TIP3   OH246756   6.223   1.936  13.966 -0.2460  0.2609  0.7479
 8422TIP3    H146757   6.254   2.007  13.909 -2.0914 -0.1869 -0.8709
 8422TIP3    H246758   6.237   1.857  13.914 -4.4121  0.0649 -0.2567
 8423TIP3   OH246759   2.784   0.049   2.890  0.0537 -0.0764  0.2321
 8423TIP3    H146760   2.790   0.034   2.985 -1.0908 -1.4863  0.0968
 8423TIP3    H246761   2.789   0.144   2.881  0.5198  0.0526  1.6903
 8424TIP3   OH246762   2.637   5.758  15.993  0.0224  0.3658  0.1025
 8424TIP3    H146763   2.561   5.779  15.939 -0.6600 -0.2327  0.8387
 8424TIP3    H246764   2.603   5.704  16.064  1.1293  0.1032  0.4422
 8425TIP3   OH246765   1.204   5.804  13.586  0.1143 -0.3154  0.0694
 8425TIP3    H146766   1.175   5.776  13.672  0.7012  0.6527  0.5915
 8425TIP3    H246767   1.285   5.853  13.602  1.0541 -1.4025 -1.1720
 8426TIP3   OH246768   4.183   3.181   4.217  0.0337 -0.7860 -0.2196
 8426TIP3    H146769   4.092   3.199   4.195 -1.1626 -1.0798  4.1703
 8426TIP3    H246770   4.196   3.088   4.195 -0.7037 -0.7587 -0.7758
 8427TIP3   OH246771   1.331   5.237  16.720  0.2933 -0.1226 -0.3711
 8427TIP3    H146772   1.248   5.243  16.672 -0.3718  0.6226  0.8423
 8427TIP3    H246773   1.398   5.252  16.653 -0.6628  2.2736 -0.8606
 8428TIP3   OH246774   6.809   1.836  13.373 -0.0831 -0.0956 -0.0450
 8428TIP3    H146775   6.737   1.886  13.411 -0.6197 -0.2989 -0.7781
 8428TIP3    H246776   6.766   1.770  13.318  0.6286 -0.8987  0.3494
 8429TIP3   OH246777   0.108   4.310  10.591  0.5120  0.3736  0.5250
 8429TIP3    H146778   0.046   4.375  10.623 -0.7075 -0.1338 -0.7399
 8429TIP3    H246779   0.071   4.281  10.507  1.1479 -1.7645  0.9501
 8430TIP3   OH246780   3.906   2.841   3.949 -0.3992 -0.1438 -0.5791
 8430TIP3    H146781   3.815   2.814   3.942 -0.2082 -0.6727 -1.0861
 8430TIP3    H246782   3.920   2.899   3.874 -1.0905  2.2394  1.0579
 8431TIP3   OH246783   2.143   2.568  13.557  0.0836 -0.4861 -0.0906
 8431TIP3    H146784   2.165   2.540  13.468 -1.0505 -2.5339  0.2431
 8431TIP3    H246785   2.212   2.530  13.611  0.5636  0.4405 -0.0552
 8432TIP3   OH246786   6.463   1.512   1.859  0.0059  0.0386  0.6967
 8432TIP3    H146787   6.545   1.486   1.900  1.2362  2.0580 -0.4056
 8432TIP3    H246788   6.403   1.440   1.878  1.7748 -1.0738  2.2461
 8433TIP3   OH246789   6.543   4.568  16.693  0.0559 -0.0142 -0.3699
 8433TIP3    H146790   6.519   4.508  16.622  2.0235  0.3057 -1.3579
 8433TIP3    H246791   6.488   4.645  16.678 -0.0720 -0.2388 -1.1164
 8434TIP3   OH246792   3.002   5.718  16.690  0.5564 -0.6676  0.3796
 8434TIP3    H146793   3.061   5.792  16.674 -0.5965  0.2149  0.0368
 8434TIP3    H246794   3.056   5.640  16.677  1.2142  0.0963 -1.7302
 8435TIP3   OH246795   3.790   3.217   5.070  0.4925  0.1859  0.1187
 8435TIP3    H146796   3.798   3.298   5.020  0.0205  0.5517  0.6339
 8435TIP3    H246797   3.701   3.219   5.104  0.2110 -0.9248 -0.5132
 8436TIP3   OH246798   0.338   1.787  12.171  0.2313  0.4034 -0.0166
 8436TIP3    H146799   0.274   1.830  12.114  0.5176  2.4872  1.1604
 8436TIP3    H246800   0.361   1.854  12.235  1.3519 -1.2813  1.3891
 8437TIP3   OH246801   2.223   2.124   0.308 -0.1904  0.1061 -0.0378
 8437TIP3    H146802   2.228   2.218   0.321 -0.7369  0.1195  0.1326
 8437TIP3    H246803   2.173   2.093   0.384  1.3637 -0.5206  0.7569
 8438TIP3   OH246804   3.205   5.968   4.453 -0.7422  0.2885 -0.0678
 8438TIP3    H146805   3.205   5.999   4.544  0.1886  1.0611 -0.3094
 8438TIP3    H246806   3.157   5.886   4.455  2.4706 -1.6614  1.8143
 8439TIP3   OH246807   5.692   2.594   1.306 -0.2401 -0.3529 -0.1428
 8439TIP3    H146808   5.730   2.667   1.257  1.1078 -1.2696 -0.4865
 8439TIP3    H246809   5.630   2.553   1.246 -1.6462  1.0296  0.3490
 8440TIP3   OH246810   3.788   0.184   1.064  0.1686 -0.8671  0.3946
 8440TIP3    H146811   3.779   0.107   1.120  0.7767 -1.9739 -0.9910
 8440TIP3    H246812   3.846   0.155   0.993  0.1480  0.7732 -0.3072
 8441TIP3   OH246813   6.160   3.840   2.457  0.3252 -0.4918 -0.0632
 8441TIP3    H146814   6.175   3.783   2.382  0.8054  0.0693 -0.3965
 8441TIP3    H246815   6.234   3.901   2.456  0.7171 -0.9254  1.2795
 8442TIP3   OH246816   5.224   2.145  15.515  0.1293 -0.5293 -0.2911
 8442TIP3    H146817   5.306   2.193  15.506  0.1803 -0.4480  0.5908
 8442TIP3    H246818   5.247   2.054  15.495  0.5590 -0.6049  0.5152
 8443TIP3   OH246819   3.824   2.904   0.078  0.2257 -0.4374 -0.3427
 8443TIP3    H146820   3.739   2.859   0.077  0.2515 -0.4677 -1.3801
 8443TIP3    H246821   3.807   2.989   0.037  0.7881 -0.6002 -0.9081
 8444TIP3   OH246822   4.304   6.292  10.891  0.0515 -0.0438  0.0903
 8444TIP3    H146823   4.373   6.269  10.828  1.4934 -0.9060  1.9236
 8444TIP3    H246824   4.225   6.250  10.856  1.3628 -2.6770  0.1471
 8445TIP3   OH246825   0.982   5.344  11.050 -0.3929  0.0876 -0.0301
 8445TIP3    H146826   1.010   5.336  10.959 -0.3345 -1.2826  0.0916
 8445TIP3    H246827   1.056   5.313  11.101 -0.0834  1.7202  0.5374
 8446TIP3   OH246828   5.924   6.074  15.510  0.1220 -0.1627 -0.2057
 8446TIP3    H146829   5.987   6.102  15.576 -2.2743  1.1988  1.5712
 8446TIP3    H246830   5.967   6.093  15.427  1.2011  2.8170  0.9769
 8447TIP3   OH246831   4.225   5.625  10.768 -0.4294  0.3965  0.1429
 8447TIP3    H146832   4.211   5.689  10.697  1.9414  0.2419 -0.5252
 8447TIP3    H246833   4.158   5.646  10.833 -1.8889  1.3281 -1.6058
 8448TIP3   OH246834   3.715   2.595  15.140  0.4162 -0.3881 -0.3138
 8448TIP3    H146835   3.657   2.652  15.090  0.7483 -0.1220 -0.3935
 8448TIP3    H246836   3.741   2.647  15.216  2.2676  0.2728 -1.3699
 8449TIP3   OH246837   0.421   3.291  12.347  0.1611 -0.0635 -0.0783
 8449TIP3    H146838   0.343   3.245  12.315  0.0936 -0.9585  1.3403
 8449TIP3    H246839   0.470   3.225  12.395  1.2927  0.7571 -0.0825
 8450TIP3   OH246840   4.447   5.014  16.165  0.5235 -0.5424 -0.2956
 8450TIP3    H146841   4.366   5.030  16.213  0.8151  0.0279  0.0101
 8450TIP3    H246842   4.474   5.101  16.136  0.6774 -0.8109 -0.9636
 8451TIP3   OH246843   4.954   4.394   3.350 -0.8790  0.2309  0.2763
 8451TIP3    H146844   4.962   4.489   3.343  0.0858  0.1257 -0.3009
 8451TIP3    H246845   4.914   4.367   3.267 -1.3630  0.1608  0.5356
 8452TIP3   OH246846   1.928   0.695   2.674  0.0845  0.7260 -0.2215
 8452TIP3    H146847   1.957   0.640   2.747  0.1380 -1.5245 -1.8647
 8452TIP3    H246848   2.008   0.733   2.639  0.3300 -0.0632 -0.5374
 8453TIP3   OH246849   5.002   6.775   4.585 -0.5988  0.1497  0.1140
 8453TIP3    H146850   4.999   6.828   4.505  1.3138 -0.3696 -0.3281
 8453TIP3    H246851   5.035   6.690   4.556  0.5120  0.0794  1.5043
 8454TIP3   OH246852   3.081   5.815  16.143  0.1157  0.0641  0.0572
 8454TIP3    H146853   3.160   5.790  16.096 -0.2316 -0.5118 -0.2296
 8454TIP3    H246854   3.018   5.837  16.075 -0.7777 -1.9518  0.1845
 8455TIP3   OH246855   2.196   2.482  15.450 -0.3844 -0.1349 -0.7712
 8455TIP3    H146856   2.159   2.526  15.373  0.9768 -0.0921 -1.4199
 8455TIP3    H246857   2.272   2.434  15.416 -0.4500 -1.0430  0.3507
 8456TIP3   OH246858   4.610   0.227  13.409  0.1618 -0.1817  0.3771
 8456TIP3    H146859   4.568   0.298  13.361  1.5994 -0.6294 -1.5933
 8456TIP3    H246860   4.688   0.268  13.447  0.1860 -0.3519  0.5094
 8457TIP3   OH246861   5.597   1.478  11.168  0.6850 -0.4096  0.2365
 8457TIP3    H146862   5.674   1.481  11.111  0.4643  0.6105 -0.0079
 8457TIP3    H246863   5.524   1.503  11.112  0.5361  1.0858  1.0875
 8458TIP3   OH246864   0.687   4.107   5.637 -0.0036  0.1398 -0.3731
 8458TIP3    H146865   0.673   4.168   5.709  0.5008  0.6540 -0.7048
 8458TIP3    H246866   0.773   4.068   5.656  0.2205  0.4233 -0.7937
 8459TIP3   OH246867   5.694   3.567  16.542 -0.2653  0.2645 -0.0925
 8459TIP3    H146868   5.713   3.535  16.630  0.6530  0.3384 -0.2551
 8459TIP3    H246869   5.771   3.620  16.519 -0.0055 -0.6337 -1.3453
 8460TIP3   OH246870   3.532   1.243  12.555 -0.3042  0.2636  0.4122
 8460TIP3    H146871   3.539   1.217  12.464  0.3525 -0.2123  0.5993
 8460TIP3    H246872   3.453   1.298  12.558 -1.0986 -0.8312 -0.1809
 8461TIP3   OH246873   5.019   0.686  10.702  0.2884  0.4666  0.0734
 8461TIP3    H146874   4.944   0.629  10.721  1.2107 -0.1703  1.9285
 8461TIP3    H246875   5.041   0.667  10.611 -0.2419 -1.2226  0.2679
 8462TIP3   OH246876   5.318   3.246   2.618  0.2794 -0.1406  0.1383
 8462TIP3    H146877   5.302   3.211   2.531  0.2787  1.0376 -0.3312
 8462TIP3    H246878   5.287   3.177   2.677 -0.3626 -0.6492 -0.7798
 8463TIP3   OH246879   3.489   4.395   1.609  0.0481  0.6533 -0.0128
 8463TIP3    H146880   3.584   4.410   1.609  0.3185 -0.6736 -2.9871
 8463TIP3    H246881   3.454   4.467   1.557 -0.2989 -0.2534 -1.0454
 8464TIP3   OH246882   5.825   0.679   4.673  0.0313 -0.2735  0.1999
 8464TIP3    H146883   5.888   0.747   4.650  0.9035 -1.3933 -0.7151
 8464TIP3    H246884   5.776   0.664   4.593  0.4925 -1.4286  0.1349
 8465TIP3   OH246885   6.355   6.603  12.021 -0.0106  0.2418  0.6184
 8465TIP3    H146886   6.380   6.538  12.086 -1.9146 -1.4848 -0.3168
 8465TIP3    H246887   6.383   6.566  11.938 -1.6932  0.2937  0.0104
 8466TIP3   OH246888   5.541   0.017   0.698 -0.4694  0.1483  0.0065
 8466TIP3    H146889   5.467   0.016   0.638 -0.0273  0.3496 -0.5521
 8466TIP3    H246890   5.613   0.053   0.646  0.1416 -0.5017  0.4024
 8467TIP3   OH246891   4.884   2.177  16.159  0.3451  0.5429  0.2149
 8467TIP3    H146892   4.799   2.136  16.173  0.4545  0.1875 -0.1466
 8467TIP3    H246893   4.872   2.230  16.080  0.7820 -0.4263 -0.5124
 8468TIP3   OH246894   3.666   6.652  11.670  0.8583 -0.3688 -0.3637
 8468TIP3    H146895   3.627   6.624  11.753  0.7933  0.7268 -0.0148
 8468TIP3    H246896   3.665   6.574  11.616  1.4114 -1.2475  0.8580
 8469TIP3   OH246897   3.373   3.759  12.671  0.3490  0.0953 -0.1262
 8469TIP3    H146898   3.380   3.803  12.756 -1.7533 -2.0372  1.2354
 8469TIP3    H246899   3.444   3.694  12.672  0.0710 -0.2057  0.1836
 8470TIP3   OH246900   6.668   6.448   2.520 -0.5524 -0.0474 -0.1435
 8470TIP3    H146901   6.746   6.418   2.472 -0.9310  1.1170 -1.5336
 8470TIP3    H246902   6.678   6.410   2.607  2.3462  1.3093  0.1835
 8471TIP3   OH246903   5.500   6.155  16.340  0.3264  0.1786 -0.3820
 8471TIP3    H146904   5.468   6.214  16.272 -0.5125  0.2167  0.0383
 8471TIP3    H246905   5.582   6.195  16.370 -0.8486  1.7791  0.7470
 8472TIP3   OH246906   0.199   1.622   5.103  0.1889  0.4049 -0.2529
 8472TIP3    H146907   0.150   1.654   5.178  0.8816 -1.2381  0.9273
 8472TIP3    H246908   0.287   1.660   5.113  0.0815  0.7684 -0.6430
 8473TIP3   OH246909   3.853   1.075  10.968 -0.0537 -0.1506 -0.2269
 8473TIP3    H146910   3.943   1.068  11.001 -0.2888 -0.3999  0.3696
 8473TIP3    H246911   3.863   1.096  10.875  0.6210  0.0506 -0.1129
 8474TIP3   OH246912   2.889   1.380   4.557 -0.1359  0.1439  0.1983
 8474TIP3    H146913   2.865   1.393   4.649 -0.9825  2.1727 -0.2900
 8474TIP3    H246914   2.837   1.444   4.509  0.8073 -0.4271 -1.6352
 8475TIP3   OH246915   4.842   6.161   1.043  0.2686 -0.3672  0.5798
 8475TIP3    H146916   4.916   6.214   1.014  1.2523 -1.8401  0.2912
 8475TIP3    H246917   4.776   6.172   0.975  0.2553  0.8721  0.7811
 8476TIP3   OH246918   2.729   6.217   2.257 -0.2431 -0.2504 -0.1527
 8476TIP3    H146919   2.727   6.298   2.308 -1.3770  0.2085 -0.9023
 8476TIP3    H246920   2.735   6.147   2.322  2.0692  0.4763  0.4461
 8477TIP3   OH246921   4.176   4.597  16.134  0.0430  0.2279 -0.2426
 8477TIP3    H146922   4.222   4.526  16.179  0.1493  0.5047  0.0848
 8477TIP3    H246923   4.125   4.639  16.203 -0.0537  0.4421 -0.4458
 8478TIP3   OH246924   2.150   2.611  14.660  0.0394 -0.4720 -0.6164
 8478TIP3    H146925   2.148   2.647  14.571 -0.4723  0.1949 -0.3405
 8478TIP3    H246926   2.080   2.545  14.661 -1.3489  0.9871 -0.1029
 8479TIP3   OH246927   6.211   4.143   3.133 -0.8012  0.3299  0.2012
 8479TIP3    H146928   6.223   4.075   3.199 -1.0564  0.2049  0.1208
 8479TIP3    H246929   6.154   4.102   3.067  0.2943  0.0936 -0.6103
 8480TIP3   OH246930   3.447   2.471   0.635 -0.2315 -0.3603  0.1241
 8480TIP3    H146931   3.377   2.435   0.581 -1.2074  0.8179  0.5844
 8480TIP3    H246932   3.511   2.400   0.641 -0.8088 -1.0304 -1.3121
 8481TIP3   OH246933   5.682   3.387  15.347 -0.4630  0.8703 -0.4301
 8481TIP3    H146934   5.755   3.382  15.408  1.0547 -0.4682 -2.3241
 8481TIP3    H246935   5.604   3.375  15.402  0.7463  1.7795  1.5151
 8482TIP3   OH246936   2.678   4.579  14.986  0.2208 -0.3231 -0.2669
 8482TIP3    H146937   2.674   4.650  15.050 -0.5342 -0.0698 -0.5937
 8482TIP3    H246938   2.730   4.511  15.029 -1.1778 -0.5910  1.0389
 8483TIP3   OH246939   5.588   0.876  14.954  0.0252  0.4933 -0.1173
 8483TIP3    H146940   5.626   0.816  15.018  3.3375  2.9951  0.4242
 8483TIP3    H246941   5.562   0.953  15.006 -0.7536  1.0129 -1.2563
 8484TIP3   OH246942   0.256   2.364   4.519 -0.1335 -0.4378 -0.3485
 8484TIP3    H146943   0.230   2.326   4.435  0.4426 -0.8460 -0.3531
 8484TIP3    H246944   0.235   2.457   4.512  0.1545 -0.4226 -1.0505
 8485TIP3   OH246945   0.770   2.086   2.319 -0.1444 -0.7185 -0.9448
 8485TIP3    H146946   0.837   2.078   2.250 -0.7533 -0.9099 -1.5212
 8485TIP3    H246947   0.803   2.031   2.390  0.5843 -0.3755 -1.0071
 8486TIP3   OH246948   4.980   4.517   1.467  0.0416 -0.6199  0.2335
 8486TIP3    H146949   4.939   4.595   1.429  1.9027  0.8418  1.1352
 8486TIP3    H246950   4.909   4.472   1.513 -1.0822  0.4795 -0.4117
 8487TIP3   OH246951   3.705   4.621   6.481 -0.4448 -0.0172  0.0318
 8487TIP3    H146952   3.688   4.630   6.575 -1.0208  0.4300 -0.1134
 8487TIP3    H246953   3.751   4.701   6.456 -2.2388  0.8873 -0.4974
 8488TIP3   OH246954   5.414   1.480   4.873  0.3124 -0.0623 -0.1368
 8488TIP3    H146955   5.372   1.564   4.851 -1.0438 -1.0173 -1.2964
 8488TIP3    H246956   5.434   1.441   4.789  3.1278  0.1180  0.4048
 8489TIP3   OH246957   5.398   5.823   3.404  0.0789 -0.9498 -0.0887
 8489TIP3    H146958   5.326   5.805   3.343  0.7212 -0.0558 -1.1202
 8489TIP3    H246959   5.462   5.754   3.386  0.2523 -0.7084 -0.3971
 8490TIP3   OH246960   4.938   3.510  15.557 -0.0250  0.5226 -0.5633
 8490TIP3    H146961   4.939   3.445  15.626 -0.9056  0.9435 -0.1406
 8490TIP3    H246962   4.981   3.468  15.483 -0.0064 -0.2969 -0.0892
 8491TIP3   OH246963   4.232   6.399  16.588  0.0670  1.0337  0.2826
 8491TIP3    H146964   4.159   6.337  16.580  3.0993 -2.4703 -1.5651
 8491TIP3    H246965   4.236   6.442  16.503  0.6969  0.5401  0.0573
 8492TIP3   OH246966   3.618   3.552  15.438 -0.3663 -0.0876  0.0365
 8492TIP3    H146967   3.677   3.623  15.413 -0.0995  0.3871  1.9191
 8492TIP3    H246968   3.670   3.496  15.494 -1.6492  0.2950  1.6533
 8493TIP3   OH246969   6.077   4.157  14.264 -0.5519 -0.2100 -0.3238
 8493TIP3    H146970   6.121   4.097  14.324  1.1079  0.5913 -0.7071
 8493TIP3    H246971   6.039   4.224  14.321  0.7529  0.3783 -0.1323
 8494TIP3   OH246972   1.905   3.225   5.478  0.0107  0.0799 -0.7777
 8494TIP3    H146973   1.867   3.312   5.478 -1.7605 -0.6617 -1.7606
 8494TIP3    H246974   1.903   3.198   5.386  2.0730 -0.3658 -0.7334
 8495TIP3   OH246975   1.927   2.152   2.795 -0.2218  0.3736  0.1577
 8495TIP3    H146976   1.937   2.061   2.765  0.9295  0.1731  1.1361
 8495TIP3    H246977   1.931   2.203   2.714 -1.6718 -0.4742 -0.4966
 8496TIP3   OH246978   6.362   0.673   5.657  0.0785 -0.3970 -0.2254
 8496TIP3    H146979   6.403   0.595   5.621 -1.1229 -0.9128 -0.5263
 8496TIP3    H246980   6.390   0.744   5.598  1.8443 -0.4387  0.5370
 8497TIP3   OH246981   1.177   1.130  16.479 -0.2274 -0.1113 -0.1493
 8497TIP3    H146982   1.183   1.087  16.564 -0.5516 -0.1371 -0.1407
 8497TIP3    H246983   1.260   1.177  16.471 -0.2351 -0.0287  0.2241
 8498TIP3   OH246984   4.206   4.678   2.787 -0.2530  0.1351 -0.3111
 8498TIP3    H146985   4.234   4.739   2.855  1.1544  1.4229 -1.9952
 8498TIP3    H246986   4.120   4.710   2.760  0.1279  0.8890 -0.6302
 8499TIP3   OH246987   0.835   0.638   0.757 -0.2392 -0.4690  0.0448
 8499TIP3    H146988   0.929   0.653   0.745 -0.0588 -1.7482 -0.1359
 8499TIP3    H246989   0.817   0.555   0.713 -1.2435 -0.7788  1.0033
 8500TIP3   OH246990   2.953   5.982   3.152  0.0933  0.5308 -0.5789
 8500TIP3    H146991   2.952   6.051   3.218  1.0247  0.9145 -0.9560
 8500TIP3    H246992   2.871   5.935   3.165 -0.2864  1.3572  0.0502
 8501TIP3   OH246993   2.843   6.632   2.100  0.2047 -0.1128  0.6987
 8501TIP3    H146994   2.759   6.602   2.065 -0.7435  2.3049  0.7336
 8501TIP3    H246995   2.906   6.611   2.031 -0.6094 -1.0220  0.2159
 8502TIP3   OH246996   1.298   2.451   4.740 -0.7980  0.8353 -0.4958
 8502TIP3    H146997   1.242   2.484   4.670 -1.7049 -1.3109 -0.8329
 8502TIP3    H246998   1.237   2.408   4.801  0.4655 -1.9547 -1.1133
 8503TIP3   OH246999   2.998   0.215   3.940 -0.0405 -0.0178  0.1180
 8503TIP3    H147000   2.953   0.285   3.892 -0.7854  0.6925  1.8295
 8503TIP3    H247001   3.080   0.202   3.892  0.3285  2.3607  0.0693
 8504TIP3   OH247002   6.376   4.046  13.344  0.7758 -0.2101 -0.0521
 8504TIP3    H147003   6.407   3.960  13.373  0.9141 -0.0105  0.3855
 8504TIP3    H247004   6.307   4.026  13.281  3.2254 -0.7025 -2.7051
 8505TIP3   OH247005   1.276   4.202   2.987  0.4531 -0.6251 -0.0058
 8505TIP3    H147006   1.239   4.209   2.899  0.3346  1.0356  0.1694
 8505TIP3    H247007   1.360   4.159   2.975  0.6524  0.0497 -0.9780
 8506TIP3   OH247008   0.616   0.742   4.300 -0.7708 -0.0532 -0.2564
 8506TIP3    H147009   0.593   0.668   4.357  2.2170  0.1760  1.3439
 8506TIP3    H247010   0.673   0.705   4.233  2.8688  1.1402  2.0465
 8507TIP3   OH247011   6.487   6.597  16.692  0.0793  0.3017 -0.5235
 8507TIP3    H147012   6.473   6.651  16.770  0.2849 -1.3435  0.6646
 8507TIP3    H247013   6.569   6.629  16.655  1.4321 -0.7349  1.5019
 8508TIP3   OH247014   3.005   4.146  12.251 -0.1581  0.2629  0.0517
 8508TIP3    H147015   3.064   4.080  12.215 -0.6699 -1.7205  2.7356
 8508TIP3    H247016   2.948   4.170  12.178  1.8109 -0.2061 -1.6896
 8509TIP3   OH247017   3.022   1.324   6.129  0.3254  0.6444  0.2934
 8509TIP3    H147018   3.041   1.282   6.213 -0.5029 -0.8159 -0.2354
 8509TIP3    H247019   2.929   1.308   6.114  0.7454 -0.2272 -1.5130
 8510TIP3   OH247020   4.083   2.323   4.314 -0.2461  0.0037  0.0138
 8510TIP3    H147021   4.114   2.405   4.275 -0.7491  0.1149 -0.1514
 8510TIP3    H247022   3.994   2.342   4.342  0.7106  0.4678  2.8819
 8511TIP3   OH247023   1.978   6.711   3.319 -0.1131 -0.2022 -0.2652
 8511TIP3    H147024   2.027   6.708   3.401 -0.1857  1.6130 -0.1343
 8511TIP3    H247025   1.898   6.760   3.341 -0.1301  0.2988 -1.4081
 8512TIP3   OH247026   1.929   0.939   2.464 -0.5515 -0.2525 -0.2414
 8512TIP3    H147027   1.863   0.878   2.500 -2.8269  1.5200 -1.2964
 8512TIP3    H247028   1.905   0.948   2.372 -0.6178  2.6642  0.0198
 8513TIP3   OH247029   1.347   4.420   2.312  0.0383 -0.7020 -0.5143
 8513TIP3    H147030   1.285   4.351   2.288  0.6833 -1.0865 -1.1031
 8513TIP3    H247031   1.392   4.441   2.230  0.2623 -0.0021 -0.2157
 8514TIP3   OH247032   0.839   2.614   0.723 -0.2802  0.6925 -0.1182
 8514TIP3    H147033   0.933   2.619   0.704 -0.7320 -0.8631 -2.9574
 8514TIP3    H247034   0.829   2.534   0.774 -0.0543  0.9548  0.3421
 8515TIP3   OH247035   5.559   0.874   6.021 -0.4264 -0.0258  0.3574
 8515TIP3    H147036   5.624   0.943   6.031 -2.0784  1.6067 -0.0442
 8515TIP3    H247037   5.524   0.861   6.109 -0.8401  0.3580  0.2481
 8516TIP3   OH247038   3.923   0.069   1.629  0.1355  0.3825 -0.0271
 8516TIP3    H147039   3.972   0.053   1.548  1.2264  0.0218  0.6874
 8516TIP3    H247040   3.910  -0.017   1.666  0.2314  0.6042  0.5214
 8517TIP3   OH247041   0.242   2.563   5.961 -0.2430  0.6592  0.1781
 8517TIP3    H147042   0.283   2.642   5.927  0.5313 -0.0396 -0.5089
 8517TIP3    H247043   0.168   2.596   6.013  0.1554  1.8362  0.0224
 8518TIP3   OH247044   0.808   4.302  11.671 -0.5481 -0.0505  0.1983
 8518TIP3    H147045   0.779   4.296  11.580  0.4528 -0.7978 -0.0738
 8518TIP3    H247046   0.728   4.323  11.720 -0.8094  1.9906 -1.0427
 8519TIP3   OH247047   2.776   5.500  14.020 -0.3695 -0.1302  0.1670
 8519TIP3    H147048   2.822   5.535  14.096  0.9283 -0.1290 -0.5993
 8519TIP3    H247049   2.836   5.435  13.983 -1.1452 -0.4066 -0.6433
 8520TIP3   OH247050   3.365   4.511  12.849 -0.1722 -0.0197  0.3991
 8520TIP3    H147051   3.399   4.492  12.761  1.4675 -1.4547  1.3182
 8520TIP3    H247052   3.435   4.559  12.892  0.1337 -1.7047  1.8254
 8521TIP3   OH247053   3.500   2.895   4.909  0.4974 -0.4046 -0.4625
 8521TIP3    H147054   3.475   2.803   4.895 -0.1696 -0.1679 -0.8418
 8521TIP3    H247055   3.440   2.945   4.854  0.1844  0.3269  0.5305
 8522TIP3   OH247056   1.766   6.321   2.837 -0.5053 -0.0648 -0.2939
 8522TIP3    H147057   1.798   6.286   2.754  1.2787  1.0674 -0.1073
 8522TIP3    H247058   1.678   6.284   2.846  0.0668 -1.8241 -1.6819
 8523TIP3   OH247059   5.458   1.485  13.264 -0.2731  0.8614  0.1975
 8523TIP3    H147060   5.420   1.573  13.267 -0.7715  0.6158  1.2665
 8523TIP3    H247061   5.427   1.443  13.344  0.7269  0.0184  0.1452
 8524TIP3   OH247062   1.303   4.653   1.287 -0.3577  0.2309  0.4932
 8524TIP3    H147063   1.209   4.657   1.269 -0.6085 -0.2974  1.6886
 8524TIP3    H247064   1.315   4.575   1.340  1.1054 -1.0858 -1.6726
 8525TIP3   OH247065   6.439   6.280  14.369 -0.4403 -0.4518  0.3322
 8525TIP3    H147066   6.367   6.336  14.340 -0.0325  0.5000  1.1491
 8525TIP3    H247067   6.518   6.328  14.345 -0.0639 -1.4244 -0.4187
 8526TIP3   OH247068   5.165   0.266   2.822  0.1451  0.5002  0.3652
 8526TIP3    H147069   5.123   0.297   2.742 -0.3977  1.3644  0.9689
 8526TIP3    H247070   5.102   0.286   2.891  0.2843 -0.9295  0.9250
 8527TIP3   OH247071   2.365   1.325  17.049  0.8774 -0.0020 -0.1877
 8527TIP3    H147072   2.369   1.325  16.953  0.0879  0.1267 -0.2260
 8527TIP3    H247073   2.387   1.235  17.074  1.6644  0.1164 -0.4647
 8528TIP3   OH247074   2.226   6.196   4.105  0.5744 -0.0305  0.3181
 8528TIP3    H147075   2.294   6.214   4.170 -0.0869 -0.6003  1.1802
 8528TIP3    H247076   2.234   6.103   4.087  1.2618  0.2662 -1.0188
 8529TIP3   OH247077   0.033   6.045  16.342  0.0183 -0.4172 -0.0033
 8529TIP3    H147078  -0.036   6.035  16.277 -0.4914 -1.5388  0.7047
 8529TIP3    H247079   0.114   6.041  16.291 -0.4392  2.4712 -1.0390
 8530TIP3   OH247080   3.679   5.333   6.452  0.1269  0.2434 -0.1647
 8530TIP3    H147081   3.612   5.385   6.409 -1.0285 -0.7027  0.4406
 8530TIP3    H247082   3.762   5.371   6.424 -0.6185  0.3491 -2.3167
 8531TIP3   OH247083   0.101   2.215  13.678  0.2580 -0.2544  0.2569
 8531TIP3    H147084   0.146   2.256  13.751 -0.4727 -2.2967  1.9228
 8531TIP3    H247085   0.166   2.154  13.642  0.6941  0.9184 -0.9563
 8532TIP3   OH247086   3.528   5.498   6.310  0.1178 -0.3944  0.1357
 8532TIP3    H147087   3.591   5.568   6.327 -0.1079 -0.4438  1.2349
 8532TIP3    H247088   3.443   5.542   6.308 -0.1384 -0.7515  1.8785
 8533TIP3   OH247089   0.693   0.604  12.042 -0.0334 -0.6594 -0.3718
 8533TIP3    H147090   0.659   0.684  12.003  1.6178  0.0153 -0.4981
 8533TIP3    H247091   0.776   0.589  11.997  1.7027 -0.1195  2.4972
 8534TIP3   OH247092   5.392   3.672  11.474 -0.1255  0.2499 -0.1327
 8534TIP3    H147093   5.344   3.591  11.496  0.3982 -0.0271 -0.0050
 8534TIP3    H247094   5.441   3.693  11.554 -0.5806  0.9259 -0.0266
 8535TIP3   OH247095   4.573   3.379   6.725  0.1039  0.2334  0.0299
 8535TIP3    H147096   4.626   3.451   6.759 -0.6554  0.7373  0.1497
 8535TIP3    H247097   4.483   3.402   6.749  0.0619 -1.7916  1.9343
 8536TIP3   OH247098   1.200   6.173   0.577  0.0245  0.2758 -0.2327
 8536TIP3    H147099   1.250   6.254   0.583  0.9501 -0.1860 -1.3277
 8536TIP3    H247100   1.160   6.162   0.663  0.9471  1.2152  0.3261
 8537TIP3   OH247101   2.764   6.000  11.209 -0.5733  0.1348 -0.0236
 8537TIP3    H147102   2.687   5.943  11.209 -0.9377  0.6252  1.8150
 8537TIP3    H247103   2.814   5.971  11.132 -1.0229 -2.3029  0.5730
 8538TIP3   OH247104   2.863   6.730   5.929 -0.3906 -1.1584 -0.4685
 8538TIP3    H147105   2.958   6.742   5.937 -0.5820  0.5427 -0.4941
 8538TIP3    H247106   2.835   6.705   6.017 -0.4632  2.6852  0.7016
 8539TIP3   OH247107   3.904   1.615   0.143  0.7846  0.1767 -0.4293
 8539TIP3    H147108   3.876   1.699   0.179  1.4979 -0.1657  0.9615
 8539TIP3    H247109   3.829   1.557   0.155  0.2970  0.6008 -1.3784
 8540TIP3   OH247110   2.495   0.052   2.368  0.2035  0.3180 -0.0940
 8540TIP3    H147111   2.454  -0.006   2.434  0.6673  0.6980  0.5359
 8540TIP3    H247112   2.422   0.100   2.330 -0.3317 -1.4858 -1.4320
 8541TIP3   OH247113   4.483   3.487   2.808 -0.0174  0.3643 -0.8101
 8541TIP3    H147114   4.428   3.422   2.852  0.8037 -0.7805 -1.4428
 8541TIP3    H247115   4.572   3.462   2.832  0.2967  1.4759 -0.7880
 8542TIP3   OH247116   6.810   1.444  15.311  0.0428 -0.1279  0.1604
 8542TIP3    H147117   6.780   1.531  15.284 -0.6427 -0.0651  1.1033
 8542TIP3    H247118   6.875   1.419  15.245 -1.7622 -0.0868 -1.6651
 8543TIP3   OH247119   2.821   5.583   2.695 -0.6381  0.1264  0.4054
 8543TIP3    H147120   2.794   5.536   2.616 -0.6445  1.9263 -0.6876
 8543TIP3    H247121   2.905   5.623   2.672  0.9038 -1.8612  2.3512
 8544TIP3   OH247122   1.218   1.097  14.393 -0.0054  0.3035 -0.3122
 8544TIP3    H147123   1.180   1.149  14.463 -0.9309  0.8066 -1.1885
 8544TIP3    H247124   1.229   1.158  14.320  2.1045  0.0899 -0.2306
 8545TIP3   OH247125   3.998   4.388  15.294  0.2840 -0.4236 -0.7652
 8545TIP3    H147126   4.057   4.367  15.221  2.6451 -0.7954  1.1986
 8545TIP3    H247127   4.028   4.473  15.325 -0.8385 -0.1754 -0.3431
 8546TIP3   OH247128   1.150   4.021   2.221  0.5793 -0.6195 -0.5018
 8546TIP3    H147129   1.110   4.108   2.230 -1.0281 -1.4104  0.1362
 8546TIP3    H247130   1.158   3.989   2.311  0.2301 -1.5365 -0.7898
 8547TIP3   OH247131   2.862   5.699   2.030 -0.5410  0.7490  0.2189
 8547TIP3    H147132   2.855   5.676   1.937 -0.7078 -2.8094  1.0243
 8547TIP3    H247133   2.945   5.746   2.037 -1.1446  2.2184 -1.9053
 8548TIP3   OH247134   6.411   4.818  16.668 -0.1627  0.0266  0.2429
 8548TIP3    H147135   6.325   4.812  16.709 -1.2891  1.6554 -1.7672
 8548TIP3    H247136   6.465   4.866  16.730 -1.4255  1.2176  0.4349
 8549TIP3   OH247137   1.556   0.873   0.819 -0.0035 -0.9902  0.0263
 8549TIP3    H147138   1.512   0.932   0.880  1.8176  1.6758 -1.1335
 8549TIP3    H247139   1.596   0.806   0.874 -0.9915 -0.3934  1.4838
 8550TIP3   OH247140   6.612   0.215   6.242  0.1583  0.2176 -0.1873
 8550TIP3    H147141   6.593   0.181   6.155  1.3108  0.8534 -0.7086
 8550TIP3    H247142   6.704   0.191   6.257  0.7457  2.3506 -0.2283
 8551TIP3   OH247143   4.494   3.345   0.602 -0.2890  0.8570 -0.2682
 8551TIP3    H147144   4.437   3.408   0.559 -0.7716  1.4793  1.2438
 8551TIP3    H247145   4.570   3.396   0.629  0.0832  0.4409 -0.5206
 8552TIP3   OH247146   3.922   4.974  12.198  0.0665  0.2323  0.4026
 8552TIP3    H147147   3.841   4.985  12.247 -0.0398  2.3643 -0.1926
 8552TIP3    H247148   3.942   5.062  12.165  1.3024 -0.7393 -1.5120
 8553TIP3   OH247149   3.258   0.925  17.268  0.4045  0.6815  0.0001
 8553TIP3    H147150   3.316   0.851  17.284 -0.7464 -0.2406  0.0246
 8553TIP3    H247151   3.282   0.956  17.180  0.7888  0.1749 -0.0739
 8554TIP3   OH247152   4.337   2.960   3.411 -0.2235  0.5506 -0.2102
 8554TIP3    H147153   4.335   2.990   3.502 -0.3876 -0.2872  0.0617
 8554TIP3    H247154   4.428   2.974   3.383 -0.1868  0.8628  0.0626
 8555TIP3   OH247155   2.038   0.293   4.255  0.3978  0.1893  0.1176
 8555TIP3    H147156   2.094   0.264   4.326  0.0521  0.2320  0.4121
 8555TIP3    H247157   2.035   0.389   4.264  0.1596  0.1749  0.1927
 8556TIP3   OH247158   1.786   6.001  10.687  0.2576 -0.0716 -0.2443
 8556TIP3    H147159   1.817   6.027  10.601  2.5001 -0.7109  0.3519
 8556TIP3    H247160   1.697   5.967  10.672  0.3060  0.6301 -2.1461
 8557TIP3   OH247161   4.112   1.114  13.711  0.3305 -0.0626 -0.0179
 8557TIP3    H147162   4.037   1.082  13.760  0.0734  1.8300  0.8661
 8557TIP3    H247163   4.108   1.209  13.720  2.0371  0.1366 -1.1230
 8558TIP3   OH247164   2.474   5.059  15.388  0.6135  0.1451 -0.1184
 8558TIP3    H147165   2.442   4.988  15.332  0.8259  0.1671 -0.2671
 8558TIP3    H247166   2.419   5.134  15.365  0.2594 -0.0177  0.1731
 8559TIP3   OH247167   5.780   1.101  12.961  0.8028  0.3147 -0.0610
 8559TIP3    H147168   5.712   1.157  12.924 -0.7184 -0.3947  1.5615
 8559TIP3    H247169   5.810   1.149  13.039  0.4718 -0.4706  0.5570
 8560TIP3   OH247170   4.892   0.147  15.795  0.1607  0.1145  0.1373
 8560TIP3    H147171   4.947   0.207  15.746 -0.3868  0.5843  0.0936
 8560TIP3    H247172   4.823   0.122  15.733 -0.6857  0.9229  0.7532
 8561TIP3   OH247173   2.786   1.737  16.034 -0.4063 -0.5365 -0.5946
 8561TIP3    H147174   2.807   1.806  15.971 -1.2976 -2.0175 -2.5735
 8561TIP3    H247175   2.692   1.723  16.025 -0.6427 -0.4290  1.4567
 8562TIP3   OH247176   0.660   2.924   1.334 -0.4679 -0.1421  0.3444
 8562TIP3    H147177   0.596   2.872   1.286  0.5983  0.0721 -1.3659
 8562TIP3    H247178   0.658   3.010   1.292 -0.4274  0.4500  1.5210
 8563TIP3   OH247179   1.322   3.874   0.443  0.4083  0.2460  0.7134
 8563TIP3    H147180   1.314   3.816   0.367 -1.0194 -0.3346  1.2983
 8563TIP3    H247181   1.253   3.939   0.431 -0.1916 -0.1844  1.7985
 8564TIP3   OH247182   0.407   4.702  10.962  0.0240 -0.1344  0.4015
 8564TIP3    H147183   0.423   4.669  10.874  1.8227 -0.4817  0.8322
 8564TIP3    H247184   0.436   4.793  10.960  0.1428 -0.1656  0.6515
 8565TIP3   OH247185   5.877   6.322  16.894  0.6689 -0.1451  0.0357
 8565TIP3    H147186   5.967   6.294  16.876  0.6856 -0.0630 -0.0076
 8565TIP3    H247187   5.853   6.374  16.817  1.4340  1.8985  1.1362
 8566TIP3   OH247188   0.046   5.305   0.113 -0.3857 -0.1890  0.1409
 8566TIP3    H147189   0.138   5.278   0.110  0.3662  2.1625  0.9506
 8566TIP3    H247190   0.047   5.397   0.086 -2.4113  0.0630  0.8389
 8567TIP3   OH247191   6.112   2.631  12.649  0.0223 -0.0829  0.2707
 8567TIP3    H147192   6.118   2.697  12.579  1.4478 -1.1946 -0.6788
 8567TIP3    H247193   6.196   2.636  12.694 -0.2691 -0.5287  0.8609
 8568TIP3   OH247194   1.003   4.894  13.077 -0.1985 -0.4019 -0.4960
 8568TIP3    H147195   0.994   4.884  13.172  2.0246  0.1412 -0.2063
 8568TIP3    H247196   1.003   4.988  13.063 -2.0224 -0.4920 -1.2154
 8569TIP3   OH247197   6.061   6.552  13.022 -0.4807  0.1340 -0.2253
 8569TIP3    H147198   6.006   6.626  12.997  0.3539 -0.3759 -3.9236
 8569TIP3    H247199   6.003   6.475  13.012 -0.4051  0.0094  0.3166
 8570TIP3   OH247200   0.887   0.026   3.125 -0.5259  0.7112 -0.4991
 8570TIP3    H147201   0.845   0.015   3.210  1.1201 -0.2048  0.2145
 8570TIP3    H247202   0.961   0.084   3.142 -0.5015  0.9516 -1.4007
 8571TIP3   OH247203   2.012   1.577   1.003  0.5721 -0.1463  0.3522
 8571TIP3    H147204   1.951   1.585   1.075 -1.1320 -1.8733 -0.8524
 8571TIP3    H247205   2.007   1.661   0.957 -0.8630 -0.2546  0.3005
 8572TIP3   OH247206   0.738   6.678   5.166 -0.0801 -0.0066  0.2650
 8572TIP3    H147207   0.687   6.650   5.089  2.4777 -1.2440 -1.0291
 8572TIP3    H247208   0.672   6.689   5.235 -1.9479 -2.9777 -0.9419
 8573TIP3   OH247209   2.379   1.778   4.715  0.4159  0.6237  0.5788
 8573TIP3    H147210   2.463   1.753   4.753  0.5873 -0.8973 -0.7665
 8573TIP3    H247211   2.401   1.820   4.632 -0.2007 -1.7870 -0.8687
 8574TIP3   OH247212   5.732   1.598  14.832  0.0338  0.4728 -0.0763
 8574TIP3    H147213   5.711   1.536  14.762 -0.1820  2.3144 -1.6773
 8574TIP3    H247214   5.650   1.609  14.879 -0.8676  2.2070 -1.9670
 8575TIP3   OH247215   2.495   3.775  10.920  0.1451  0.3132 -0.2488
 8575TIP3    H147216   2.515   3.777  11.013 -1.7047  3.1081  0.1517
 8575TIP3    H247217   2.547   3.702  10.885 -0.7759 -2.1146  3.2945
 8576TIP3   OH247218   5.482   1.627   2.553  0.0378 -0.2616 -0.3167
 8576TIP3    H147219   5.512   1.717   2.537  0.6163 -0.5586 -0.9012
 8576TIP3    H247220   5.555   1.572   2.528 -0.0224 -0.8719  0.8214
 8577TIP3   OH247221   3.209   4.316   2.451 -0.4185  0.2735 -0.3429
 8577TIP3    H147222   3.294   4.358   2.438  0.1362  0.4515  3.1622
 8577TIP3    H247223   3.167   4.366   2.521 -2.3432 -1.3145 -0.2875
 8578TIP3   OH247224   3.045   3.737  12.340  0.0352  0.1369 -0.4375
 8578TIP3    H147225   3.128   3.779  12.362 -0.5810  0.5799  1.1008
 8578TIP3    H247226   3.026   3.681  12.415 -0.4316 -0.9431 -1.3465
 8579TIP3   OH247227   6.105   4.750   2.909 -0.1682 -0.2338  0.3589
 8579TIP3    H147228   6.013   4.728   2.921 -0.8271  0.0110 -3.6709
 8579TIP3    H247229   6.137   4.686   2.845  2.4392 -0.2001  1.5521
 8580TIP3   OH247230   5.075   0.262  15.313 -0.1634  0.3403  0.1499
 8580TIP3    H147231   4.983   0.242  15.327 -0.1192 -0.6583 -0.9579
 8580TIP3    H247232   5.120   0.179  15.328  0.5160  0.7295  0.2867
 8581TIP3   OH247233   2.401   5.186  13.122  0.1698  0.3237  0.0130
 8581TIP3    H147234   2.433   5.232  13.045  0.9331  0.9708  0.7029
 8581TIP3    H247235   2.344   5.249  13.165 -1.4557 -0.5680 -0.8137
 8582TIP3   OH247236   2.533   5.078   3.573 -0.0793  0.2155 -0.4624
 8582TIP3    H147237   2.485   5.115   3.499 -1.4069  1.0262  0.7916
 8582TIP3    H247238   2.600   5.022   3.532 -0.6532  0.8148 -2.2689
 8583TIP3   OH247239   5.449   3.445   2.445  0.0039 -0.2783  0.5300
 8583TIP3    H147240   5.394   3.522   2.430  0.4414  0.2483  1.5757
 8583TIP3    H247241   5.434   3.422   2.537 -1.1147 -2.2349 -0.1054
 8584TIP3   OH247242   0.132   0.705   2.904 -0.4788 -0.3863 -0.4148
 8584TIP3    H147243   0.166   0.677   2.819 -2.0172  0.8087 -1.4589
 8584TIP3    H247244   0.037   0.695   2.897 -0.5371 -1.4656  1.6233
 8585TIP3   OH247245   5.730   6.211   1.107 -0.1011  0.2197 -0.1089
 8585TIP3    H147246   5.776   6.294   1.120 -2.0928  1.2078  1.0601
 8585TIP3    H247247   5.760   6.155   1.179 -0.5416  0.7908  0.5327
 8586TIP3   OH247248   4.559   1.541  12.298 -0.0672  0.1097  0.5337
 8586TIP3    H147249   4.615   1.464  12.290 -0.0570  0.0857  0.8158
 8586TIP3    H247250   4.479   1.518  12.252  0.1815  0.1685  0.0710
 8587TIP3   OH247251   6.456   1.049  14.540  0.4816 -0.3171 -0.3900
 8587TIP3    H147252   6.519   1.047  14.613  0.7907 -0.1145 -0.6501
 8587TIP3    H247253   6.389   0.986  14.565 -0.1323  0.7513  0.7204
 8588TIP3   OH247254   0.949   4.855  16.445 -0.0454 -0.0224 -0.1000
 8588TIP3    H147255   1.012   4.833  16.376 -0.6126  1.1667 -1.0210
 8588TIP3    H247256   0.939   4.950  16.438  0.1594  0.1686  1.8674
 8589TIP3   OH247257   5.349   5.125   0.087 -0.9471 -0.2406  0.5067
 8589TIP3    H147258   5.318   5.083   0.007  0.1641  1.2061 -0.7213
 8589TIP3    H247259   5.271   5.130   0.143 -3.1321  3.5518 -2.5999
 8590TIP3   OH247260   5.406   4.384  14.988 -0.6000 -0.0461 -0.2523
 8590TIP3    H147261   5.489   4.374  15.034 -1.1330 -0.3480  0.6479
 8590TIP3    H247262   5.412   4.324  14.914 -0.6285 -1.2170  0.6814
 8591TIP3   OH247263   6.800   6.303  15.263 -0.3242 -0.2403  0.0719
 8591TIP3    H147264   6.847   6.353  15.196 -0.3288 -0.2322  0.0753
 8591TIP3    H247265   6.726   6.359  15.287 -0.3677 -0.2781  0.0270
 8592TIP3   OH247266   1.277   5.266   1.048  0.1596 -0.1433  0.6634
 8592TIP3    H147267   1.319   5.251   1.133  0.0638  0.5515  0.8297
 8592TIP3    H247268   1.243   5.355   1.053 -0.1592 -0.2289  0.0252
 8593TIP3   OH247269   6.646   4.531   3.281  0.1677 -0.1529  0.1327
 8593TIP3    H147270   6.593   4.452   3.283 -0.4830  0.2587 -0.7778
 8593TIP3    H247271   6.665   4.549   3.373 -2.0861  0.2321  0.5615
 8594TIP3   OH247272   2.369   1.348  16.785 -0.6629 -0.1674  0.2121
 8594TIP3    H147273   2.327   1.277  16.737  3.3081 -1.6657 -1.3211
 8594TIP3    H247274   2.349   1.427  16.734 -2.7659 -0.5746  0.3636
 8595TIP3   OH247275   4.449   5.818   0.470  0.2922  0.1058 -0.6767
 8595TIP3    H147276   4.510   5.859   0.531  0.7219 -0.6396 -0.5908
 8595TIP3    H247277   4.375   5.878   0.465 -0.0481 -0.1450  1.1099
 8596TIP3   OH247278   0.051   4.899  13.250 -0.2707  0.9624 -1.0030
 8596TIP3    H147279   0.144   4.883  13.236 -0.3482  0.7359 -1.2688
 8596TIP3    H247280   0.048   4.954  13.328  0.0324 -0.0590 -0.2489
 8597TIP3   OH247281   1.743   2.007   6.204  0.0350 -0.5694  0.6979
 8597TIP3    H147282   1.770   2.097   6.186 -1.2558 -0.0721  1.1764
 8597TIP3    H247283   1.805   1.953   6.155 -0.2762  0.6324 -1.0657
 8598TIP3   OH247284   0.564   2.452   5.391 -0.0226 -0.3107 -0.3702
 8598TIP3    H147285   0.638   2.509   5.372  0.1480 -0.0085  1.1330
 8598TIP3    H247286   0.573   2.379   5.329  1.1349  0.0670 -0.6581
 8599TIP3   OH247287   2.987   0.210   3.127  0.0132  0.1387 -0.2568
 8599TIP3    H147288   3.052   0.144   3.149 -2.1978 -2.4447 -1.1640
 8599TIP3    H247289   3.009   0.235   3.037  0.5484  0.2667 -0.0939
 8600TIP3   OH247290   1.336   2.534   5.703 -0.7611 -0.7439  0.2400
 8600TIP3    H147291   1.326   2.514   5.797 -0.1431 -1.0484  0.2475
 8600TIP3    H247292   1.406   2.600   5.700  0.3036 -1.8645 -0.1079
 8601TIP3   OH247293   2.690   3.357   2.429 -0.5729  0.5001  0.2967
 8601TIP3    H147294   2.633   3.286   2.458 -0.2369 -0.4588 -1.2774
 8601TIP3    H247295   2.645   3.394   2.352  0.7485 -0.0663 -0.7707
 8602TIP3   OH247296   0.222   4.109  15.518 -0.8033 -0.0843  0.2344
 8602TIP3    H147297   0.192   4.078  15.604  1.0422 -0.3513  0.7935
 8602TIP3    H247298   0.277   4.185  15.538 -1.8646  0.9887 -0.8489
 8603TIP3   OH247299   6.215   4.456   2.176  0.4777  0.6151  0.0011
 8603TIP3    H147300   6.297   4.506   2.181  1.3301 -0.7722  0.2595
 8603TIP3    H247301   6.239   4.369   2.208 -1.0786  0.1568 -0.0604
 8604TIP3   OH247302   2.094   2.214   2.988 -0.2663 -0.3989 -0.4889
 8604TIP3    H147303   2.040   2.192   2.912  0.5634  0.5427 -1.3605
 8604TIP3    H247304   2.102   2.132   3.036 -2.6576 -0.5045 -0.2231
 8605TIP3   OH247305   2.789   0.406   3.874 -0.2784  0.9948  0.2923
 8605TIP3    H147306   2.806   0.454   3.955 -1.0028  2.6182 -0.4899
 8605TIP3    H247307   2.747   0.470   3.817  1.2553  0.1878 -1.7909
 8606TIP3   OH247308   0.611   6.725  16.767 -0.0432  0.3433  0.0372
 8606TIP3    H147309   0.620   6.632  16.746  1.9494  0.3091  0.9391
 8606TIP3    H247310   0.681   6.767  16.717 -0.9133  1.3749 -0.3373
 8607TIP3   OH247311   5.817   1.286   2.656  0.6689 -0.2052  0.3626
 8607TIP3    H147312   5.884   1.263   2.721  0.7095 -1.3359 -0.0649
 8607TIP3    H247313   5.747   1.223   2.671  0.7883 -0.6377 -0.8520
 8608TIP3   OH247314   4.073   4.226   6.177 -0.4521 -0.4791 -0.3045
 8608TIP3    H147315   4.126   4.149   6.155 -0.0904  0.3467 -2.4864
 8608TIP3    H247316   3.984   4.203   6.151 -0.7445 -0.9739  1.1153
 8609TIP3   OH247317   6.779   2.924   2.416  0.0568  0.0930 -1.1090
 8609TIP3    H147318   6.840   2.852   2.432 -2.1333 -1.8675 -1.3969
 8609TIP3    H247319   6.714   2.888   2.356 -1.3262  2.1819 -0.9135
 8610TIP3   OH247320   2.866   0.437   0.813  0.3543 -0.2803 -0.9602
 8610TIP3    H147321   2.929   0.504   0.840  0.7720 -0.9087 -0.3710
 8610TIP3    H247322   2.910   0.354   0.829 -0.9673 -0.7580  0.3460
 8611TIP3   OH247323   4.333   3.849   2.132  0.3682 -0.1847 -0.2608
 8611TIP3    H147324   4.415   3.850   2.181  0.1421  0.8169  0.1129
 8611TIP3    H247325   4.342   3.920   2.069 -0.4642  0.3636  0.2205
 8612TIP3   OH247326   1.193   6.349  11.952 -0.3972  0.6426 -0.5495
 8612TIP3    H147327   1.250   6.368  12.026 -0.7814  1.3205 -0.4260
 8612TIP3    H247328   1.113   6.314  11.992  0.3191 -1.3263 -0.7732
 8613TIP3   OH247329   4.739   5.981   4.436 -0.4375  0.0619  0.3867
 8613TIP3    H147330   4.726   6.011   4.526  1.0803 -0.2583  0.7362
 8613TIP3    H247331   4.731   6.060   4.383 -0.6227  0.3751  0.8788
 8614TIP3   OH247332   3.118   0.526   4.773 -0.1850  0.6704 -0.4555
 8614TIP3    H147333   3.080   0.452   4.821 -1.1755  0.4287 -1.5937
 8614TIP3    H247334   3.138   0.591   4.841 -1.8557  0.4525  0.2637
 8615TIP3   OH247335   2.501   6.039  15.327 -0.6476 -0.7019 -0.1333
 8615TIP3    H147336   2.478   5.951  15.295 -2.1112 -0.6299  0.6709
 8615TIP3    H247337   2.566   6.022  15.396  0.3462 -1.0290 -1.1230
 8616TIP3   OH247338   5.756   4.793  14.328  0.0261  0.1042  0.1766
 8616TIP3    H147339   5.676   4.741  14.315 -0.8529  0.9135  2.2072
 8616TIP3    H247340   5.738   4.876  14.284  0.1975 -0.1128 -0.3130
 8617TIP3   OH247341   2.845   2.592   3.798 -0.3555 -0.1693  0.2882
 8617TIP3    H147342   2.922   2.557   3.753  0.4247  0.9365  0.7314
 8617TIP3    H247343   2.878   2.617   3.885 -1.6869 -1.6279  1.2207
 8618TIP3   OH247344   5.371   4.004  12.933  0.0664  0.7065 -0.0044
 8618TIP3    H147345   5.444   4.000  12.871  1.1842 -3.0608  1.4212
 8618TIP3    H247346   5.306   3.942  12.898  1.2003 -2.3529  3.0485
 8619TIP3   OH247347   6.044   0.404  15.076 -0.1990 -0.4244 -0.0399
 8619TIP3    H147348   6.007   0.375  15.159 -0.3902  0.2435  0.1078
 8619TIP3    H247349   6.049   0.499  15.084  2.5476 -0.5801  0.3549
 8620TIP3   OH247350   4.528   1.713  15.894 -0.5410 -0.4170 -0.4416
 8620TIP3    H147351   4.497   1.759  15.817 -1.2021  0.1741  0.1760
 8620TIP3    H247352   4.528   1.778  15.963  1.8791 -0.4515 -0.3607
 8621TIP3   OH247353   1.219   1.565  16.058  0.4103  0.0278  0.1117
 8621TIP3    H147354   1.204   1.627  16.129  0.5775 -0.5680  0.6650
 8621TIP3    H247355   1.210   1.479  16.098 -0.9562 -0.3183 -0.8985
 8622TIP3   OH247356   5.333   3.288   2.254 -0.1279 -0.2644 -0.8168
 8622TIP3    H147357   5.264   3.354   2.249 -2.5461 -2.3511  2.8921
 8622TIP3    H247358   5.398   3.326   2.314  2.6607  2.1369 -5.0832
 8623TIP3   OH247359   3.019   4.359   0.078  0.0789  0.1136  0.3729
 8623TIP3    H147360   3.015   4.382   0.171  0.6342  1.2274  0.1271
 8623TIP3    H247361   3.065   4.275   0.077 -0.1835 -0.0435  1.1323
 8624TIP3   OH247362   6.625   2.611   2.183  0.8005  0.0593  0.5215
 8624TIP3    H147363   6.707   2.643   2.147 -0.6360  0.3292 -2.6502
 8624TIP3    H247364   6.591   2.684   2.234  0.7446  1.2614 -1.2104
 8625TIP3   OH247365   1.805   1.976  11.655 -0.3257  0.1622  0.0735
 8625TIP3    H147366   1.787   1.883  11.637 -1.2537  0.3493  0.0139
 8625TIP3    H247367   1.738   2.001  11.718 -0.7499  1.0753 -0.7279
 8626TIP3   OH247368   0.192   2.178  16.126  0.4729 -0.2195 -0.5843
 8626TIP3    H147369   0.140   2.122  16.184  0.2652  0.3382 -0.2255
 8626TIP3    H247370   0.277   2.134  16.121 -0.5932 -2.1717 -2.7043
 8627TIP3   OH247371   3.732   0.390  11.332 -0.0198 -0.1865  0.3051
 8627TIP3    H147372   3.677   0.467  11.320  0.0960 -0.0986  0.3354
 8627TIP3    H247373   3.741   0.382  11.427  0.9874  0.4923  0.2821
 8628TIP3   OH247374   0.669   0.826  16.724  0.6595 -0.1554  0.3795
 8628TIP3    H147375   0.732   0.881  16.678 -0.5764  0.4539 -0.6036
 8628TIP3    H247376   0.711   0.740  16.728  1.4967  0.2081 -0.3859
 8629TIP3   OH247377   4.475   1.276   4.852 -0.6829 -0.1380  0.3022
 8629TIP3    H147378   4.537   1.349   4.850 -0.0917 -0.4394  3.8134
 8629TIP3    H247379   4.525   1.201   4.821 -0.0529  0.1218  0.6764
 8630TIP3   OH247380   1.090   3.845  15.472 -0.1742 -0.4577  0.0750
 8630TIP3    H147381   1.167   3.862  15.419  0.8768  0.6931  1.8931
 8630TIP3    H247382   1.030   3.916  15.450  0.0039 -0.3423 -0.0420
 8631TIP3   OH247383   0.891   2.450   4.700  0.2302 -0.5910 -0.1789
 8631TIP3    H147384   0.863   2.456   4.609  0.4733 -0.6794 -0.2596
 8631TIP3    H247385   0.979   2.490   4.701  0.7071 -1.6328 -0.1978
 8632TIP3   OH247386   5.568   4.444   6.555 -0.2144  0.0351  0.1964
 8632TIP3    H147387   5.482   4.456   6.596 -0.1029  0.0545  0.4263
 8632TIP3    H247388   5.602   4.364   6.594  0.3536  0.6303  0.9489
 8633TIP3   OH247389   0.055   5.193   4.101  0.2237  0.5374 -0.2722
 8633TIP3    H147390   0.090   5.139   4.171 -0.1758 -0.9782 -1.2309
 8633TIP3    H247391   0.012   5.266   4.146 -2.1086 -1.6589  1.1518
 8634TIP3   OH247392   1.658   0.598  16.074 -0.1649 -0.0011  0.0623
 8634TIP3    H147393   1.664   0.530  16.141 -1.7211  0.3400  0.5700
 8634TIP3    H247394   1.627   0.552  15.996 -1.2431  0.1137  0.4132
 8635TIP3   OH247395   3.223   2.286  17.052  0.1567 -0.1163  0.0267
 8635TIP3    H147396   3.132   2.301  17.077 -0.6863 -1.3833 -2.1205
 8635TIP3    H247397   3.230   2.323  16.964  1.9732  0.7588  0.5162
 8636TIP3   OH247398   3.372   0.376  15.020  0.0707 -0.3305 -0.0401
 8636TIP3    H147399   3.432   0.352  14.949 -1.6628  0.2468 -1.7277
 8636TIP3    H247400   3.387   0.309  15.087  0.2714 -2.0971 -1.8023
 8637TIP3   OH247401   1.051   5.665  11.055  0.4375 -0.3883 -0.0386
 8637TIP3    H147402   1.114   5.626  11.116  0.4638 -0.7467 -0.2906
 8637TIP3    H247403   0.968   5.622  11.076 -0.3005  1.8969  2.0115
 8638TIP3   OH247404   2.851   4.460   1.264  0.4105 -0.1047  0.5195
 8638TIP3    H147405   2.897   4.407   1.328 -2.2970 -0.6011  2.1496
 8638TIP3    H247406   2.814   4.532   1.316  0.0384  0.7134 -0.8660
 8639TIP3   OH247407   5.439   0.225   4.937  0.3081 -0.0901  0.1397
 8639TIP3    H147408   5.533   0.211   4.927  0.2241  0.1323 -1.0246
 8639TIP3    H247409   5.424   0.312   4.900  0.1028  1.1505  3.0239
 8640TIP3   OH247410   6.241   0.549  14.321  0.2461 -0.1620 -0.3353
 8640TIP3    H147411   6.264   0.502  14.241  0.3057  0.2854 -0.5860
 8640TIP3    H247412   6.324   0.588  14.350  0.0624  0.3898 -0.5359
 8641TIP3   OH247413   1.115   2.893  16.011  0.1158  0.3243 -0.3910
 8641TIP3    H147414   1.151   2.848  15.934 -0.4376 -0.8253  0.0152
 8641TIP3    H247415   1.189   2.903  16.070 -0.0467 -1.3193  0.1084
 8642TIP3   OH247416   6.422   4.582   5.824 -0.1855 -0.1055  0.0151
 8642TIP3    H147417   6.344   4.563   5.772  0.7302 -2.7340 -0.4983
 8642TIP3    H247418   6.450   4.496   5.858  0.5397  1.2348  2.9943
 8643TIP3   OH247419   4.975   1.055  15.710 -0.1027 -0.0493  0.5650
 8643TIP3    H147420   5.034   1.115  15.665 -1.3616  1.1913  0.5147
 8643TIP3    H247421   4.980   1.081  15.802 -0.2734 -0.1658  0.6086
 8644TIP3   OH247422   1.635   0.906   2.520 -0.0025 -0.5771 -0.0088
 8644TIP3    H147423   1.638   0.883   2.427  0.7636 -1.6972  0.2846
 8644TIP3    H247424   1.624   1.001   2.520  1.1450 -0.4198 -1.2476
 8645TIP3   OH247425   6.128   1.782  16.061 -0.2498 -0.4258  0.2053
 8645TIP3    H147426   6.080   1.834  15.997  0.0376 -0.5323 -0.0993
 8645TIP3    H247427   6.147   1.699  16.016 -0.0073 -0.4831  0.4079
 8646TIP3   OH247428   5.270   6.127  12.889  0.6243  0.1355 -0.1228
 8646TIP3    H147429   5.290   6.040  12.854 -3.7741 -1.8111  1.8497
 8646TIP3    H247430   5.244   6.178  12.812 -0.5510 -1.5173 -0.8534
 8647TIP3   OH247431   1.376   2.373  17.028  0.1112  0.1281  0.2553
 8647TIP3    H147432   1.293   2.408  17.061 -0.3985 -2.2531  1.6017
 8647TIP3    H247433   1.390   2.418  16.945 -2.9461 -0.0420 -0.3988
 8648TIP3   OH247434   0.006   2.313  15.170  0.5851 -0.0307 -0.0918
 8648TIP3    H147435  -0.067   2.251  15.170 -0.1655  0.7758 -2.5074
 8648TIP3    H247436  -0.034   2.398  15.187  0.8852  0.4552 -1.7116
 8649TIP3   OH247437   1.837   0.065  13.470  0.2815 -0.6623  0.0071
 8649TIP3    H147438   1.825   0.074  13.565 -1.5280  0.0183 -0.2674
 8649TIP3    H247439   1.778  -0.007  13.446 -0.9455  0.6117 -0.9010
 8650TIP3   OH247440   4.014   0.708  13.810  0.1366  0.4336 -0.1892
 8650TIP3    H147441   3.961   0.703  13.731  0.6397  0.4785 -0.5305
 8650TIP3    H247442   4.097   0.747  13.782 -0.7348  3.1884  0.8920
 8651TIP3   OH247443   0.650   5.781   4.169 -0.1615 -0.5204  0.2013
 8651TIP3    H147444   0.608   5.819   4.091  0.8562  1.0454  0.3910
 8651TIP3    H247445   0.744   5.787   4.152  0.0430 -2.2370  0.6065
 8652TIP3   OH247446   3.481   4.682  14.802  0.1949  0.4792  0.0635
 8652TIP3    H147447   3.446   4.601  14.839 -0.5000  0.5502 -0.4410
 8652TIP3    H247448   3.438   4.752  14.851 -1.3435  0.5904 -1.4095
 8653TIP3   OH247449   4.797   3.441   5.761  0.3328 -0.5371  0.2944
 8653TIP3    H147450   4.888   3.422   5.784  0.5713  0.8349  0.5466
 8653TIP3    H247451   4.801   3.526   5.716 -0.9903  0.2802  1.6628
 8654TIP3   OH247452   3.372   5.988  15.947 -0.0957  0.3696 -0.1615
 8654TIP3    H147453   3.365   5.909  16.001  0.4816  0.7731  0.4973
 8654TIP3    H247454   3.370   6.060  16.009 -0.0554  0.8571 -0.7267
 8655TIP3   OH247455   2.528   5.894   3.078 -0.2769 -0.0083  0.0392
 8655TIP3    H147456   2.535   5.966   3.016 -0.2492 -0.0601 -0.0172
 8655TIP3    H247457   2.535   5.815   3.024 -1.8304 -0.0725 -0.0953
 8656TIP3   OH247458   0.163   3.702  11.661 -0.2425  0.0330 -0.0428
 8656TIP3    H147459   0.077   3.665  11.640 -1.2722  1.7756  1.0135
 8656TIP3    H247460   0.225   3.635  11.631 -2.0211 -2.3880  1.4377
 8657TIP3   OH247461   3.947   6.560   0.196 -0.3826  0.3768  0.4382
 8657TIP3    H147462   3.957   6.465   0.201 -0.0923  0.3405 -0.7181
 8657TIP3    H247463   3.883   6.574   0.127 -0.8345  1.0085  0.9744
 8658TIP3   OH247464   2.330   3.945  12.543  0.7200  0.0726 -0.1780
 8658TIP3    H147465   2.361   3.944  12.633  1.1638 -0.2468 -0.3339
 8658TIP3    H247466   2.264   4.014  12.541 -0.7171 -1.2492  0.8565
 8659TIP3   OH247467   5.508   2.899   3.851  0.1274  0.3308  0.3604
 8659TIP3    H147468   5.565   2.958   3.902  0.7130 -0.8110  1.0400
 8659TIP3    H247469   5.486   2.829   3.912 -0.9781  0.0936 -0.3033
 8660TIP3   OH247470   3.616   6.596  14.378 -0.2326  0.1457  0.1901
 8660TIP3    H147471   3.607   6.652  14.455  0.6656 -0.1150  0.5017
 8660TIP3    H247472   3.661   6.517  14.411 -0.1863 -0.1312 -0.5201
 8661TIP3   OH247473   0.273   2.501  15.239  0.5104  0.1948 -0.4314
 8661TIP3    H147474   0.244   2.419  15.199  0.4977 -0.3657  0.7119
 8661TIP3    H247475   0.360   2.482  15.274 -1.1231 -0.6148  3.5087
 8662TIP3   OH247476   0.125   5.596  13.383 -0.5290  0.1714  0.3061
 8662TIP3    H147477   0.070   5.533  13.430  0.2570 -0.7030  0.0733
 8662TIP3    H247478   0.108   5.679  13.427  0.7313 -0.7578  2.6666
 8663TIP3   OH247479   4.440   5.562   4.560 -0.0690  0.2663 -0.6617
 8663TIP3    H147480   4.387   5.504   4.614 -0.0936  1.3182  0.4669
 8663TIP3    H247481   4.416   5.650   4.588 -1.7450  0.9325 -3.9648
 8664TIP3   OH247482   4.462   2.560  13.269  0.1906 -0.4171  0.7499
 8664TIP3    H147483   4.455   2.611  13.188 -1.6524  0.8688  1.7001
 8664TIP3    H247484   4.483   2.471  13.239 -1.8844 -0.2672 -1.2405
 8665TIP3   OH247485   2.076   3.305  13.857 -0.4881 -0.0138  0.3580
 8665TIP3    H147486   2.109   3.298  13.946 -1.4020  0.2321  0.7150
 8665TIP3    H247487   1.993   3.259  13.857 -0.8649  0.6443 -0.1685
 8666TIP3   OH247488   5.641   5.407   1.329 -0.7764 -0.4168 -0.4326
 8666TIP3    H147489   5.730   5.439   1.315 -0.2921 -1.7356 -0.3977
 8666TIP3    H247490   5.616   5.443   1.415 -1.4290  2.4694 -1.7657
 8667TIP3   OH247491   0.405   6.074   4.285 -0.0710 -0.5942  0.1319
 8667TIP3    H147492   0.325   6.043   4.327 -0.5773  0.7884  0.1968
 8667TIP3    H247493   0.470   6.076   4.356  0.1293 -2.0317  0.0094
 8668TIP3   OH247494   3.067   1.176  13.647  0.1605 -0.1847 -0.0682
 8668TIP3    H147495   3.010   1.252  13.660  2.1239  1.6219 -1.6030
 8668TIP3    H247496   3.014   1.113  13.598 -1.1904  0.6078  0.3777
 8669TIP3   OH247497   2.037   0.330  16.733  1.2908  0.0643 -0.2570
 8669TIP3    H147498   1.965   0.382  16.698  2.3416  2.4743  1.0630
 8669TIP3    H247499   2.098   0.321  16.661  0.3781 -0.7631 -0.9522
 8670TIP3   OH247500   5.808   1.108  15.214  0.0069  0.2439 -0.3608
 8670TIP3    H147501   5.876   1.103  15.148  0.1712 -0.3760 -0.1481
 8670TIP3    H247502   5.811   1.024  15.259 -1.8330 -0.3140 -1.2545
 8671TIP3   OH247503   1.935   5.026  15.570 -0.1151 -0.2015  0.3459
 8671TIP3    H147504   1.846   5.054  15.546  0.5718 -1.1446 -3.7035
 8671TIP3    H247505   1.924   4.981  15.654 -3.2119  1.0859  0.7071
 8672TIP3   OH247506   5.340   4.846  12.408 -0.4690  0.3919 -0.2575
 8672TIP3    H147507   5.274   4.910  12.381 -1.1358  0.6224  1.7809
 8672TIP3    H247508   5.292   4.787  12.467  0.8717 -0.1219  0.3398
 8673TIP3   OH247509   3.978   4.474  15.955  0.2259  0.7143 -1.2615
 8673TIP3    H147510   4.010   4.526  16.029  1.8983 -1.6889 -0.1989
 8673TIP3    H247511   3.891   4.444  15.983  0.2790  0.9401 -0.8486
 8674TIP3   OH247512   4.085   5.268  11.517  0.3187 -0.2268  0.0747
 8674TIP3    H147513   4.078   5.217  11.437  1.1644 -1.9670  1.0742
 8674TIP3    H247514   4.178   5.287  11.525  0.2154  0.0771  0.5718
 8675TIP3   OH247515   0.870   2.132   0.784  0.0809 -0.1286  0.5696
 8675TIP3    H147516   0.804   2.200   0.796 -0.4469 -0.7204  1.0094
 8675TIP3    H247517   0.912   2.124   0.870  0.3200 -0.1796  0.4504
 8676TIP3   OH247518   1.038   2.146   3.779 -0.9316 -0.3156 -0.6808
 8676TIP3    H147519   1.098   2.082   3.819 -0.8700 -1.1587 -2.0856
 8676TIP3    H247520   1.089   2.188   3.710 -0.9026  1.4529  0.3830
 8677TIP3   OH247521   0.649   5.470  12.487 -0.2993  0.1072 -0.6210
 8677TIP3    H147522   0.713   5.518  12.434 -0.6686  0.2539 -0.9364
 8677TIP3    H247523   0.617   5.536  12.549  0.5634 -0.2137  0.1814
 8678TIP3   OH247524   3.033   1.660  16.296 -0.0928  0.3382 -0.0927
 8678TIP3    H147525   2.994   1.576  16.319 -1.0641  1.1303  1.1692
 8678TIP3    H247526   3.012   1.672  16.203 -1.5775  0.0576  0.1991
 8679TIP3   OH247527   6.382   1.298  10.575 -0.2762  0.4608 -0.0775
 8679TIP3    H147528   6.326   1.371  10.552  0.9012  0.1276 -4.4732
 8679TIP3    H247529   6.468   1.338  10.592  0.0580  0.2848 -1.2590
 8680TIP3   OH247530   3.529   0.317   0.201 -0.0116  0.1060  0.2666
 8680TIP3    H147531   3.536   0.354   0.114  0.0247  0.4097  0.3982
 8680TIP3    H247532   3.442   0.279   0.205  0.3955 -0.9041 -0.2935
 8681TIP3   OH247533   1.177   2.946   5.343  0.3257  0.3168  0.0970
 8681TIP3    H147534   1.165   3.024   5.289 -1.0466 -0.1104 -0.2170
 8681TIP3    H247535   1.271   2.946   5.364  0.3192  2.0900  0.1671
 8682TIP3   OH247536   3.673   5.496   5.156 -0.0574  0.4604  0.0723
 8682TIP3    H147537   3.579   5.497   5.169 -0.2676 -1.6525 -0.9769
 8682TIP3    H247538   3.704   5.424   5.211  0.9854  1.3731  0.6855
 8683TIP3   OH247539   4.821   0.390  15.035 -0.5001 -0.6059  0.2346
 8683TIP3    H147540   4.751   0.436  14.989  0.3315 -0.1398 -0.5967
 8683TIP3    H247541   4.888   0.457  15.048  0.6207 -1.4989 -0.7669
 8684TIP3   OH247542   3.724   6.675   2.545  0.3896 -0.0559 -0.4878
 8684TIP3    H147543   3.768   6.753   2.581 -0.2032  0.6812 -1.3371
 8684TIP3    H247544   3.794   6.613   2.529  0.7052 -0.3114  1.7022
 8685TIP3   OH247545   5.916   0.797  15.725 -0.6416 -0.0583 -0.0488
 8685TIP3    H147546   5.928   0.721  15.668  2.1790  0.9747 -0.8909
 8685TIP3    H247547   5.946   0.767  15.811 -1.3310 -0.4457  0.0658
 8686TIP3   OH247548   3.672   1.640  16.222  0.6141  0.8993  0.2616
 8686TIP3    H147549   3.765   1.654  16.201  0.3837  1.9422 -0.0945
 8686TIP3    H247550   3.646   1.722  16.265  0.2668  0.0036  1.7911
 8687TIP3   OH247551   5.823   2.154   1.420  0.6674 -0.9000  0.0514
 8687TIP3    H147552   5.871   2.079   1.455 -0.5294 -1.6212  0.1608
 8687TIP3    H247553   5.731   2.128   1.423  0.1683  0.8847  0.8197
 8688TIP3   OH247554   5.141   4.166   2.844 -0.1029 -0.2262  0.1935
 8688TIP3    H147555   5.219   4.218   2.823  0.7450 -1.4741  0.1761
 8688TIP3    H247556   5.133   4.171   2.939 -0.4246  0.4878  0.1314
 8689TIP3   OH247557   4.053   3.319  13.673  0.4515  0.9420 -0.0846
 8689TIP3    H147558   4.097   3.372  13.606 -1.4585  0.2843 -1.9172
 8689TIP3    H247559   3.979   3.373  13.701 -1.2865 -0.5243 -1.6944
 8690TIP3   OH247560   6.617   6.088  14.435  0.7704 -0.0803  0.3593
 8690TIP3    H147561   6.627   6.136  14.517  2.1370  0.1512  0.0757
 8690TIP3    H247562   6.552   6.137  14.386  1.0855  0.6686  0.6762
 8691TIP3   OH247563   6.710   3.925  15.457  0.2462  0.4216  0.0964
 8691TIP3    H147564   6.801   3.901  15.436 -0.0274 -1.1505  0.6741
 8691TIP3    H247565   6.710   3.935  15.552 -0.3158 -0.1170  0.1510
 8692TIP3   OH247566   2.779   2.122   4.311 -0.4707 -0.5485 -0.0389
 8692TIP3    H147567   2.725   2.133   4.390  0.9083  1.4124  0.6389
 8692TIP3    H247568   2.780   2.208   4.270  0.8539 -0.9619 -0.8916
 8693TIP3   OH247569   5.211   5.017  17.189  0.4395  0.1418 -0.2195
 8693TIP3    H147570   5.141   5.081  17.198  0.7986  0.4249  0.6070
 8693TIP3    H247571   5.252   5.038  17.105 -1.2606 -0.8393 -1.3343
 8694TIP3   OH247572   6.036   2.208   4.057 -0.0142  0.4746  0.3225
 8694TIP3    H147573   6.078   2.148   4.119  1.8027 -0.2019 -1.4997
 8694TIP3    H247574   6.107   2.263   4.024 -1.5432  3.2122  1.4142
 8695TIP3   OH247575   6.226   0.574   3.714 -0.0966  0.7653  0.7629
 8695TIP3    H147576   6.243   0.553   3.806  0.3313  0.7033  0.6753
 8695TIP3    H247577   6.311   0.603   3.681  0.3726 -1.6192 -0.2561
 8696TIP3   OH247578   5.123   0.142   2.007  0.0059  0.0184 -0.2231
 8696TIP3    H147579   5.147   0.196   2.083 -0.1305  0.4397 -0.4794
 8696TIP3    H247580   5.189   0.073   2.005  0.7652  0.7468 -0.4848
 8697TIP3   OH247581   4.380   0.695  15.340 -0.6298 -0.2219  0.4324
 8697TIP3    H147582   4.442   0.704  15.267  0.0206 -0.1995  0.9879
 8697TIP3    H247583   4.301   0.739  15.309 -0.6262 -0.8989 -0.5825
 8698TIP3   OH247584   3.537   1.388  17.203 -0.2402 -0.2324  0.4024
 8698TIP3    H147585   3.457   1.353  17.162 -0.7070 -0.3265  1.3798
 8698TIP3    H247586   3.529   1.365  17.296 -0.9916  3.1739  1.2659
 8699TIP3   OH247587   2.260   4.427   4.082  0.6563  0.4217 -0.0622
 8699TIP3    H147588   2.228   4.476   4.158  0.3034  0.3658 -0.1771
 8699TIP3    H247589   2.186   4.374   4.054  0.6744  0.7252 -0.6772
 8700TIP3   OH247590   0.492   1.794  10.806  0.3881 -0.3984 -0.2105
 8700TIP3    H147591   0.405   1.754  10.801  0.0456 -0.3188  3.3443
 8700TIP3    H247592   0.545   1.747  10.742 -1.5556 -2.3982 -0.3904
 8701TIP3   OH247593   1.020   2.905   4.064 -0.9003 -0.0100  0.5201
 8701TIP3    H147594   1.088   2.940   4.006 -0.6685 -0.7825  0.3143
 8701TIP3    H247595   0.945   2.963   4.051 -0.1153  1.1699  1.1376
 8702TIP3   OH247596   5.058   5.719  14.673  0.4029  0.2667 -0.1367
 8702TIP3    H147597   5.062   5.628  14.643 -0.5872  0.6370 -1.4254
 8702TIP3    H247598   4.964   5.738  14.679  0.5547  0.4660  2.4600
 8703TIP3   OH247599   4.509   4.603  14.723 -0.0645  0.3902  0.1550
 8703TIP3    H147600   4.535   4.523  14.769 -0.7797 -0.3820 -0.7684
 8703TIP3    H247601   4.592   4.648  14.706  0.9155 -2.4350 -3.4557
 8704TIP3   OH247602   6.801   6.031  16.764  0.4155  0.7840  0.2347
 8704TIP3    H147603   6.713   6.009  16.735  0.1965 -0.2846  1.6034
 8704TIP3    H247604   6.798   6.125  16.782 -0.1921  0.9193 -0.5559
 8705TIP3   OH247605   5.031   2.821   2.694 -0.3117  0.8948 -0.0467
 8705TIP3    H147606   4.957   2.764   2.713  0.1594 -0.0863 -1.0971
 8705TIP3    H247607   5.094   2.765   2.649  0.8307  1.8564  0.3148
 8706TIP3   OH247608   6.775   5.284  15.535  0.7560  0.7419 -0.3100
 8706TIP3    H147609   6.771   5.258  15.443 -1.1454  0.7280 -0.2338
 8706TIP3    H247610   6.686   5.309  15.558  1.3834  1.6687  1.2808
 8707TIP3   OH247611   6.037   2.966   5.149  0.2807 -0.3617 -0.0185
 8707TIP3    H147612   6.127   2.933   5.149  0.4963  0.1967  0.7769
 8707TIP3    H247613   6.015   2.977   5.057  0.1102 -2.9671 -0.3195
 8708TIP3   OH247614   4.572   2.835  16.873  0.5676 -0.4671  0.0165
 8708TIP3    H147615   4.596   2.788  16.794  1.9644  1.8167 -0.9832
 8708TIP3    H247616   4.656   2.855  16.915  0.2936  3.5700 -1.1102
 8709TIP3   OH247617   4.269   1.188   1.245 -0.0755 -0.0268  0.0452
 8709TIP3    H147618   4.227   1.119   1.296  1.0944 -0.0732  0.9619
 8709TIP3    H247619   4.318   1.142   1.178 -0.7218 -0.0034 -0.4566
 8710TIP3   OH247620   1.773   2.807   2.023 -0.5780  0.1932 -0.1528
 8710TIP3    H147621   1.780   2.882   2.082 -0.6157  2.3162 -2.7649
 8710TIP3    H247622   1.855   2.807   1.975  0.3568 -2.8224  1.3140
 8711TIP3   OH247623   2.555   1.345   6.497 -0.3282 -0.6110  0.2523
 8711TIP3    H147624   2.505   1.423   6.520  0.4923 -0.7439  2.7441
 8711TIP3    H247625   2.503   1.272   6.531  0.0866 -0.9555  0.1569
 8712TIP3   OH247626   1.830   0.245  13.277 -0.1410 -0.1800  0.3891
 8712TIP3    H147627   1.856   0.173  13.334  0.6425 -1.3313 -1.3685
 8712TIP3    H247628   1.909   0.299  13.268  0.1211 -0.7043 -0.5948
 8713TIP3   OH247629   5.629   5.180  15.934 -0.2510 -0.5091  0.4747
 8713TIP3    H147630   5.686   5.231  15.876  0.7129 -2.2333 -0.1308
 8713TIP3    H247631   5.564   5.140  15.875 -0.4679 -0.6735  0.8261
 8714TIP3   OH247632   0.707   6.480   1.796 -0.4925  0.1705 -0.8161
 8714TIP3    H147633   0.780   6.541   1.802 -1.0871  0.9637 -1.7120
 8714TIP3    H247634   0.637   6.520   1.849 -1.0258  0.4815 -1.7476
 8715TIP3   OH247635   6.004   6.618   5.101 -0.0037 -0.3535  0.2517
 8715TIP3    H147636   6.043   6.530   5.106 -2.2743 -1.8198 -4.5977
 8715TIP3    H247637   6.069   6.670   5.054  1.1693  0.5355  2.7785
 8716TIP3   OH247638   6.688   6.073   2.822 -0.3058 -0.3162  0.3988
 8716TIP3    H147639   6.656   6.023   2.747 -1.6667  0.8568  0.1688
 8716TIP3    H247640   6.705   6.008   2.890  1.1828 -1.4182 -0.9977
 8717TIP3   OH247641   2.017   5.131  13.238  0.2472 -0.3211 -0.5017
 8717TIP3    H147642   1.962   5.205  13.267 -0.0306  0.1603 -2.2364
 8717TIP3    H247643   2.107   5.162  13.251  0.1289  0.1570 -0.8112
 8718TIP3   OH247644   5.402   1.217   0.537  0.2387 -0.3858  0.3725
 8718TIP3    H147645   5.371   1.269   0.464 -1.6350  0.3080  1.6313
 8718TIP3    H247646   5.482   1.261   0.566  1.0695 -0.7502 -1.3243
 8719TIP3   OH247647   2.903   4.249  11.530  0.3177  0.3649 -0.2897
 8719TIP3    H147648   2.995   4.238  11.553  0.3038  2.0860  0.6449
 8719TIP3    H247649   2.897   4.215  11.441  1.2544 -2.3929  0.6509
 8720TIP3   OH247650   5.182   0.645  15.575 -0.1417 -0.3691 -0.6025
 8720TIP3    H147651   5.191   0.586  15.650  0.0806  1.1842  0.6331
 8720TIP3    H247652   5.118   0.710  15.604  0.6148  0.7624 -1.4354
 8721TIP3   OH247653   4.886   4.273   4.664  0.0142  0.0079  0.1181
 8721TIP3    H147654   4.971   4.307   4.636 -0.2266  0.9214  0.4773
 8721TIP3    H247655   4.861   4.328   4.738  0.0071 -1.5071  1.2888
 8722TIP3   OH247656   1.060   3.883  14.627 -0.2953 -0.1823  0.5653
 8722TIP3    H147657   1.099   3.796  14.632 -1.6826 -0.7781  1.4038
 8722TIP3    H247658   0.972   3.868  14.593 -0.5104  0.9053  0.6115
 8723TIP3   OH247659   3.575   4.165   5.307 -0.3987  0.8362 -0.2431
 8723TIP3    H147660   3.497   4.189   5.356  0.0164 -0.5460  1.1355
 8723TIP3    H247661   3.561   4.074   5.281  1.3022  0.1313  1.1767
 8724TIP3   OH247662   4.577   6.125  14.861 -0.0829  0.3955  0.4203
 8724TIP3    H147663   4.564   6.214  14.895 -1.2841  1.3109 -2.2837
 8724TIP3    H247664   4.671   6.111  14.868  0.1055  1.8225  1.0237
 8725TIP3   OH247665   2.846   0.170   4.421 -0.8281 -0.4723 -0.1785
 8725TIP3    H147666   2.901   0.237   4.380 -1.8886  0.0326 -0.7968
 8725TIP3    H247667   2.766   0.170   4.370 -0.9720 -2.0015  0.0215
 8726TIP3   OH247668   6.459   0.942  11.020  0.5865  0.1815  0.1717
 8726TIP3    H147669   6.502   0.877  10.963  0.6227  0.6475 -0.3375
 8726TIP3    H247670   6.531   0.995  11.053  0.7102 -0.9152  1.7239
 8727TIP3   OH247671   2.042   2.947  13.101 -0.9019  0.7602 -0.2881
 8727TIP3    H147672   2.125   2.902  13.119 -0.9905  1.2104  1.2806
 8727TIP3    H247673   1.975   2.883  13.121 -1.0216  1.4838  1.7271
 8728TIP3   OH247674   0.125   0.821  13.499 -0.7335 -0.2183  0.0234
 8728TIP3    H147675   0.135   0.901  13.550  0.9019 -1.3829  1.5922
 8728TIP3    H247676   0.175   0.837  13.418  0.4229 -0.0231  0.7702
 8729TIP3   OH247677   1.897   2.080  13.608  0.2700 -0.7388  0.7039
 8729TIP3    H147678   1.940   2.039  13.683  0.5074 -1.0249  0.4122
 8729TIP3    H247679   1.862   2.007  13.558 -0.0914 -0.5353  0.6573
 8730TIP3   OH247680   5.990   4.216   1.208 -0.5165 -0.4935  0.2970
 8730TIP3    H147681   6.030   4.301   1.191 -0.1792 -0.5953  0.5880
 8730TIP3    H247682   6.063   4.156   1.219 -0.7215 -0.5281  1.6145
 8731TIP3   OH247683   4.056   1.474  16.869  0.5432  0.0075  1.1038
 8731TIP3    H147684   4.025   1.507  16.785  0.8560  1.6747  1.6307
 8731TIP3    H247685   3.976   1.447  16.915  0.2903  0.0067  0.6664
 8732TIP3   OH247686   5.691   4.403  10.531 -0.1757 -0.1192  0.1874
 8732TIP3    H147687   5.778   4.416  10.493 -0.7778  0.4168 -1.0462
 8732TIP3    H247688   5.684   4.309  10.544 -0.4855 -0.4981 -2.3992
 8733TIP3   OH247689   2.015   3.682   2.435  0.0188 -0.0518  0.4568
 8733TIP3    H147690   2.024   3.615   2.503 -0.1807 -0.2571  0.2793
 8733TIP3    H247691   1.928   3.668   2.398  0.0587  0.1707  0.2756
 8734TIP3   OH247692   5.273   3.683   2.938  0.4968 -0.0654  0.2215
 8734TIP3    H147693   5.217   3.753   2.905  0.6156 -0.2098 -0.2933
 8734TIP3    H247694   5.295   3.631   2.860 -0.3131 -1.1967  0.7296
 8735TIP3   OH247695   4.573   2.052  11.627 -0.3870 -0.4937  0.5846
 8735TIP3    H147696   4.533   1.982  11.575 -0.7787  0.1197  0.0619
 8735TIP3    H247697   4.574   2.128  11.569  0.1016 -0.0772  1.1302
 8736TIP3   OH247698   0.380   3.216   3.197  0.0388 -0.0736 -0.0348
 8736TIP3    H147699   0.297   3.264   3.192 -0.1883 -0.3751  0.6776
 8736TIP3    H247700   0.430   3.246   3.122  0.3038  2.0627  0.9503
 8737TIP3   OH247701   1.197   1.368  12.916 -0.6202  0.0075 -0.3070
 8737TIP3    H147702   1.252   1.442  12.940 -0.3972 -0.8448  1.9538
 8737TIP3    H247703   1.257   1.293  12.915 -1.4872 -0.7203  0.9723
 8738TIP3   OH247704   2.876   4.765  12.169  0.2231 -0.1499 -0.2037
 8738TIP3    H147705   2.855   4.721  12.087  0.3563 -0.6984  0.0589
 8738TIP3    H247706   2.795   4.760  12.220 -0.0323  0.6711 -0.5104
 8739TIP3   OH247707   6.206   3.132   5.489 -0.0529  0.1734 -0.0585
 8739TIP3    H147708   6.204   3.036   5.492 -0.6438  0.1988  0.5669
 8739TIP3    H247709   6.202   3.159   5.581 -2.9005  0.8203 -0.3140
 8740TIP3   OH247710   0.213   6.054   5.782 -0.0726 -0.0834 -0.5351
 8740TIP3    H147711   0.228   6.056   5.877  0.1140 -1.1165 -0.5344
 8740TIP3    H247712   0.236   5.964   5.756  0.0515  0.2467 -1.5889
 8741TIP3   OH247713   5.394   2.827  13.976  0.2298  0.1622  0.2885
 8741TIP3    H147714   5.347   2.877  13.909 -0.3261 -1.0584 -0.2441
 8741TIP3    H247715   5.325   2.796  14.035  0.7486  1.4927  1.6059
 8742TIP3   OH247716   2.582   6.237  12.066 -0.1832 -0.7796  0.0427
 8742TIP3    H147717   2.548   6.310  12.117 -0.8270 -0.0635 -1.3854
 8742TIP3    H247718   2.565   6.261  11.975  2.5267 -1.2324 -0.6379
 8743TIP3   OH247719   0.271   5.573   4.797  0.0810  0.1556 -0.4309
 8743TIP3    H147720   0.325   5.503   4.759 -0.5590 -0.1645 -0.7623
 8743TIP3    H247721   0.263   5.550   4.889 -0.2998 -0.3254 -0.5811
 8744TIP3   OH247722   4.235   5.508   0.955  0.3992  0.5286  0.3453
 8744TIP3    H147723   4.237   5.521   1.050 -0.3552  0.6905  0.3465
 8744TIP3    H247724   4.229   5.596   0.919  3.3193  0.6255  0.0384
 8745TIP3   OH247725   3.816   3.395   4.837  0.1695 -0.0830 -0.4299
 8745TIP3    H147726   3.742   3.367   4.783 -0.2963 -1.2495  0.7711
 8745TIP3    H247727   3.791   3.481   4.869  0.8902  1.0803 -2.8484
 8746TIP3   OH247728   2.045   0.977  11.980  0.2022  0.8963  0.2124
 8746TIP3    H147729   2.041   1.055  11.924  0.7914 -0.4906 -1.8068
 8746TIP3    H247730   2.051   1.012  12.069 -0.3424  3.1545 -0.5979
 8747TIP3   OH247731   2.235   0.020  16.321 -0.4252 -0.1936 -0.2248
 8747TIP3    H147732   2.144   0.050  16.315  0.1751  1.4745 -1.1327
 8747TIP3    H247733   2.248  -0.034  16.243 -0.5142 -0.0958 -0.3088
 8748TIP3   OH247734   4.117   2.897   0.123 -0.3191  0.1225 -0.6450
 8748TIP3    H147735   4.170   2.850   0.059 -1.4369 -0.7810 -0.9343
 8748TIP3    H247736   4.027   2.877   0.098 -0.7750  0.2579  0.8410
 8749TIP3   OH247737   0.359   2.409   1.966 -0.4404  0.2113  0.0474
 8749TIP3    H147738   0.399   2.359   1.895 -1.1065  1.5562 -1.3016
 8749TIP3    H247739   0.412   2.388   2.042  0.0697 -1.5503 -0.7486
 8750TIP3   OH247740   6.577   6.421  13.328  0.0097  0.7161 -0.4865
 8750TIP3    H147741   6.630   6.445  13.404  0.5692 -0.3596 -0.5400
 8750TIP3    H247742   6.637   6.429  13.254 -0.6051  2.0270 -0.8625
 8751TIP3   OH247743   4.210   1.642   3.884 -0.4473  0.0124  0.2835
 8751TIP3    H147744   4.264   1.715   3.855  0.0694 -0.7223 -0.6374
 8751TIP3    H247745   4.121   1.666   3.858 -0.2293  0.1520 -0.3480
 8752TIP3   OH247746   5.614   0.274   2.943  0.0529 -1.3034  0.7211
 8752TIP3    H147747   5.636   0.320   3.024 -1.2411 -1.5522  1.2089
 8752TIP3    H247748   5.525   0.243   2.955  1.6208 -5.9662  1.3434
 8753TIP3   OH247749   5.816   0.863   0.724 -0.9784 -0.5512 -0.3015
 8753TIP3    H147750   5.819   0.907   0.639 -2.4476 -2.6132 -1.4595
 8753TIP3    H247751   5.723   0.845   0.738 -0.9371  1.0267  2.4416
 8754TIP3   OH247752   2.442   6.447  12.441  0.0588 -0.4700  0.1496
 8754TIP3    H147753   2.421   6.514  12.507 -0.7428  0.7983 -1.3673
 8754TIP3    H247754   2.537   6.434  12.449  0.4223  1.7003 -0.3135
 8755TIP3   OH247755   2.251   5.539   3.925  0.2539  0.0765  0.1859
 8755TIP3    H147756   2.209   5.535   4.011  1.0863  0.9022  0.6333
 8755TIP3    H247757   2.197   5.600   3.875  0.5106  0.5987  0.5404
 8756TIP3   OH247758   4.876   2.055   4.486 -0.1142 -0.0070  0.9708
 8756TIP3    H147759   4.804   2.011   4.530 -0.5699  0.7684  1.0213
 8756TIP3    H247760   4.945   1.990   4.482 -0.5816 -0.5484  1.5255
 8757TIP3   OH247761   2.375   3.323  13.065 -0.0368  0.5696 -0.2781
 8757TIP3    H147762   2.295   3.302  13.113 -1.4316  2.8373 -1.5377
 8757TIP3    H247763   2.446   3.296  13.124 -1.6821 -2.0314  0.6051
 8758TIP3   OH247764   4.469   0.420   0.461  0.1297 -0.1344 -0.2639
 8758TIP3    H147765   4.394   0.387   0.511 -1.2557  0.3834 -1.9304
 8758TIP3    H247766   4.431   0.449   0.378  1.7649  2.6711 -0.0923
 8759TIP3   OH247767   4.956   0.502   1.171 -0.1423  0.4991  0.2331
 8759TIP3    H147768   4.910   0.563   1.113  1.1616  0.6313 -0.6623
 8759TIP3    H247769   5.043   0.540   1.182  0.7711 -1.3350 -0.5317
 8760TIP3   OH247770   0.081   0.788   6.145 -0.4841 -0.1653  0.7741
 8760TIP3    H147771  -0.001   0.752   6.111 -0.8148 -0.2843  1.6585
 8760TIP3    H247772   0.093   0.743   6.229  0.3743  0.0132  0.7491
 8761TIP3   OH247773   1.682   4.160   1.914  0.0885 -0.6265 -0.2752
 8761TIP3    H147774   1.612   4.174   1.851 -0.4048 -2.4067 -0.1539
 8761TIP3    H247775   1.725   4.079   1.885  0.8750 -0.5751  0.7245
 8762TIP3   OH247776   4.391   2.371  12.641  0.0754 -0.3645 -0.1240
 8762TIP3    H147777   4.397   2.459  12.677 -0.6244 -0.6507  0.7157
 8762TIP3    H247778   4.415   2.314  12.714 -1.8454 -0.9767  0.0393
 8763TIP3   OH247779   0.065   0.268   5.193  0.7254 -0.0836 -0.0281
 8763TIP3    H147780   0.087   0.207   5.263 -0.6826  1.2622  1.6218
 8763TIP3    H247781   0.117   0.238   5.118  1.2419 -2.3427  1.1864
 8764TIP3   OH247782   4.924   2.075  10.713  0.1418 -0.0293 -0.0623
 8764TIP3    H147783   4.960   2.091  10.625  1.1553  0.1896  0.3930
 8764TIP3    H247784   4.832   2.101  10.706  0.5034  1.0942 -0.7410
 8765TIP3   OH247785   3.897   2.156  15.621 -0.1392  0.3539 -0.1682
 8765TIP3    H147786   3.959   2.224  15.593  1.0462  0.2729  2.1528
 8765TIP3    H247787   3.842   2.198  15.686 -0.1939 -0.5730  0.3941
 8766TIP3   OH247788   0.425   1.058   3.077  0.2278 -0.0928 -0.2823
 8766TIP3    H147789   0.434   1.012   2.994  1.3850 -0.0616 -0.1743
 8766TIP3    H247790   0.369   1.000   3.130  0.8679 -0.9087 -0.4927
 8767TIP3   OH247791   4.475   0.665   0.616 -0.1037 -0.6040 -0.1180
 8767TIP3    H147792   4.473   0.578   0.576 -1.4476 -0.0506 -1.2902
 8767TIP3    H247793   4.472   0.726   0.543  0.0912  0.4369  0.7280
 8768TIP3   OH247794   1.778   0.716  13.882 -0.2858 -0.3152 -0.3791
 8768TIP3    H147795   1.861   0.672  13.868 -0.2184 -0.5517  0.7068
 8768TIP3    H247796   1.722   0.650  13.924  0.4805  1.2055  3.2003
 8769TIP3   OH247797   3.388   1.732  16.442  0.1170  0.0942 -0.3763
 8769TIP3    H147798   3.389   1.694  16.354  1.5266  1.7687 -1.0925
 8769TIP3    H247799   3.421   1.821  16.431  1.4868 -0.0711  2.0219
 8770TIP3   OH247800   4.635   6.088  12.051  0.4213 -0.2229  0.0763
 8770TIP3    H147801   4.664   6.168  12.096  2.3594  0.3574 -2.1431
 8770TIP3    H247802   4.689   6.019  12.088  0.3100 -0.1459  0.3837
 8771TIP3   OH247803   1.959   5.610  10.809  0.1653  0.4809  0.7733
 8771TIP3    H147804   1.945   5.613  10.714 -2.9896  0.6518  1.1811
 8771TIP3    H247805   2.029   5.546  10.822 -1.5113 -1.8961 -1.4720
 8772TIP3   OH247806   2.388   5.569  13.419  0.2472 -0.2163  0.1744
 8772TIP3    H147807   2.346   5.491  13.455 -0.3431  1.2525  2.7523
 8772TIP3    H247808   2.330   5.597  13.348  0.5710 -2.2138 -0.9152
 8773TIP3   OH247809   0.555   0.576  15.135 -0.2207  0.0944 -0.2479
 8773TIP3    H147810   0.469   0.594  15.172  0.2256  2.2685 -0.2015
 8773TIP3    H247811   0.540   0.571  15.040 -0.6118 -1.0308 -0.1450
 8774TIP3   OH247812   2.159   0.106   0.330 -0.4227  0.5171  0.0295
 8774TIP3    H147813   2.099   0.065   0.392  0.7633  0.2261  1.0149
 8774TIP3    H247814   2.115   0.187   0.303 -1.9590 -0.4657 -0.5146
 8775TIP3   OH247815   6.321   0.394  13.112 -0.2573  0.6657 -0.2874
 8775TIP3    H147816   6.333   0.300  13.102  1.1118  0.8993 -0.9318
 8775TIP3    H247817   6.226   0.406  13.116 -0.4103 -0.8708  1.1792
 8776TIP3   OH247818   3.501   0.580  12.991 -0.2329 -0.3644  0.1113
 8776TIP3    H147819   3.431   0.604  12.931 -1.0881 -0.0117  1.2336
 8776TIP3    H247820   3.529   0.664  13.029  0.1321 -0.6059  0.3759
 8777TIP3   OH247821   6.564   2.173   0.444 -0.1621 -0.0313  0.0400
 8777TIP3    H147822   6.525   2.234   0.507  1.2907 -0.1459  1.0751
 8777TIP3    H247823   6.599   2.102   0.498  0.9079 -0.2506 -0.9157
 8778TIP3   OH247824   1.742   0.325  11.794  0.1535  0.1260  0.2991
 8778TIP3    H147825   1.801   0.251  11.812  2.4601  2.1388  1.3783
 8778TIP3    H247826   1.760   0.347  11.702 -0.7686 -0.8147 -0.1224
 8779TIP3   OH247827   4.174   2.231   1.520 -0.1288  0.5725 -0.2867
 8779TIP3    H147828   4.152   2.160   1.460  1.3550  0.5976 -0.8934
 8779TIP3    H247829   4.180   2.309   1.463  1.8779  0.4836 -0.2261
 8780TIP3   OH247830   6.409   5.561  11.444  0.0284  0.4545 -0.0230
 8780TIP3    H147831   6.418   5.515  11.360  1.5669  0.5608  0.0618
 8780TIP3    H247832   6.321   5.539  11.474 -0.5240  0.3714 -1.6415
 8781TIP3   OH247833   1.478   3.718   1.473  0.0096 -0.6802  0.5889
 8781TIP3    H147834   1.480   3.643   1.532 -1.5236 -0.9548  0.2976
 8781TIP3    H247835   1.386   3.731   1.452  0.2921  0.9883  0.2473
 8782TIP3   OH247836   5.246   5.513   2.765 -0.1818  0.3837 -0.2154
 8782TIP3    H147837   5.226   5.419   2.770 -0.1256  0.3827 -0.0179
 8782TIP3    H247838   5.160   5.556   2.763 -0.2422  0.2098 -2.6054
 8783TIP3   OH247839   3.977   6.547   2.616  0.5000 -0.7098 -0.6770
 8783TIP3    H147840   4.045   6.613   2.628 -0.3728  0.4923 -2.0551
 8783TIP3    H247841   3.970   6.536   2.521  0.1389 -2.2720 -0.4896
 8784TIP3   OH247842   2.460   5.584   1.655  0.3859  0.4697  0.2365
 8784TIP3    H147843   2.432   5.648   1.589  1.6796  1.9586  1.0816
 8784TIP3    H247844   2.533   5.538   1.615 -0.9647 -0.9602 -0.6233
 8785TIP3   OH247845   5.228   0.820   1.446  0.1375  0.0743  0.4385
 8785TIP3    H147846   5.174   0.848   1.372  0.3099 -0.6699  0.0263
 8785TIP3    H247847   5.238   0.726   1.434  3.3893  0.5161 -0.7103
 8786TIP3   OH247848   5.194   2.960  12.069  0.3352 -0.2992 -0.4533
 8786TIP3    H147849   5.164   3.005  11.991  0.5817  1.0158  0.2061
 8786TIP3    H247850   5.252   2.890  12.036 -1.0129 -0.9258 -1.5375
 8787TIP3   OH247851   5.406   2.921   4.501  1.0093  0.5100  0.5060
 8787TIP3    H147852   5.356   3.003   4.497  0.4826  0.2202  0.9954
 8787TIP3    H247853   5.482   2.937   4.446  0.0795  0.7502 -0.7259
 8788TIP3   OH247854   3.000   4.522  11.368  0.8172 -0.0050 -0.2593
 8788TIP3    H147855   3.039   4.465  11.302  3.4496 -0.8168  1.9091
 8788TIP3    H247856   3.020   4.611  11.338  0.3158 -0.3051 -1.5116
 8789TIP3   OH247857   4.317   3.209  12.484 -0.4046 -0.4915  0.0414
 8789TIP3    H147858   4.401   3.233  12.444 -1.3056  0.2489 -1.4363
 8789TIP3    H247859   4.257   3.279  12.459 -1.4444 -0.9490  1.1919
 8790TIP3   OH247860   1.435   0.294  16.501  0.2721  0.2337 -0.1807
 8790TIP3    H147861   1.391   0.211  16.481 -1.5998  1.2048 -0.2917
 8790TIP3    H247862   1.477   0.319  16.419 -0.2549  0.0252 -0.5213
 8791TIP3   OH247863   0.949   3.276   6.322 -0.3681  0.0432 -0.7962
 8791TIP3    H147864   0.856   3.274   6.296 -1.0518 -1.8147  1.6570
 8791TIP3    H247865   0.952   3.336   6.396  0.1433 -0.9819  0.0188
 8792TIP3   OH247866   5.326   3.436  17.250 -0.5728 -0.3832  0.1685
 8792TIP3    H147867   5.314   3.377  17.175  2.5898 -0.8612 -0.0192
 8792TIP3    H247868   5.340   3.522  17.210 -1.0033 -0.2559  0.2937
 8793TIP3   OH247869   0.470   2.061  13.569 -0.0978  0.1393 -0.1624
 8793TIP3    H147870   0.381   2.080  13.538  0.3844  1.2904 -0.8488
 8793TIP3    H247871   0.513   2.021  13.494 -0.1077 -0.6692  0.2553
 8794TIP3   OH247872   5.585   1.016  13.657  0.4440  0.5076 -0.3734
 8794TIP3    H147873   5.639   0.938  13.670  1.3135  1.3128  0.9457
 8794TIP3    H247874   5.647   1.088  13.654 -0.2893  1.0974 -2.3873
 8795TIP3   OH247875   3.713   4.830  17.132  0.4179 -0.9704 -0.8270
 8795TIP3    H147876   3.629   4.798  17.165  0.2205  0.0526 -0.3262
 8795TIP3    H247877   3.692   4.866  17.046  0.0529  0.6712 -0.0600
 8796TIP3   OH247878   4.898   0.986   1.050  0.4223  0.2421  0.0169
 8796TIP3    H147879   4.826   1.035   1.089  0.2476  0.8268 -0.9974
 8796TIP3    H247880   4.887   1.000   0.955  2.6545  1.5255 -0.0990
 8797TIP3   OH247881   3.497   5.308  13.709  0.0743 -0.5280 -0.6208
 8797TIP3    H147882   3.568   5.245  13.723 -0.7263 -1.8271 -2.1879
 8797TIP3    H247883   3.537   5.377  13.656  0.1995 -1.2391 -1.4751
 8798TIP3   OH247884   0.282   1.342  14.780 -0.3721 -0.1418 -0.0562
 8798TIP3    H147885   0.330   1.260  14.775  0.6032  0.4270 -0.1585
 8798TIP3    H247886   0.297   1.384  14.695 -0.5539  0.3069  0.1318
 8799TIP3   OH247887   1.693   5.474  14.906 -0.2326  0.6083  0.2264
 8799TIP3    H147888   1.609   5.493  14.864 -0.4519 -0.2635  0.2736
 8799TIP3    H247889   1.737   5.415  14.846  0.8002  1.8922 -0.3081
 8800TIP3   OH247890   4.449   5.513  14.394  0.2602 -0.6363 -0.4499
 8800TIP3    H147891   4.474   5.555  14.312  1.7084  0.6300  0.6200
 8800TIP3    H247892   4.403   5.581  14.443 -0.3166 -1.2896 -0.0828
 8801TIP3   OH247893   5.601   5.758  11.078  0.1583 -0.2416  0.6271
 8801TIP3    H147894   5.687   5.734  11.111  0.1866  0.6675  1.2531
 8801TIP3    H247895   5.604   5.737  10.985  1.1264 -0.0477  0.6105
 8802TIP3   OH247896   0.950   1.312   1.516 -0.2557 -0.2449  0.5679
 8802TIP3    H147897   0.902   1.232   1.539  0.1899 -0.2267  1.5983
 8802TIP3    H247898   1.020   1.317   1.581  0.1518  0.6062  0.0691
 8803TIP3   OH247899   5.793   5.956  17.245 -0.4544 -0.1959 -0.0761
 8803TIP3    H147900   5.762   5.977  17.157 -1.8952 -2.1633 -0.0773
 8803TIP3    H247901   5.714   5.932  17.293  0.4887 -0.5042  1.3578
 8804TIP3   OH247902   3.828   0.530  16.247  0.6510 -0.4663  0.5229
 8804TIP3    H147903   3.741   0.519  16.209  0.6883 -1.8781  0.8265
 8804TIP3    H247904   3.838   0.456  16.307  1.0609  1.0551  2.4031
 8805TIP3   OH247905   2.665   6.604  13.077 -0.4509  0.1024  0.2056
 8805TIP3    H147906   2.612   6.548  13.133 -0.0873 -0.9169 -0.4619
 8805TIP3    H247907   2.753   6.567  13.082 -0.0699  0.9963  0.2593
 8806TIP3   OH247908   0.807   4.483   2.821 -0.2309 -0.0102  0.5644
 8806TIP3    H147909   0.881   4.484   2.760 -0.8354 -1.2412 -0.2184
 8806TIP3    H247910   0.749   4.415   2.787 -1.2296  0.2226  1.7590
 8807TIP3   OH247911   1.737   3.917   1.801  0.1646 -0.4660 -0.1343
 8807TIP3    H147912   1.750   3.867   1.881 -0.6695 -0.3951  0.0553
 8807TIP3    H247913   1.805   3.886   1.742  1.7562  0.5791  1.1224
 8808TIP3   OH247914   6.226   3.055  13.491 -0.7771 -0.0206 -0.2464
 8808TIP3    H147915   6.222   3.060  13.395 -2.0797  2.3068 -0.1113
 8808TIP3    H247916   6.309   3.097  13.514 -0.6133 -0.2926 -0.3460
 8809TIP3   OH247917   5.934   5.416  11.945  0.1481  0.4605  0.7936
 8809TIP3    H147918   5.894   5.476  11.882  0.5947  1.5088  1.4795
 8809TIP3    H247919   6.005   5.468  11.985  0.1568 -0.3337  1.8258
 8810TIP3   OH247920   0.775   2.236  15.769 -0.3714  0.1436  0.5419
 8810TIP3    H147921   0.715   2.181  15.718  0.4062 -0.0493 -0.1883
 8810TIP3    H247922   0.719   2.294  15.819 -1.2028 -1.0760  1.0318
 8811TIP3   OH247923   1.085   1.210  13.513 -0.2305 -0.3381 -0.5014
 8811TIP3    H147924   1.089   1.161  13.431  1.1167 -0.3096 -0.4586
 8811TIP3    H247925   1.119   1.296  13.492 -0.9197  0.0272 -0.1533
 8812TIP3   OH247926   2.722   3.873   2.689  0.0643  0.3143 -0.5084
 8812TIP3    H147927   2.791   3.841   2.748 -3.5687 -0.3182  3.6636
 8812TIP3    H247928   2.703   3.799   2.632 -0.0147 -0.9145  1.0869
 8813TIP3   OH247929   4.216   3.095   6.027 -0.0476 -0.2815  0.3776
 8813TIP3    H147930   4.245   3.112   6.116  0.7051  0.8326 -0.0741
 8813TIP3    H247931   4.227   3.179   5.981  0.0856 -0.9763 -0.8913
 8814TIP3   OH247932   6.296   2.243  14.523  0.4310  0.5516  0.2009
 8814TIP3    H147933   6.391   2.251  14.535  0.7973 -1.3805 -1.1354
 8814TIP3    H247934   6.286   2.177  14.455 -1.9656 -1.0998  2.0825
 8815TIP3   OH247935   6.231   2.092   2.208  0.1071  0.3584 -0.1563
 8815TIP3    H147936   6.232   2.165   2.271  2.0579  0.3112 -0.0994
 8815TIP3    H247937   6.319   2.055   2.213 -0.3051 -0.8492 -1.5394
 8816TIP3   OH247938   2.540   2.681   4.487 -0.1073 -0.1204  0.5671
 8816TIP3    H147939   2.454   2.658   4.452 -0.4286  3.4094 -1.2351
 8816TIP3    H247940   2.565   2.606   4.541 -3.5007 -1.9896 -0.2953
 8817TIP3   OH247941   5.716   2.953   5.412 -0.4580 -0.5205  0.4996
 8817TIP3    H147942   5.679   3.026   5.461  1.3327  0.4871  0.3809
 8817TIP3    H247943   5.698   2.975   5.320  0.8931  0.2515  0.4070
 8818TIP3   OH247944   4.459   6.201  14.325 -0.7414  0.1105 -0.0184
 8818TIP3    H147945   4.391   6.172  14.386  0.4304 -0.3623  1.1005
 8818TIP3    H247946   4.411   6.233  14.249 -2.1508 -1.9780 -0.0558
 8819TIP3   OH247947   2.119   0.325  11.949  0.0814 -0.2113  0.2493
 8819TIP3    H147948   2.123   0.388  11.877 -1.2816  0.9563  1.1735
 8819TIP3    H247949   2.121   0.379  12.028 -0.5778 -1.3675  1.0626
 8820TIP3   OH247950   6.450   6.412  15.527  0.0692 -0.1883 -0.1030
 8820TIP3    H147951   6.391   6.369  15.466 -1.7954  1.3804  0.5182
 8820TIP3    H247952   6.430   6.372  15.612 -1.3550  1.5248  0.3994
 8821TIP3   OH247953   6.389   4.200   5.599  0.0175  0.3295 -0.4251
 8821TIP3    H147954   6.401   4.137   5.528  0.6361 -0.5159  0.4118
 8821TIP3    H247955   6.412   4.151   5.678 -1.1925  1.0957  0.4117
 8822TIP3   OH247956   4.046   6.518  11.704  0.1856  0.1182  0.4655
 8822TIP3    H147957   4.122   6.537  11.760  0.5010 -0.3521  0.1953
 8822TIP3    H247958   4.025   6.603  11.664 -1.3533  0.9522  2.8953
 8823TIP3   OH247959   4.235   4.350   6.366  0.0316  0.3188  0.3164
 8823TIP3    H147960   4.294   4.280   6.392  0.1093 -0.1662 -1.0949
 8823TIP3    H247961   4.174   4.308   6.305 -0.0851  1.4215 -0.3380
 8824TIP3   OH247962   2.787   0.198  13.384 -0.6142 -0.2503 -0.0525
 8824TIP3    H147963   2.828   0.142  13.318 -0.4296  0.4728 -0.5504
 8824TIP3    H247964   2.854   0.208  13.452  0.1563  1.1505 -0.9915
 8825TIP3   OH247965   6.259   1.173  13.605  0.1577 -0.4896  0.1763
 8825TIP3    H147966   6.301   1.087  13.607  0.7404 -0.2022  0.2368
 8825TIP3    H247967   6.331   1.235  13.598 -0.1736  0.0770  1.6666
 8826TIP3   OH247968   4.115   1.246   3.230  0.0043 -0.3383 -0.2079
 8826TIP3    H147969   4.200   1.210   3.253  1.2526  0.8942 -2.6179
 8826TIP3    H247970   4.092   1.303   3.303  1.0308 -1.0712  0.6860
 8827TIP3   OH247971   5.904   5.704  16.476  0.0117 -0.2951 -1.5382
 8827TIP3    H147972   5.822   5.753  16.487  1.3835  1.7864 -0.0892
 8827TIP3    H247973   5.878   5.612  16.474 -1.8695 -0.1932  5.5394
 8828TIP3   OH247974   4.765   5.941   3.703 -0.1076  0.0881  0.0338
 8828TIP3    H147975   4.796   5.915   3.790  1.6541 -0.4451 -0.7266
 8828TIP3    H247976   4.735   5.859   3.663  0.1834  0.1397 -0.2918
 8829TIP3   OH247977   5.152   6.772   6.494 -0.2509 -0.2200  0.2207
 8829TIP3    H147978   5.117   6.838   6.554  2.6419 -0.1491  1.9209
 8829TIP3    H247979   5.118   6.689   6.527  0.2067 -0.0435  1.1542
 8830TIP3   OH247980   6.531   0.533  14.462 -0.1164  0.4871 -0.8570
 8830TIP3    H147981   6.575   0.557  14.380 -0.4718 -0.7338 -1.4162
 8830TIP3    H247982   6.518   0.439  14.455 -1.8311  0.6600 -0.1986
 8831TIP3   OH247983   5.399   6.698   4.950  0.0651  0.5394 -0.5852
 8831TIP3    H147984   5.448   6.661   5.023 -0.4332 -1.4787 -1.2380
 8831TIP3    H247985   5.422   6.791   4.950 -0.2215  0.6611  2.3514
 8832TIP3   OH247986   1.968   3.891   1.130 -0.0712 -0.1893 -0.2742
 8832TIP3    H147987   2.016   3.923   1.054  0.4905 -0.9870 -0.2632
 8832TIP3    H247988   2.001   3.943   1.203  1.9264 -1.7796 -0.0061
 8833TIP3   OH247989   2.981   1.788   2.081  0.3345  0.2052  0.6425
 8833TIP3    H147990   3.020   1.731   2.014  0.7594  1.4930 -0.2325
 8833TIP3    H247991   2.974   1.733   2.159  0.5944 -1.0833 -0.2302
 8834TIP3   OH247992   5.840   1.780   6.045 -0.1726 -0.5736 -0.7389
 8834TIP3    H147993   5.760   1.821   6.077 -1.0622 -1.3398 -1.9713
 8834TIP3    H247994   5.829   1.687   6.065  0.1293 -0.7714 -1.4987
 8835TIP3   OH247995   6.251   5.532  12.887 -0.0424  0.6566 -0.1362
 8835TIP3    H147996   6.315   5.557  12.953 -1.0226  1.8354  0.4105
 8835TIP3    H247997   6.167   5.534  12.934 -0.8811  2.5392 -1.6273
 8836TIP3   OH247998   1.976   0.965  14.250  0.6375  0.6303  0.4991
 8836TIP3    H147999   1.961   0.885  14.199  0.8277 -0.1632  1.6766
 8836TIP3    H248000   1.955   1.036  14.189 -0.0572 -0.3189 -0.3933
 8837TIP3   OH248001   2.705   2.049  13.695  0.0557 -0.0729  0.3248
 8837TIP3    H148002   2.668   2.113  13.634  0.0961 -0.1620  0.2061
 8837TIP3    H248003   2.787   2.088  13.725 -0.0669  0.0655  0.4855
 8838TIP3   OH248004   2.409   3.316   5.310 -0.2313  0.1889  0.5524
 8838TIP3    H148005   2.498   3.330   5.343  0.2970  0.6050 -0.9990
 8838TIP3    H248006   2.355   3.374   5.364  0.7265  1.4839  0.1617
 8839TIP3   OH248007   0.830   1.892   4.456  0.0925  0.2979  0.0311
 8839TIP3    H148008   0.748   1.928   4.490  0.8723  1.5318  0.6510
 8839TIP3    H248009   0.847   1.942   4.377 -0.3973 -0.8381 -0.8112
 8840TIP3   OH248010   2.250   4.994   0.375 -0.5846 -0.3521  0.3008
 8840TIP3    H148011   2.325   5.046   0.404 -0.8925 -0.4215  1.2520
 8840TIP3    H248012   2.287   4.911   0.345 -0.2158 -0.1096  0.0895
 8841TIP3   OH248013   4.077   3.610  12.177  0.0830 -0.0783 -0.1929
 8841TIP3    H148014   4.113   3.523  12.191  0.5593 -0.1015 -1.4347
 8841TIP3    H248015   4.060   3.614  12.082  2.2979  2.0021 -0.5673
 8842TIP3   OH248016   5.237   6.244   4.784 -0.1875 -0.3729  0.1446
 8842TIP3    H148017   5.219   6.288   4.867 -0.2936 -0.4195  0.1471
 8842TIP3    H248018   5.189   6.296   4.719  0.8218  0.3317 -0.0472
 8843TIP3   OH248019   5.162   5.845   1.189  0.1111  0.4921 -0.2452
 8843TIP3    H148020   5.209   5.926   1.208  0.9780 -0.2136  0.6930
 8843TIP3    H248021   5.225   5.776   1.209 -0.8712 -0.4299 -0.3021
 8844TIP3   OH248022   4.442   5.294  17.276  0.4498 -0.2531  0.0645
 8844TIP3    H148023   4.537   5.304  17.286  0.2927  0.5987  0.7939
 8844TIP3    H248024   4.412   5.381  17.248 -0.3878  0.1140  2.0064
 8845TIP3   OH248025   2.086   2.790  15.334 -0.0557 -0.1664  0.1663
 8845TIP3    H148026   2.063   2.805  15.426  1.7583 -2.1416  0.9913
 8845TIP3    H248027   2.012   2.825  15.284 -1.8375 -0.6128  2.4340
 8846TIP3   OH248028   1.254   6.636   4.456 -0.5448 -0.2837 -0.1701
 8846TIP3    H148029   1.227   6.595   4.538 -0.8197  0.9692  0.3722
 8846TIP3    H248030   1.173   6.645   4.406 -0.8732  1.6662  0.6530
 8847TIP3   OH248031   3.333   0.608  14.308  0.1422 -0.3329  0.0079
 8847TIP3    H148032   3.276   0.653  14.245 -0.1452 -0.6927  0.0019
 8847TIP3    H248033   3.362   0.529  14.262  0.8134 -0.0465 -0.0602
 8848TIP3   OH248034   3.015   6.192   1.141  0.1543  0.5887  0.2486
 8848TIP3    H148035   2.977   6.278   1.124 -0.5922  0.0051 -1.1765
 8848TIP3    H248036   2.950   6.130   1.108  0.8623 -0.5167  0.8862
 8849TIP3   OH248037   2.880   5.623  15.844 -0.1780 -0.2998 -0.3443
 8849TIP3    H148038   2.815   5.686  15.872  0.1348 -0.2340  0.2540
 8849TIP3    H248039   2.841   5.537  15.862  0.1379 -0.2546  0.5839
 8850TIP3   OH248040   1.385   1.795   1.276  0.3407 -0.3768  0.5540
 8850TIP3    H148041   1.374   1.730   1.207 -0.9590  1.2133 -0.7665
 8850TIP3    H248042   1.439   1.863   1.236 -0.1956  0.4345  1.1978
 8851TIP3   OH248043   5.444   6.420   0.483  0.8374  0.6134  0.6611
 8851TIP3    H148044   5.506   6.441   0.413  1.4706  1.6781  1.5328
 8851TIP3    H248045   5.484   6.347   0.530  0.4086 -0.1086 -0.0751
 8852TIP3   OH248046   1.152   5.237   1.520  0.0843  0.0739  0.3793
 8852TIP3    H148047   1.096   5.223   1.597 -0.1673 -2.6671 -0.2495
 8852TIP3    H248048   1.239   5.211   1.549 -0.0948 -1.4031 -0.3598
 8853TIP3   OH248049   0.577   3.313  16.769  0.0990  0.3495  0.3968
 8853TIP3    H148050   0.594   3.301  16.675  1.8823 -0.4947  0.8050
 8853TIP3    H248051   0.547   3.403  16.777  0.1234  0.4867 -0.9555
 8854TIP3   OH248052   3.188   2.063  14.234 -0.4084  0.5773  0.9250
 8854TIP3    H148053   3.134   2.079  14.312 -0.3999  0.7108  0.9030
 8854TIP3    H248054   3.137   2.002  14.181  0.0785 -0.3959  1.5613
 8855TIP3   OH248055   2.129   3.058  16.241  0.1393 -0.4984  0.3938
 8855TIP3    H148056   2.139   3.095  16.153  1.6068 -0.1887  0.6654
 8855TIP3    H248057   2.073   3.120  16.287 -1.1682 -1.0014 -0.5137
 8856TIP3   OH248058   4.219   4.780   3.442 -0.0234 -0.1958  0.3924
 8856TIP3    H148059   4.149   4.798   3.380 -0.2886 -0.8155  0.5091
 8856TIP3    H248060   4.296   4.825   3.406 -0.2060 -0.4594 -0.3259
 8857TIP3   OH248061   5.646   5.195   4.214  0.5144  0.3823  0.1189
 8857TIP3    H148062   5.704   5.209   4.139 -1.6447 -0.1446 -1.7097
 8857TIP3    H248063   5.678   5.255   4.281  0.0126  3.9049 -2.6392
 8858TIP3   OH248064   1.328   2.665   4.460  0.1103 -0.3705 -0.1110
 8858TIP3    H148065   1.326   2.742   4.403  3.5717  1.1057  1.5704
 8858TIP3    H248066   1.410   2.620   4.436  0.5637 -0.8607  2.2239
 8859TIP3   OH248067   5.537   1.340   4.321  0.0863  0.1319 -0.2424
 8859TIP3    H148068   5.478   1.407   4.355 -1.5495 -0.0651 -2.5665
 8859TIP3    H248069   5.621   1.384   4.312  0.2110  0.5809  2.5872
 8860TIP3   OH248070   5.841   4.831   5.094 -0.2176 -0.1809  0.0100
 8860TIP3    H148071   5.816   4.739   5.085 -0.3797 -0.1909  0.5927
 8860TIP3    H248072   5.816   4.871   5.010  2.1696 -1.1988 -1.2502
 8861TIP3   OH248073   1.529   2.045  11.034 -0.5024  0.2149  0.0611
 8861TIP3    H148074   1.593   2.021  11.102  0.6717  1.6281 -0.5107
 8861TIP3    H248075   1.580   2.094  10.970 -2.5033  2.9823  0.4778
 8862TIP3   OH248076   5.451   4.458  12.452 -0.0706  0.1084  0.1938
 8862TIP3    H148077   5.514   4.495  12.513 -1.5762  1.7120  0.8230
 8862TIP3    H248078   5.397   4.399  12.505 -0.7885  0.7947  0.2430
 8863TIP3   OH248079   3.351   1.631  10.750  0.1720  0.7130  0.3042
 8863TIP3    H148080   3.265   1.662  10.719 -0.0921 -2.1987 -2.1411
 8863TIP3    H248081   3.332   1.549  10.795  1.6733  0.0080 -0.3105
 8864TIP3   OH248082   2.020   0.265  14.754 -0.0075 -0.0306  0.6628
 8864TIP3    H148083   1.991   0.355  14.745 -1.2122 -0.5227 -0.4512
 8864TIP3    H248084   2.115   0.270  14.744 -0.0289  1.1577  0.9897
 8865TIP3   OH248085   4.295   6.255   1.940 -0.2078 -0.1542 -0.5435
 8865TIP3    H148086   4.295   6.346   1.910  0.6986  0.7880  2.2419
 8865TIP3    H248087   4.365   6.214   1.890 -1.4570  0.3091 -2.7642
 8866TIP3   OH248088   3.074   2.844  17.150 -0.0554 -0.3041  0.0831
 8866TIP3    H148089   3.107   2.790  17.078 -0.4942 -1.7127  0.9063
 8866TIP3    H248090   3.145   2.844  17.214 -0.5931 -1.1140  0.6978
 8867TIP3   OH248091   0.692   2.274  13.831  0.0700 -0.0837  0.3559
 8867TIP3    H148092   0.706   2.332  13.757  1.3968  1.4273  1.7498
 8867TIP3    H248093   0.618   2.219  13.805 -0.1596  1.1257 -1.6449
 8868TIP3   OH248094   4.842   0.217   6.033  0.0040 -0.6258 -0.4448
 8868TIP3    H148095   4.812   0.126   6.023  0.5214 -0.9036  0.4762
 8868TIP3    H248096   4.893   0.216   6.114  0.4172  0.3874 -0.6952
 8869TIP3   OH248097   1.515   3.971  16.446  0.1623  0.0082  0.1927
 8869TIP3    H148098   1.523   4.039  16.512  1.7805  0.6336 -0.5962
 8869TIP3    H248099   1.493   3.892  16.495  0.3860  0.6588  1.3638
 8870TIP3   OH248100   2.038   4.295   3.976 -0.6148  0.0971 -0.3491
 8870TIP3    H148101   1.971   4.336   4.030 -0.4038 -0.9972  0.7674
 8870TIP3    H248102   2.019   4.201   3.982 -1.1400  0.0090 -2.8927
 8871TIP3   OH248103   6.489   5.395   1.659  0.4685  0.1897  0.0692
 8871TIP3    H148104   6.541   5.337   1.604 -1.6532 -1.2122 -0.5324
 8871TIP3    H248105   6.516   5.483   1.633  2.1699 -0.4914 -0.5581
 8872TIP3   OH248106   3.299   0.327  13.657  0.6032 -0.5863  0.1828
 8872TIP3    H148107   3.251   0.410  13.661  0.1960 -0.8541  1.0324
 8872TIP3    H248108   3.325   0.319  13.566  1.5927  1.0063  0.3111
 8873TIP3   OH248109   3.059   3.495   1.465  0.4053  0.1309  0.4486
 8873TIP3    H148110   3.040   3.442   1.388  0.3261  0.6978  0.0704
 8873TIP3    H248111   2.974   3.533   1.489  0.7301  1.3169 -0.2205
 8874TIP3   OH248112   4.395   6.216  11.139 -0.2502  0.0205 -0.3448
 8874TIP3    H148113   4.333   6.154  11.177 -0.9208  0.5141 -0.6278
 8874TIP3    H248114   4.355   6.243  11.057 -1.4733  3.1596  1.1830
 8875TIP3   OH248115   6.621   0.616  15.872  0.1138  0.0482 -0.3014
 8875TIP3    H148116   6.572   0.598  15.953  0.4459 -0.7893 -0.2770
 8875TIP3    H248117   6.616   0.534  15.823 -1.7549  1.1334 -2.0255
 8876TIP3   OH248118   1.347   1.223   2.351 -0.1227 -1.0992  0.2449
 8876TIP3    H148119   1.419   1.166   2.323  0.9394  0.6260 -0.6426
 8876TIP3    H248120   1.341   1.288   2.282 -1.0495  0.0972  1.4412
 8877TIP3   OH248121   1.561   5.282  10.650 -0.6449 -0.4833 -0.2559
 8877TIP3    H148122   1.468   5.273  10.630 -0.8298  0.1503  0.2984
 8877TIP3    H248123   1.582   5.373  10.627 -0.5681 -0.1214  1.2410
 8878TIP3   OH248124   2.297   2.898   4.688 -0.0505 -0.1037  0.4432
 8878TIP3    H148125   2.280   2.981   4.644 -1.2802 -0.4674  0.2094
 8878TIP3    H248126   2.392   2.890   4.688  0.0174  0.5903 -0.8568
 8879TIP3   OH248127   1.145   4.937  17.143 -0.4605  0.2882 -0.3110
 8879TIP3    H148128   1.180   4.990  17.071  0.8670 -0.0207  0.1069
 8879TIP3    H248129   1.168   4.847  17.120  0.0477  0.1949  0.5477
 8880TIP3   OH248130   3.372   2.087   4.820 -0.3021  0.0072  0.0661
 8880TIP3    H148131   3.343   2.067   4.909 -0.0658  0.2049  0.1888
 8880TIP3    H248132   3.296   2.068   4.765 -0.8701  1.1127  0.4510
 8881TIP3   OH248133   5.314   5.141  15.094 -0.1553 -0.0042  0.0371
 8881TIP3    H148134   5.227   5.178  15.079 -0.1564 -0.2226 -0.5282
 8881TIP3    H248135   5.324   5.075  15.025  0.7916  0.6009 -0.4136
 8882TIP3   OH248136   2.817   0.784   0.978 -0.3462  0.1883 -0.2964
 8882TIP3    H148137   2.745   0.725   0.956  0.1171 -0.3618 -0.3470
 8882TIP3    H248138   2.896   0.734   0.959  0.0513  0.7482 -0.1331
 8883TIP3   OH248139   3.600   4.633   3.504 -0.1283 -0.1237 -0.1942
 8883TIP3    H148140   3.686   4.676   3.505  0.2979 -0.9573  0.6138
 8883TIP3    H248141   3.598   4.583   3.586 -1.0410 -0.7841 -0.6092
 8884TIP3   OH248142   3.992   3.822   1.999 -0.0781  0.2224  0.0933
 8884TIP3    H148143   4.063   3.792   1.942 -1.5192 -2.7024 -0.2534
 8884TIP3    H248144   4.014   3.787   2.085 -1.4756 -1.4244 -0.1888
 8885TIP3   OH248145   2.437   2.707  14.540  0.2143  0.5083  0.0161
 8885TIP3    H148146   2.369   2.694  14.475 -1.4745  1.4006  1.5457
 8885TIP3    H248147   2.499   2.636  14.526  0.3820  1.2215 -3.1310
 8886TIP3   OH248148   0.314   3.153   4.707 -0.0990 -0.4027  0.2700
 8886TIP3    H148149   0.270   3.215   4.764  0.0686  0.0597 -0.1029
 8886TIP3    H248150   0.255   3.078   4.703 -0.3212 -0.2503  0.6818
 8887TIP3   OH248151   5.722   3.710   0.318 -0.1335 -0.0191  0.0977
 8887TIP3    H148152   5.652   3.742   0.375 -0.5167  0.0476 -0.4080
 8887TIP3    H248153   5.802   3.747   0.356 -0.1935 -1.3279  1.5777
 8888TIP3   OH248154   2.911   0.011  12.587 -0.3565 -0.4820  0.2164
 8888TIP3    H148155   2.895   0.023  12.681  1.0869 -0.3240  0.4546
 8888TIP3    H248156   2.844  -0.051  12.559 -1.1728 -0.0696  1.2302
 8889TIP3   OH248157   2.160   4.928  13.982  0.1627 -0.8259 -0.7995
 8889TIP3    H148158   2.253   4.904  13.988  0.1670 -0.4615  0.8478
 8889TIP3    H248159   2.148   4.992  14.052 -1.2365 -0.5352 -1.2993
 8890TIP3   OH248160   5.563   1.288  16.138  0.5767  0.4902 -0.1346
 8890TIP3    H148161   5.534   1.372  16.173  0.1412 -1.1479  3.7355
 8890TIP3    H248162   5.483   1.235  16.135  1.3939 -0.8256  0.7375
 8891TIP3   OH248163   6.099   3.319  13.260  0.1082 -0.3329 -0.6861
 8891TIP3    H148164   6.024   3.283  13.308 -0.2526  0.9607 -0.2487
 8891TIP3    H248165   6.165   3.335  13.328  1.0822 -2.1603 -1.1662
 8892TIP3   OH248166   0.134   6.665   5.643  0.0297  0.4723  0.3842
 8892TIP3    H148167   0.219   6.653   5.684  0.3680 -0.8926 -0.6968
 8892TIP3    H248168   0.087   6.725   5.702  2.1630  2.2289  0.3480
 8893TIP3   OH248169   5.107   3.434  11.829 -0.3112  0.3491 -0.5360
 8893TIP3    H148170   5.027   3.486  11.827 -0.7240 -0.1703  1.1388
 8893TIP3    H248171   5.085   3.359  11.885  1.5495  0.5418  0.4976
 8894TIP3   OH248172   0.514   0.340   5.218 -0.4566  0.1130  0.3013
 8894TIP3    H148173   0.492   0.372   5.131 -1.2963 -1.7040 -0.1746
 8894TIP3    H248174   0.461   0.394   5.277 -0.2487  1.0265 -0.3377
 8895TIP3   OH248175   4.688   3.535  10.866  0.4499 -0.0770 -0.6364
 8895TIP3    H148176   4.658   3.603  10.806  0.8585 -0.4462 -1.2643
 8895TIP3    H248177   4.652   3.454  10.831 -0.6422 -0.1091  0.5252
 8896TIP3   OH248178   0.730   2.607   3.085 -0.1075 -0.1441  0.4262
 8896TIP3    H148179   0.815   2.573   3.058 -1.0654 -1.3326 -1.1694
 8896TIP3    H248180   0.746   2.700   3.102  1.6990 -0.5440  1.0895
 8897TIP3   OH248181   3.628   3.538   6.206  0.2756 -0.0399  0.4283
 8897TIP3    H148182   3.590   3.532   6.118 -0.5070 -0.1640  0.7702
 8897TIP3    H248183   3.577   3.606   6.250  0.6043 -0.0411  0.8162
 8898TIP3   OH248184   1.989   1.486   1.584 -0.4568  1.0707  0.2425
 8898TIP3    H148185   2.028   1.429   1.517 -1.4899  1.1727 -0.4552
 8898TIP3    H248186   1.929   1.429   1.632 -1.0017  1.4171 -0.0302
 8899TIP3   OH248187   4.072   6.201   4.894  0.2332  0.0540  0.0965
 8899TIP3    H148188   4.090   6.196   4.800  0.7086 -1.0353  0.2369
 8899TIP3    H248189   4.052   6.293   4.910 -1.2554  0.0098 -1.3350
 8900TIP3   OH248190   0.162   3.964  12.051 -0.3914 -0.0829 -0.0054
 8900TIP3    H148191   0.140   4.050  12.015  1.4294  0.5201  0.2221
 8900TIP3    H248192   0.208   3.984  12.133 -1.1808 -1.3230  0.7538
 8901TIP3   OH248193   4.642   1.085   4.757 -0.1271  1.1013  0.5080
 8901TIP3    H148194   4.574   1.046   4.701 -0.2510 -0.2543  1.5737
 8901TIP3    H248195   4.712   1.020   4.758 -0.0950  1.1375  1.8403
 8902TIP3   OH248196   2.397   2.258  14.900 -0.4803  0.1707 -0.3743
 8902TIP3    H148197   2.349   2.205  14.963  0.2430 -0.6741 -0.5206
 8902TIP3    H248198   2.373   2.349  14.921  0.9210  0.0010  2.1317
 8903TIP3   OH248199   5.311   2.417  15.309 -0.2342 -0.4518 -0.0249
 8903TIP3    H148200   5.247   2.485  15.327 -0.0626 -0.4594  0.6434
 8903TIP3    H248201   5.272   2.363  15.241 -0.7658 -0.2187  0.1008
 8904TIP3   OH248202   3.938   2.457   1.474 -0.3119 -0.5571 -0.5463
 8904TIP3    H148203   3.901   2.443   1.387  0.0937 -2.5850 -0.4093
 8904TIP3    H248204   4.011   2.517   1.459 -2.6468  2.2867 -1.0240
 8905TIP3   OH248205   2.429   2.458  11.577 -0.0861  0.5527 -0.5072
 8905TIP3    H148206   2.366   2.443  11.506 -0.9083  0.4826  0.2277
 8905TIP3    H248207   2.513   2.429  11.542 -1.0174 -2.4345 -0.3591
 8906TIP3   OH248208   4.786   6.769  11.074 -0.2838  0.3143 -0.5108
 8906TIP3    H148209   4.824   6.686  11.103  0.3536  0.3888 -1.1261
 8906TIP3    H248210   4.835   6.792  10.996 -2.3098 -0.1278 -1.9505
 8907TIP3   OH248211   1.448   4.121  11.962 -0.6396  0.6655 -0.3671
 8907TIP3    H148212   1.429   4.029  11.979  1.0214  0.2468 -0.6168
 8907TIP3    H248213   1.372   4.154  11.914 -1.4446 -0.4479  0.1472
 8908TIP3   OH248214   2.163   4.299  12.046 -0.1546 -0.0377 -0.0172
 8908TIP3    H148215   2.167   4.221  12.101 -0.1316  1.0821  1.6225
 8908TIP3    H248216   2.229   4.285  11.979  1.3289 -0.5124  1.5054
 8909TIP3   OH248217   1.024   2.051   3.127 -0.1308 -0.4317  0.2996
 8909TIP3    H148218   1.014   2.076   3.219 -0.0554  0.5327  0.0517
 8909TIP3    H248219   1.041   2.134   3.081  1.9792 -1.1336 -0.2714
 8910TIP3   OH248220   1.867   4.762   1.402  0.5155 -0.3425  0.0458
 8910TIP3    H148221   1.853   4.759   1.496 -0.3377 -0.4290 -0.0804
 8910TIP3    H248222   1.782   4.789   1.366  1.3407  1.5543 -0.5616
 8911TIP3   OH248223   2.174   2.159  16.864 -0.2484 -0.1219  0.0565
 8911TIP3    H148224   2.253   2.210  16.850 -0.0482 -1.0485 -2.3211
 8911TIP3    H248225   2.205   2.073  16.891 -0.4500 -0.5170 -0.9803
 8912TIP3   OH248226   5.940   2.971   2.567 -0.1670 -0.8904  0.1626
 8912TIP3    H148227   5.970   2.957   2.478  1.1382 -0.1540  0.4675
 8912TIP3    H248228   5.971   2.894   2.615  0.3282 -0.6402  0.2526
 8913TIP3   OH248229   2.612   5.365  13.195 -0.2716 -0.0032 -0.2702
 8913TIP3    H148230   2.607   5.280  13.239  0.6786  0.3215  0.4869
 8913TIP3    H248231   2.546   5.419  13.240  0.2498  0.1356  0.3419
 8914TIP3   OH248232   5.850   3.304   4.401 -1.2779  0.7234 -0.2409
 8914TIP3    H148233   5.876   3.363   4.472  0.0353 -0.5270  0.3591
 8914TIP3    H248234   5.930   3.295   4.348 -1.8325  0.4815 -1.0378
 8915TIP3   OH248235   6.187   0.670   3.005 -0.1143  0.0594  0.4864
 8915TIP3    H148236   6.228   0.610   2.943 -1.5619 -1.2493  0.7480
 8915TIP3    H248237   6.095   0.644   3.006 -0.5902  1.7103  1.2994
 8916TIP3   OH248238   1.202   1.920   6.283 -0.0683  0.2323  0.1952
 8916TIP3    H148239   1.152   2.001   6.283  0.0194  0.3300  3.0643
 8916TIP3    H248240   1.281   1.941   6.233  0.0620  1.9793  1.0981
 8917TIP3   OH248241   1.076   1.226   2.668  0.0263  0.2517  0.1023
 8917TIP3    H148242   0.999   1.201   2.719 -0.4548 -0.0708 -0.7680
 8917TIP3    H248243   1.042   1.282   2.599  0.4285 -0.6873 -0.8706
 8918TIP3   OH248244   6.762   4.773   0.049 -0.6769  0.3999 -0.5633
 8918TIP3    H148245   6.684   4.788  -0.004 -0.4792 -0.9261 -1.2315
 8918TIP3    H248246   6.734   4.714   0.119  0.3155 -2.2970 -2.3557
 8919TIP3   OH248247   5.276   5.244   2.819  0.2361 -0.0862  0.1101
 8919TIP3    H148248   5.333   5.189   2.766 -1.5038 -1.3890 -0.4838
 8919TIP3    H248249   5.268   5.197   2.902 -0.6310 -0.3423 -0.1142
 8920TIP3   OH248250   1.854   5.697   1.386 -0.3425  0.2487 -0.4603
 8920TIP3    H148251   1.796   5.767   1.416  1.2690  1.1775  0.5854
 8920TIP3    H248252   1.912   5.681   1.460  0.4978 -0.9117 -1.3503
 8921TIP3   OH248253   3.865   6.265   4.321 -0.1799 -0.0237  0.2154
 8921TIP3    H148254   3.842   6.173   4.309  0.0524 -0.0969  0.3440
 8921TIP3    H248255   3.960   6.266   4.327 -0.2052  0.1819  0.5790
 8922TIP3   OH248256   5.860   2.312  15.269  0.2160 -0.4253  0.0702
 8922TIP3    H148257   5.784   2.366  15.291 -0.2582 -0.2789 -1.8467
 8922TIP3    H248258   5.929   2.376  15.247 -0.1180 -0.5539 -1.4417
 8923TIP3   OH248259   0.062   4.217   5.068  0.3747  0.0756  0.2955
 8923TIP3    H148260   0.060   4.266   4.986 -3.1469  0.5460  0.5742
 8923TIP3    H248261   0.116   4.270   5.127  2.3776  0.0603 -1.4824
 8924TIP3   OH248262   6.050   4.554  13.805  0.1797 -0.3557  0.1885
 8924TIP3    H148263   6.111   4.539  13.877  0.0391  0.9791  0.5953
 8924TIP3    H248264   6.104   4.552  13.726  0.6894  0.4186  0.5174
 8925TIP3   OH248265   3.930   0.833  11.145  0.1975  0.6848  0.2598
 8925TIP3    H148266   3.875   0.865  11.216 -1.4802 -0.8451 -0.3113
 8925TIP3    H248267   3.871   0.830  11.069  1.3777  0.1732 -0.6425
 8926TIP3   OH248268   2.382   2.590  15.176  0.0423 -0.1059  0.1165
 8926TIP3    H148269   2.393   2.497  15.196  0.8589 -0.1066 -0.3419
 8926TIP3    H248270   2.314   2.592  15.108 -1.4997 -0.2196  1.6134
 8927TIP3   OH248271   5.195   3.804   4.077 -0.6117  0.0463  0.0401
 8927TIP3    H148272   5.202   3.709   4.070  0.1252 -0.0180  1.5754
 8927TIP3    H248273   5.101   3.821   4.072 -0.7003 -0.6902 -0.9624
 8928TIP3   OH248274   6.769   1.168   2.326 -0.0323  0.8874 -0.4141
 8928TIP3    H148275   6.699   1.113   2.290 -0.9240  2.0345 -0.4805
 8928TIP3    H248276   6.850   1.131   2.291 -0.6393 -0.2094 -0.6714
 8929TIP3   OH248277   4.743   4.087   5.079 -0.0212  0.6383  0.5057
 8929TIP3    H148278   4.805   4.041   5.023 -0.8255 -0.4938  0.5349
 8929TIP3    H248279   4.657   4.057   5.050 -0.4582  0.0930  2.2670
 8930TIP3   OH248280   1.694   0.856   1.833  0.4122 -0.7493 -0.0554
 8930TIP3    H148281   1.670   0.895   1.917  0.1630 -1.2901  0.1265
 8930TIP3    H248282   1.624   0.881   1.774  1.3328  0.8746 -0.4747
 8931TIP3   OH248283   5.225   1.945   2.998  0.0397 -0.3894  0.0399
 8931TIP3    H148284   5.218   1.907   2.911 -0.0508  2.0537 -1.0467
 8931TIP3    H248285   5.301   1.902   3.037  1.2888 -0.0501 -1.9946
 8932TIP3   OH248286   3.236   3.019   3.716  0.2536  0.3275  0.4300
 8932TIP3    H148287   3.297   3.060   3.655 -0.8718  1.3979  0.0005
 8932TIP3    H248288   3.150   3.027   3.674  0.0279 -2.6673  0.2489
 8933TIP3   OH248289   2.340   3.033  15.955  0.1782 -0.0477  0.0665
 8933TIP3    H148290   2.269   3.096  15.963  1.8065  2.1893 -2.5156
 8933TIP3    H248291   2.312   2.973  15.886  0.5784  0.5087 -0.5749
 8934TIP3   OH248292   4.186   1.795  14.494  0.0632 -0.3203 -0.1145
 8934TIP3    H148293   4.162   1.745  14.572 -1.9293  0.6832 -0.0585
 8934TIP3    H248294   4.275   1.767  14.475 -0.2414 -2.2932  1.1696
 8935TIP3   OH248295   3.830   2.405   5.364 -0.0504 -0.4527 -0.1648
 8935TIP3    H148296   3.782   2.322   5.359 -0.1294 -0.5219  1.5021
 8935TIP3    H248297   3.922   2.380   5.355 -0.1981 -0.4751 -1.8391
 8936TIP3   OH248298   2.557   4.979   5.815  0.3233 -0.1475  0.2152
 8936TIP3    H148299   2.554   5.023   5.731  0.3984  1.3302  0.9706
 8936TIP3    H248300   2.501   4.902   5.804 -3.0479  2.2064  0.0165
 8937TIP3   OH248301   1.772   2.108  16.270 -0.4360  0.0980  0.0978
 8937TIP3    H148302   1.690   2.087  16.314 -1.4405  3.4817  0.0025
 8937TIP3    H248303   1.836   2.116  16.340 -0.9712  0.8614  0.4980
 8938TIP3   OH248304   5.326   0.879   2.192  0.3843 -0.2954 -0.1236
 8938TIP3    H148305   5.364   0.960   2.156 -0.7323  0.8405  1.1793
 8938TIP3    H248306   5.386   0.810   2.165  1.5409  1.0121 -0.9837
 8939TIP3   OH248307   5.682   1.859  12.005  0.1638 -0.0213 -0.5280
 8939TIP3    H148308   5.716   1.837  12.091 -0.3285  1.0017 -0.0624
 8939TIP3    H248309   5.732   1.936  11.978 -0.0929  0.0205 -0.8918
 8940TIP3   OH248310   6.527   6.107  12.295 -0.6250 -0.2678 -0.3338
 8940TIP3    H148311   6.609   6.090  12.343 -1.4706 -1.0962  0.8412
 8940TIP3    H248312   6.544   6.072  12.208  1.0636  1.5776 -0.7876
 8941TIP3   OH248313   1.045   2.887   2.283 -0.3140 -0.2190 -0.1638
 8941TIP3    H148314   1.137   2.912   2.289 -0.6778  0.9473  0.7914
 8941TIP3    H248315   1.041   2.826   2.210  1.2514 -0.4273 -0.0820
 8942TIP3   OH248316   6.109   3.463   6.423  0.0346  0.3169  0.4426
 8942TIP3    H148317   6.159   3.382   6.437 -2.8400 -1.2888  1.7961
 8942TIP3    H248318   6.031   3.436   6.376 -0.5852  2.4539  0.1750
 8943TIP3   OH248319   1.109   1.364   1.752  0.5947  0.4035  0.1507
 8943TIP3    H148320   1.152   1.449   1.759  0.1927  0.5524  0.8902
 8943TIP3    H248321   1.172   1.308   1.706  0.0492  1.6458 -2.1967
 8944TIP3   OH248322   6.400   4.683  12.218  0.0255 -0.0335 -0.2293
 8944TIP3    H148323   6.451   4.604  12.236  0.0192  0.1021  0.4052
 8944TIP3    H248324   6.461   4.755  12.232 -0.4435  0.1460  0.9251
 8945TIP3   OH248325   1.158   1.896   3.886 -0.2476  0.2589  1.0130
 8945TIP3    H148326   1.189   1.869   3.973 -0.5944  0.1034  1.0890
 8945TIP3    H248327   1.217   1.852   3.825  0.2283  0.6617  1.1767
 8946TIP3   OH248328   6.252   5.012   0.818  0.5026  0.1441 -0.2914
 8946TIP3    H148329   6.164   4.995   0.786  0.3026  1.3493 -0.4195
 8946TIP3    H248330   6.251   4.982   0.909 -0.2522  0.7625 -0.0893
 8947TIP3   OH248331   1.665   4.812   0.949  0.2166  0.3989 -0.0113
 8947TIP3    H148332   1.578   4.784   0.976  1.1635  0.1721  3.0789
 8947TIP3    H248333   1.653   4.902   0.917 -0.8926  1.1631  2.3921
 8948TIP3   OH248334   1.757   6.289   4.140  0.3308 -0.4079 -0.6787
 8948TIP3    H148335   1.716   6.333   4.065 -0.8020 -0.5025 -0.1236
 8948TIP3    H248336   1.726   6.199   4.135 -2.2145  0.2515  1.5745
 8949TIP3   OH248337   5.575   5.935  14.185  0.3105  0.6577 -0.3790
 8949TIP3    H148338   5.645   5.870  14.193 -1.0655 -0.6360  1.6727
 8949TIP3    H248339   5.590   5.997  14.256 -0.5508  0.4163  0.0296
 8950TIP3   OH248340   3.364   0.025   6.106 -0.1186 -0.4663 -0.7326
 8950TIP3    H148341   3.384   0.038   6.199  3.3936 -2.0594 -1.2024
 8950TIP3    H248342   3.360   0.113   6.070 -1.1753  0.1569  0.8449
 8951TIP3   OH248343   1.517   6.013  12.452  0.7350  0.4404 -0.4078
 8951TIP3    H148344   1.534   6.090  12.398 -2.1446  0.3039 -1.6265
 8951TIP3    H248345   1.523   6.044  12.542  2.7566  1.3396 -0.8432
 8952TIP3   OH248346   2.599   6.285   1.677 -0.2261 -0.1085  0.0744
 8952TIP3    H148347   2.586   6.195   1.647  1.0009 -0.2563 -0.0621
 8952TIP3    H248348   2.548   6.339   1.616  0.3462 -0.5954 -0.8508
 8953TIP3   OH248349   2.642   1.801   5.551  0.0992 -0.0095  0.8193
 8953TIP3    H148350   2.702   1.786   5.624 -1.4079  0.3427  2.1625
 8953TIP3    H248351   2.693   1.780   5.473  1.5285 -1.0801  2.0114
 8954TIP3   OH248352   3.638   0.678   1.329  0.5896 -0.3712 -1.1783
 8954TIP3    H148353   3.582   0.659   1.254  2.1902 -2.7062 -1.8078
 8954TIP3    H248354   3.595   0.634   1.403  0.1450  0.1546 -1.1184
 8955TIP3   OH248355   4.618   5.333  14.086  0.3960 -0.3155  0.1831
 8955TIP3    H148356   4.564   5.400  14.046  0.3762 -0.1727  0.4483
 8955TIP3    H248357   4.676   5.380  14.146  0.9946 -0.4383 -0.2855
 8956TIP3   OH248358   0.242   0.136   5.005 -0.8016 -0.5544 -0.4860
 8956TIP3    H148359   0.213   0.045   5.004  1.1039 -1.1865 -1.8626
 8956TIP3    H248360   0.311   0.140   4.938 -1.0289  1.9555 -0.6209
 8957TIP3   OH248361   0.830   1.935  15.472 -0.4344 -0.4351  0.2410
 8957TIP3    H148362   0.829   1.902  15.562  2.7080  1.5536  1.0949
 8957TIP3    H248363   0.906   1.893  15.433 -1.2926 -0.6274 -1.2361
 8958TIP3   OH248364   2.764   3.242   1.111  0.5500  0.9621  0.5613
 8958TIP3    H148365   2.709   3.222   1.187 -0.4486  2.3126  0.2100
 8958TIP3    H248366   2.747   3.170   1.050 -0.0316  0.8159  0.8889
 8959TIP3   OH248367   5.582   6.428  14.019  0.2554  0.0190  0.3331
 8959TIP3    H148368   5.491   6.400  14.008 -0.0399  1.0259  0.2210
 8959TIP3    H248369   5.625   6.397  13.939 -0.6282  2.0987 -0.9857
 8960TIP3   OH248370   5.770   5.149   1.402 -0.3723 -0.1618 -0.3158
 8960TIP3    H148371   5.689   5.180   1.361 -0.6433 -0.5514 -0.0815
 8960TIP3    H248372   5.837   5.210   1.372 -0.4976 -0.6438 -1.5944
 8961TIP3   OH248373   2.376   2.058  14.695  0.5731  0.1222  0.3696
 8961TIP3    H148374   2.424   2.116  14.754 -0.4504  0.8207  0.5431
 8961TIP3    H248375   2.293   2.103  14.680  0.1556 -0.8433 -0.2833
 8962TIP3   OH248376   3.138   6.258   1.386  0.2511 -0.5960 -0.0164
 8962TIP3    H148377   3.174   6.341   1.353  3.3410 -2.5826 -1.9951
 8962TIP3    H248378   3.086   6.224   1.313 -0.1287 -0.9034  0.3957
 8963TIP3   OH248379   6.372   0.666   5.237 -0.4740  0.2071 -0.2684
 8963TIP3    H148380   6.407   0.729   5.300  0.5483 -0.2300 -0.3849
 8963TIP3    H248381   6.437   0.664   5.167 -1.2660  0.1779 -1.0036
 8964TIP3   OH248382   0.160   3.065   1.898  1.0055  0.1555  0.6931
 8964TIP3    H148383   0.109   3.063   1.979  0.0900  0.2050  0.1144
 8964TIP3    H248384   0.112   3.124   1.840 -0.0467 -2.2814 -1.0077
 8965TIP3   OH248385   1.995   3.549  12.898  0.1946  0.1597 -0.1355
 8965TIP3    H148386   1.953   3.635  12.902 -0.2761  0.0023 -1.6164
 8965TIP3    H248387   2.078   3.560  12.944  0.4085  1.5671 -0.8541
 8966TIP3   OH248388   4.811   5.191   0.399  0.1340  0.0361  0.0518
 8966TIP3    H148389   4.839   5.283   0.390  0.6442 -0.3119 -2.1905
 8966TIP3    H248390   4.882   5.150   0.449  0.0873  0.7835  0.7375
 8967TIP3   OH248391   2.998   6.255  16.447  0.3374 -0.1487  0.1725
 8967TIP3    H148392   3.037   6.192  16.507  2.0237  0.1873 -0.5538
 8967TIP3    H248393   3.072   6.305  16.412 -0.6098 -0.1803 -1.9926
 8968TIP3   OH248394   5.627   5.501   2.030  0.5604  0.1757  0.5701
 8968TIP3    H148395   5.562   5.440   1.997 -2.3909  2.4421  1.9115
 8968TIP3    H248396   5.631   5.482   2.124 -1.3068  2.7440  1.2263
 8969TIP3   OH248397   2.301   1.107  13.609  0.4266 -0.1978 -0.1159
 8969TIP3    H148398   2.211   1.141  13.609  0.0123 -1.2442  1.5033
 8969TIP3    H248399   2.295   1.025  13.658  2.7582  1.0563  2.3776
 8970TIP3   OH248400   4.128   0.536   4.779  0.0466  0.4458  0.0625
 8970TIP3    H148401   4.036   0.530   4.756  0.2969  1.4371 -1.2938
 8970TIP3    H248402   4.174   0.494   4.706  0.5959 -1.3407  1.4246
 8971TIP3   OH248403   2.309   5.371   0.301 -0.0378  0.2888  0.1088
 8971TIP3    H148404   2.216   5.382   0.324 -0.3370  0.4346 -1.1267
 8971TIP3    H248405   2.308   5.305   0.231  0.6176  1.7176 -1.2541
 8972TIP3   OH248406   0.117   0.823   6.600  0.1649 -0.2568 -0.0372
 8972TIP3    H148407   0.067   0.745   6.576 -1.0660  0.6628 -0.4588
 8972TIP3    H248408   0.207   0.790   6.611 -0.2253 -1.6322 -0.7821
 8973TIP3   OH248409   5.252   0.842  11.936  0.8497  0.4123  0.3368
 8973TIP3    H148410   5.241   0.764  11.991  1.2970  1.2225  1.5835
 8973TIP3    H248411   5.287   0.908  11.994  0.8171  1.4579 -0.8075
 8974TIP3   OH248412   3.344   1.228   1.952 -0.0669 -0.0066 -0.2465
 8974TIP3    H148413   3.409   1.159   1.941 -0.2385 -0.3872  1.0956
 8974TIP3    H248414   3.396   1.309   1.958  0.3099 -0.3437  1.1352
 8975TIP3   OH248415   6.332   3.620   2.570 -0.0534 -0.1641 -0.5653
 8975TIP3    H148416   6.263   3.555   2.557  0.4206 -0.8441  0.2222
 8975TIP3    H248417   6.286   3.704   2.576 -0.7897 -0.5859 -0.2730
 8976TIP3   OH248418   2.586   4.497  14.315  0.1777  1.1131 -0.2985
 8976TIP3    H148419   2.628   4.582  14.330 -0.4304  1.3513  0.1122
 8976TIP3    H248420   2.621   4.467  14.232  1.5807  1.0381  0.3117
 8977TIP3   OH248421   1.007   5.971  13.749  0.5910  0.4589  0.3172
 8977TIP3    H148422   1.073   5.904  13.769 -1.2110 -1.3872  0.3213
 8977TIP3    H248423   0.955   5.977  13.829  0.4099  1.4867  0.1231
 8978TIP3   OH248424   3.289   0.977   0.676 -0.1394  0.4837 -0.6543
 8978TIP3    H148425   3.243   1.039   0.618  0.6171  0.8577 -0.8579
 8978TIP3    H248426   3.381   0.986   0.652 -0.0784 -1.1125 -1.0597
 8979TIP3   OH248427   4.624   1.878   5.924 -0.1117 -0.1337  0.1137
 8979TIP3    H148428   4.688   1.854   5.858  0.1005  0.6740  0.0339
 8979TIP3    H248429   4.559   1.807   5.921  0.5482 -0.7290 -0.0923
 8980TIP3   OH248430   5.157   3.011  13.163 -0.1646 -0.0906 -0.6992
 8980TIP3    H148431   5.151   3.017  13.067 -1.0632 -0.8893 -0.6992
 8980TIP3    H248432   5.086   2.952  13.188  2.6223 -3.2142  0.1283
 8981TIP3   OH248433   4.372   3.996  13.237  1.0953  0.4368 -0.1567
 8981TIP3    H148434   4.286   3.982  13.197  0.9751 -1.6525  0.7318
 8981TIP3    H248435   4.426   3.926  13.200  1.3381 -0.6981  2.2296
 8982TIP3   OH248436   0.372   0.953   1.270 -0.2017 -0.4362 -0.0654
 8982TIP3    H148437   0.462   0.921   1.264 -0.0632  0.3768 -2.8172
 8982TIP3    H248438   0.321   0.877   1.297  1.1395 -1.2017  0.3571
 8983TIP3   OH248439   3.111   1.866  15.108  0.4044 -0.5511  0.2051
 8983TIP3    H148440   3.019   1.840  15.109  0.1872  0.0354 -2.0099
 8983TIP3    H248441   3.156   1.796  15.155 -1.0768 -1.2059  0.6766
 8984TIP3   OH248442   3.238   0.118  12.775  0.5324  0.3153  0.2429
 8984TIP3    H148443   3.250   0.182  12.705  1.2837  0.0484  0.1259
 8984TIP3    H248444   3.272   0.036  12.740 -0.0938 -0.0779  0.5258
 8985TIP3   OH248445   4.802   1.342  16.793 -0.0079 -0.1699 -1.1634
 8985TIP3    H148446   4.820   1.334  16.699  0.6257 -0.0444 -1.0579
 8985TIP3    H248447   4.868   1.404  16.824 -1.5805  1.4566 -1.0255
 8986TIP3   OH248448   2.610   4.046  12.905 -0.3091 -0.6726  0.2159
 8986TIP3    H148449   2.607   3.967  12.959 -0.3591 -0.5305  0.4203
 8986TIP3    H248450   2.683   4.097  12.941  1.4324 -1.8151 -1.5575
 8987TIP3   OH248451   6.636   1.540  13.415 -0.1350  0.4938 -0.2910
 8987TIP3    H148452   6.562   1.597  13.397 -0.1746  0.0895 -1.4616
 8987TIP3    H248453   6.664   1.509  13.329  1.4521  0.7179  0.1366
 8988TIP3   OH248454   5.224   4.841   6.055  0.6799  0.2516  0.5637
 8988TIP3    H148455   5.140   4.872   6.088 -0.4150 -0.7166 -1.2327
 8988TIP3    H248456   5.276   4.920   6.044 -0.5011  1.0098  0.3186
 8989TIP3   OH248457   2.778   5.168  11.151 -0.6786  0.2132 -0.6909
 8989TIP3    H148458   2.817   5.087  11.187 -0.4744  0.2956 -0.7244
 8989TIP3    H248459   2.853   5.217  11.119 -0.9560 -0.3260 -2.1858
 8990TIP3   OH248460   4.407   1.738  17.161 -0.1400  0.4011  0.5056
 8990TIP3    H148461   4.413   1.757  17.067  0.1081  0.8610  0.6129
 8990TIP3    H248462   4.456   1.656  17.172 -0.4252  0.1855  0.1887
 8991TIP3   OH248463   2.969   4.538  13.379 -0.0871  0.5289  0.4989
 8991TIP3    H148464   2.937   4.512  13.293 -1.6052  3.8261 -0.0101
 8991TIP3    H248465   2.894   4.523  13.437 -1.3267  4.4338  0.0270
 8992TIP3   OH248466   6.271   2.367   2.347  0.3562 -0.7439 -0.1376
 8992TIP3    H148467   6.263   2.458   2.320  0.8902 -0.2998  1.1248
 8992TIP3    H248468   6.215   2.360   2.425  1.1409 -1.2052  0.4033
 8993TIP3   OH248469   2.441   2.773   3.028  0.6764  0.4447 -0.1116
 8993TIP3    H148470   2.395   2.735   2.953  1.0787  0.5284 -0.4052
 8993TIP3    H248471   2.508   2.708   3.050  1.2654  0.9093 -0.5168
 8994TIP3   OH248472   0.587   2.695  11.881  0.1143 -0.0107  0.3913
 8994TIP3    H148473   0.594   2.760  11.811  0.3749  2.0734  2.2971
 8994TIP3    H248474   0.662   2.637  11.868 -0.3049 -0.1376 -1.5235
 8995TIP3   OH248475   3.256   5.673  11.332 -0.1393 -0.0915  0.0803
 8995TIP3    H148476   3.244   5.612  11.405  0.2812  1.5272  1.5469
 8995TIP3    H248477   3.350   5.691  11.333 -0.2984  0.7402 -0.2019
 8996TIP3   OH248478   0.201   5.929  12.446 -0.0503  0.1623 -0.3702
 8996TIP3    H148479   0.235   6.012  12.410 -0.2607  0.6837  0.6232
 8996TIP3    H248480   0.230   5.863  12.383 -0.7412  1.1044 -1.7152
 8997TIP3   OH248481   4.185   2.421  12.466 -0.3752 -0.1437 -0.2366
 8997TIP3    H148482   4.276   2.399  12.486  0.2066  1.7762 -0.6311
 8997TIP3    H248483   4.186   2.445  12.373 -0.5621  3.2599  0.5747
 8998TIP3   OH248484   0.613   2.567  14.226 -0.2102  0.1693 -0.0499
 8998TIP3    H148485   0.657   2.579  14.142 -0.8839 -0.6565 -0.5244
 8998TIP3    H248486   0.532   2.619  14.219 -0.9800 -1.0682 -0.4656
 8999TIP3   OH248487   5.113   1.825  12.890 -0.1874  0.1188  0.7502
 8999TIP3    H148488   5.193   1.873  12.911  0.1031 -0.5653  1.2260
 8999TIP3    H248489   5.131   1.735  12.918  0.8494 -1.2845 -3.8924
 9000TIP3   OH248490   0.549   3.316  14.212 -0.2964  0.8097 -0.0045
 9000TIP3    H148491   0.637   3.313  14.249 -0.3356  1.3877  0.1448
 9000TIP3    H248492   0.503   3.383  14.263 -0.5165  1.2294 -0.7316
 9001TIP3   OH248493   3.843   4.742   3.534  0.9022 -0.1853 -0.8057
 9001TIP3    H148494   3.936   4.746   3.558  0.4143 -1.6502  1.5035
 9001TIP3    H248495   3.806   4.821   3.573  1.3248  0.9306 -2.5945
 9002TIP3   OH248496   4.598   0.127   4.146  0.1585 -0.0923  0.1497
 9002TIP3    H148497   4.605   0.153   4.237  0.7531  1.3074 -0.2809
 9002TIP3    H248498   4.675   0.165   4.104 -0.7727  0.3924 -1.1809
 9003TIP3   OH248499   0.618   5.129   2.707  0.1568 -0.3976 -0.1008
 9003TIP3    H148500   0.658   5.122   2.794 -0.6613  0.3039  0.3402
 9003TIP3    H248501   0.647   5.213   2.674 -0.0455 -0.3820 -0.2398
 9004TIP3   OH248502   1.032   0.351   0.561 -0.4752  0.4815 -0.0125
 9004TIP3    H148503   0.944   0.386   0.573 -0.8207 -0.2009 -0.5259
 9004TIP3    H248504   1.026   0.296   0.483 -0.3958 -2.1377  1.7458
 9005TIP3   OH248505   4.500   1.055  13.148  0.0921  0.0611  0.2481
 9005TIP3    H148506   4.447   1.000  13.206  0.9593 -0.8575  0.1855
 9005TIP3    H248507   4.568   1.091  13.204 -0.1510  0.6281  0.1748
 9006TIP3   OH248508   3.594   3.422  15.204  0.2389 -0.4464  0.6638
 9006TIP3    H148509   3.525   3.363  15.235 -0.2357  0.8026  1.9909
 9006TIP3    H248510   3.607   3.484  15.275  0.8879  0.9411 -0.6465
 9007TIP3   OH248511   1.360   1.634  13.696  0.3017  0.5063  0.1028
 9007TIP3    H148512   1.404   1.713  13.727  0.0122  0.0032  1.8101
 9007TIP3    H248513   1.272   1.663  13.673  0.8531  1.0930 -1.3122
 9008TIP3   OH248514   2.247   6.795   0.090  0.2103  0.0025 -0.0782
 9008TIP3    H148515   2.341   6.785   0.081  0.3832 -0.4569  1.9096
 9008TIP3    H248516   2.236   6.839   0.175 -1.4215 -1.5641  0.5420
 9009TIP3   OH248517   6.162   3.547  16.329  0.1242 -0.3263  0.6792
 9009TIP3    H148518   6.206   3.479  16.380  0.5517 -0.8382 -0.3583
 9009TIP3    H248519   6.170   3.518  16.238 -1.4505  0.0967  0.3907
 9010TIP3   OH248520   2.020   1.677   5.213  0.7079 -0.6521  0.0947
 9010TIP3    H148521   2.003   1.760   5.258  1.5190  0.2998 -1.2976
 9010TIP3    H248522   1.949   1.669   5.150  0.9735 -0.7026 -0.1981
 9011TIP3   OH248523   4.574   3.706  16.199 -0.1326 -0.1004  0.3265
 9011TIP3    H148524   4.573   3.774  16.132  0.3744  0.0229  0.4349
 9011TIP3    H248525   4.653   3.726  16.251  0.5839 -1.3551 -0.2552
 9012TIP3   OH248526   3.655   1.639   2.631  0.3988  0.5784 -0.2942
 9012TIP3    H148527   3.735   1.614   2.678 -0.7331  0.8018  1.8026
 9012TIP3    H248528   3.676   1.723   2.591  0.5883  1.6796  1.9958
 9013TIP3   OH248529   1.178   0.664  11.688 -0.5319 -0.2544 -0.4820
 9013TIP3    H148530   1.146   0.586  11.642 -0.5754 -0.6017  0.1350
 9013TIP3    H248531   1.267   0.640  11.715 -0.0056  0.4394 -1.5512
 9014TIP3   OH248532   0.615   2.051  14.073 -0.1190  0.0088  0.3772
 9014TIP3    H148533   0.669   2.083  14.000 -0.9221 -0.2572 -0.3437
 9014TIP3    H248534   0.533   2.023  14.031 -0.5202 -0.2986  1.3662
 9015TIP3   OH248535   2.833   4.709  10.529 -0.2484  0.2324 -0.0000
 9015TIP3    H148536   2.773   4.663  10.470 -0.6398 -0.6123  1.0416
 9015TIP3    H248537   2.920   4.688  10.497 -0.4471 -0.6876  0.0479
 9016TIP3   OH248538   2.443   4.668  14.853  0.0227  0.1761  0.1681
 9016TIP3    H148539   2.407   4.580  14.840  1.0890 -0.2156 -0.1279
 9016TIP3    H248540   2.529   4.653  14.891 -1.3153  1.1655  3.8058
 9017TIP3   OH248541   5.705   3.677   0.050 -0.0658  0.0336  0.0581
 9017TIP3    H148542   5.681   3.673   0.142 -1.1546 -0.1577 -0.2217
 9017TIP3    H248543   5.789   3.633   0.045  0.0071  0.0606  0.9600
 9018TIP3   OH248544   0.826   0.940  16.172  0.5848 -0.2878  0.0545
 9018TIP3    H148545   0.782   0.877  16.229 -0.4621 -0.0826 -0.5022
 9018TIP3    H248546   0.782   0.930  16.087  0.7097  0.8734 -0.1520
 9019TIP3   OH248547   3.410   3.059   0.099  0.6771  0.2500  0.0739
 9019TIP3    H148548   3.418   2.998   0.172 -0.1980 -0.4022 -0.3608
 9019TIP3    H248549   3.481   3.122   0.112  0.2734  0.3974  1.7252
 9020TIP3   OH248550   1.287   1.155   0.317  0.3364 -0.0721  0.1177
 9020TIP3    H148551   1.251   1.124   0.400 -1.2358  3.4458  0.8398
 9020TIP3    H248552   1.242   1.104   0.250  0.4569 -1.8367  1.3631
 9021TIP3   OH248553   2.411   6.475   1.143 -0.0420 -0.1737  0.4824
 9021TIP3    H148554   2.357   6.488   1.221  0.1498 -0.1865  0.6172
 9021TIP3    H248555   2.362   6.517   1.072 -1.0061 -1.5836  0.2943
 9022TIP3   OH248556   4.540   1.252  12.460 -0.5681 -0.3248  0.6662
 9022TIP3    H148557   4.561   1.280  12.371 -0.0572 -0.1332  0.8419
 9022TIP3    H248558   4.617   1.203  12.488  0.6077  2.1929  2.0952
 9023TIP3   OH248559   5.895   5.214   4.502  0.6264 -0.1174 -0.0181
 9023TIP3    H148560   5.928   5.159   4.431  1.0337 -0.8264  0.7176
 9023TIP3    H248561   5.860   5.291   4.457  0.7744 -0.6057 -0.9990
 9024TIP3   OH248562   6.340   4.638   5.150  0.6809  0.2566  0.1298
 9024TIP3    H148563   6.377   4.559   5.190  1.4349  0.6342  0.1834
 9024TIP3    H248564   6.332   4.616   5.057 -0.1065 -0.2586  0.3196
 9025TIP3   OH248565   2.325   4.512  13.313 -0.0390 -0.7806 -1.0122
 9025TIP3    H148566   2.386   4.526  13.385 -1.6687 -0.6032  0.3733
 9025TIP3    H248567   2.277   4.433  13.337 -1.4940  0.0097 -1.2625
 9026TIP3   OH248568   1.886   1.151   1.481 -0.0383  0.3622 -0.3103
 9026TIP3    H148569   1.909   1.100   1.558  0.2252  2.1974  0.8732
 9026TIP3    H248570   1.969   1.190   1.452 -0.4384  1.1234 -0.4430
 9027TIP3   OH248571   4.736   0.317   6.662  0.0043  0.0536 -0.2138
 9027TIP3    H148572   4.774   0.258   6.728 -1.1996  1.2656  1.6163
 9027TIP3    H248573   4.772   0.403   6.684 -0.6961  0.5264 -0.9193
 9028TIP3   OH248574   4.733   3.894   2.776 -0.5504 -0.1116 -0.0898
 9028TIP3    H148575   4.786   3.827   2.734 -2.4214 -2.4170  1.0645
 9028TIP3    H248576   4.782   3.919   2.854  0.4703  0.3932 -0.8748
 9029TIP3   OH248577   6.492   6.091  15.886  0.5157  0.8059  0.2268
 9029TIP3    H148578   6.562   6.032  15.859  0.1979  0.3771  0.3347
 9029TIP3    H248579   6.432   6.036  15.937  1.1768  1.6300  1.9343
 9030TIP3   OH248580   0.089   4.282  16.221  0.2116  0.3897 -0.0346
 9030TIP3    H148581   0.036   4.238  16.288  0.2567 -2.1784 -1.5967
 9030TIP3    H248582   0.045   4.366  16.207 -1.2081 -0.0778  1.4240
 9031TIP3   OH248583   6.637   3.569   5.324  0.2828  0.3401  0.5164
 9031TIP3    H148584   6.586   3.648   5.339  1.3872  0.9176  1.2981
 9031TIP3    H248585   6.727   3.595   5.344  0.2277 -2.0678  4.2730
 9032TIP3   OH248586   5.727   1.861   5.764 -0.1803 -0.0106 -0.1281
 9032TIP3    H148587   5.737   1.901   5.851  0.8835 -0.5053 -0.0174
 9032TIP3    H248588   5.789   1.788   5.764  0.1787  0.2855 -1.4844
 9033TIP3   OH248589   3.640   0.848   1.977 -0.1665  0.2486 -0.1360
 9033TIP3    H148590   3.563   0.824   2.030  0.7999 -1.2656  0.6169
 9033TIP3    H248591   3.697   0.771   1.982 -0.1266  0.0007 -3.5378
 9034TIP3   OH248592   0.765   5.721   0.041 -0.2100  0.0090  0.1980
 9034TIP3    H148593   0.816   5.718  -0.040 -0.3575  0.5215  0.0822
 9034TIP3    H248594   0.822   5.682   0.107 -0.0466 -0.3072 -0.1313
 9035TIP3   OH248595   4.599   1.484  14.520 -0.8183 -0.4614  0.4785
 9035TIP3    H148596   4.639   1.472  14.434 -1.5145 -1.1016  0.2398
 9035TIP3    H248597   4.670   1.468  14.582 -0.0418  1.0870  0.0115
 9036TIP3   OH248598   5.136   2.216   1.033 -0.1276  0.2584  0.6122
 9036TIP3    H148599   5.227   2.241   1.016  0.3949 -1.4740  0.7115
 9036TIP3    H248600   5.143   2.131   1.076 -1.8176  0.0022  0.4054
 9037TIP3   OH248601   0.534   4.115  10.567 -0.2368  0.3733  0.0329
 9037TIP3    H148602   0.624   4.107  10.599 -0.1462 -1.4029 -0.6096
 9037TIP3    H248603   0.494   4.031  10.586 -1.9310  1.3002  0.7346
 9038TIP3   OH248604   3.240   3.300   0.483  0.3122 -0.0745 -0.5094
 9038TIP3    H148605   3.294   3.227   0.454 -0.0249  0.0134 -1.3655
 9038TIP3    H248606   3.152   3.279   0.451  0.2095  0.6886 -0.7448
 9039TIP3   OH248607   3.637   1.639  15.258 -0.0630  0.2289 -0.3356
 9039TIP3    H148608   3.732   1.639  15.246  0.2150 -0.5327  1.5784
 9039TIP3    H248609   3.602   1.676  15.177  1.8874  0.9471 -0.8822
 9040TIP3   OH248610   0.591   1.713   3.660  0.1424 -0.2938  0.6526
 9040TIP3    H148611   0.645   1.643   3.696 -3.7786 -3.7910  0.0561
 9040TIP3    H248612   0.559   1.761   3.736  0.7543 -0.7561  1.1994
 9041TIP3   OH248613   4.097   0.780   1.175 -0.2613 -0.2748  0.0725
 9041TIP3    H148614   4.011   0.739   1.187  0.0588 -0.7402  0.8299
 9041TIP3    H248615   4.158   0.717   1.213  0.3765  0.2440 -0.1014
 9042TIP3   OH248616   5.621   5.082   5.139 -0.3943  0.1138 -0.2609
 9042TIP3    H148617   5.565   5.057   5.065 -1.2350  1.0807  0.0399
 9042TIP3    H248618   5.607   5.012   5.204  0.8816 -1.1086 -1.2687
 9043TIP3   OH248619   5.432   2.460   1.197 -0.3630 -0.4308 -0.1602
 9043TIP3    H148620   5.342   2.427   1.205 -1.6766  2.7920 -1.0797
 9043TIP3    H248621   5.482   2.385   1.165 -3.6873 -0.9881 -4.4240
 9044TIP3   OH248622   2.612   5.524   0.596 -0.1327  0.1673  0.7312
 9044TIP3    H148623   2.653   5.555   0.677 -0.9878  1.5148  0.6739
 9044TIP3    H248624   2.541   5.467   0.626 -0.7782  1.0825  0.9532
 9045TIP3   OH248625   5.632   2.099  15.420  0.0305  0.0043  0.5172
 9045TIP3    H148626   5.699   2.036  15.393  0.3105  0.7234 -0.5357
 9045TIP3    H248627   5.616   2.151  15.342  0.3200  1.6848  1.5489
 9046TIP3   OH248628   5.593   3.344  13.979 -0.2289  0.2011 -0.2250
 9046TIP3    H148629   5.573   3.359  13.886 -0.9848 -0.3938 -0.1625
 9046TIP3    H248630   5.667   3.401  13.997  0.0858  0.1276 -1.2689
 9047TIP3   OH248631   4.643   6.002  14.273  0.4747  0.3556  0.1096
 9047TIP3    H148632   4.556   6.037  14.255 -0.6653 -1.4897  1.8388
 9047TIP3    H248633   4.678   6.060  14.341  0.7526  1.3124 -0.8422
 9048TIP3   OH248634   3.150   0.783  13.426  0.2923 -0.1058 -0.6990
 9048TIP3    H148635   3.179   0.862  13.472 -2.3604  0.4887  0.0483
 9048TIP3    H248636   3.196   0.785  13.343  2.0405  0.9816  0.2558
 9049TIP3   OH248637   3.243   5.096  16.470  0.0298 -0.6961 -0.0659
 9049TIP3    H148638   3.307   5.031  16.498  0.2229 -0.1060  0.8659
 9049TIP3    H248639   3.275   5.178  16.506 -1.4353 -0.4505  0.6810
 9050TIP3   OH248640   5.705   6.808   3.146 -0.2701 -0.1007 -0.3593
 9050TIP3    H148641   5.744   6.895   3.159  0.1210 -0.3204 -0.0675
 9050TIP3    H248642   5.778   6.747   3.157 -0.7475 -0.5337  0.4428
 9051TIP3   OH248643   4.998   0.987   4.924  0.5450 -0.6253 -0.2152
 9051TIP3    H148644   4.920   0.971   4.870  0.1169  2.4190 -0.5959
 9051TIP3    H248645   5.070   0.949   4.875 -0.2967 -0.7733 -1.3454
 9052TIP3   OH248646   2.277   0.871  12.184 -0.0423  0.1640 -0.3385
 9052TIP3    H148647   2.350   0.930  12.197 -0.3520  0.4109  0.3176
 9052TIP3    H248648   2.199   0.927  12.187 -0.4097 -0.4046  1.4270
 9053TIP3   OH248649   1.332   4.393  12.131  0.5278  0.1723 -0.2645
 9053TIP3    H148650   1.283   4.312  12.145 -0.5461  0.8046 -0.3494
 9053TIP3    H248651   1.283   4.460  12.179  0.2344  1.1838 -1.9116
 9054TIP3   OH248652   3.001   0.163  15.778  0.6371 -0.1177 -0.2460
 9054TIP3    H148653   2.922   0.145  15.727 -0.9981  0.1053  2.1034
 9054TIP3    H248654   3.036   0.244  15.741 -0.6586  0.1790 -0.8456
 9055TIP3   OH248655   1.578   3.140   1.484 -0.3278 -0.4256  0.2602
 9055TIP3    H148656   1.530   3.187   1.416  0.9390 -0.9041 -0.9978
 9055TIP3    H248657   1.517   3.134   1.558 -1.8436 -0.1836 -0.9550
 9056TIP3   OH248658   1.704   0.557   4.352  0.2921  0.0375  0.2426
 9056TIP3    H148659   1.798   0.569   4.345  0.2746  0.1354  0.1836
 9056TIP3    H248660   1.694   0.479   4.407  0.4005  0.3737  0.7402
 9057TIP3   OH248661   4.671   0.671  15.122  0.5555  0.0169  0.1368
 9057TIP3    H148662   4.737   0.669  15.191 -0.9940 -0.1496  1.6563
 9057TIP3    H248663   4.624   0.588  15.130 -0.7392  0.7131  0.0108
 9058TIP3   OH248664   0.636   4.353  11.155  0.0888  0.1074  0.1200
 9058TIP3    H148665   0.671   4.281  11.102  1.1675  1.1959 -0.6731
 9058TIP3    H248666   0.542   4.339  11.155  0.2095 -0.7709 -0.8206
 9059TIP3   OH248667   0.854   5.294   3.371 -0.7201  0.1506  0.5450
 9059TIP3    H148668   0.896   5.267   3.290  1.1582 -2.5054  2.3355
 9059TIP3    H248669   0.869   5.389   3.376  1.3223 -0.0777 -0.9617
 9060TIP3   OH248670   4.461   1.967   4.954  0.2428 -0.5360  0.5935
 9060TIP3    H148671   4.469   2.003   4.866  0.0833 -3.0484 -0.4888
 9060TIP3    H248672   4.410   2.032   5.002 -1.8911 -0.2975 -1.8909
 9061TIP3   OH248673   5.970   5.911  12.583  0.4180 -0.1892  0.0701
 9061TIP3    H148674   6.011   5.944  12.503  0.8715 -0.9333 -0.0118
 9061TIP3    H248675   6.035   5.851  12.620  0.2215  0.1591  1.0044
 9062TIP3   OH248676   6.143   1.760   1.695 -0.5204 -0.4825  0.2900
 9062TIP3    H148677   6.103   1.700   1.758 -1.3915  0.0219  0.2165
 9062TIP3    H248678   6.233   1.770   1.727 -0.3859 -1.7467  0.3510
 9063TIP3   OH248679   0.747   0.022   2.892  0.2027  0.2117 -1.5887
 9063TIP3    H148680   0.801   0.035   2.970 -0.8933  0.0501 -0.7971
 9063TIP3    H248681   0.738  -0.073   2.884 -1.0753  0.2631 -0.9335
 9064TIP3   OH248682   6.222   5.171  14.856 -0.4373  0.3186  0.4997
 9064TIP3    H148683   6.144   5.215  14.822  0.1342  0.8571 -0.1421
 9064TIP3    H248684   6.266   5.239  14.908 -1.0677 -0.3651  1.9433
 9065TIP3   OH248685   6.332   3.011  16.490  0.1606 -0.2664  0.1976
 9065TIP3    H148686   6.261   2.947  16.501 -1.2711  0.7078 -2.8611
 9065TIP3    H248687   6.322   3.072  16.563 -1.8354 -0.4640  0.1010
 9066TIP3   OH248688   2.121   1.570  16.022 -0.3756 -0.3438 -0.2750
 9066TIP3    H148689   2.138   1.573  15.927  3.3298  0.7224  0.3536
 9066TIP3    H248690   2.132   1.478  16.046 -1.8950 -0.7183 -0.9277
 9067TIP3   OH248691   1.130   6.073   0.850 -0.2010  0.4221 -0.1380
 9067TIP3    H148692   1.095   5.986   0.828  3.3165 -1.1472  0.2600
 9067TIP3    H248693   1.097   6.090   0.939 -1.4370 -0.1996 -0.4647
 9068TIP3   OH248694   2.017   5.785   2.747 -0.1428  0.2870 -0.1445
 9068TIP3    H148695   2.106   5.753   2.761 -0.8732 -1.8047  0.0044
 9068TIP3    H248696   2.028   5.871   2.708  1.9352  0.7254  1.3285
 9069TIP3   OH248697   1.830   5.387   3.287  0.1717  0.2001 -0.2797
 9069TIP3    H148698   1.779   5.466   3.270  0.4198  0.5474  0.6049
 9069TIP3    H248699   1.775   5.316   3.253 -1.0872  0.5401  1.0108
 9070TIP3   OH248700   1.734   0.066   0.457  0.3724  0.0240  0.4096
 9070TIP3    H148701   1.667   0.022   0.508  1.2327 -0.5901  1.0357
 9070TIP3    H248702   1.801   0.091   0.521  1.6362 -1.0775 -0.4424
 9071TIP3   OH248703   1.103   1.935  15.990  0.0628  0.2167 -0.3250
 9071TIP3    H148704   1.134   1.884  15.915  0.6430  1.0947 -0.7097
 9071TIP3    H248705   1.120   2.026  15.964 -0.1803  0.5506  0.6762
 9072TIP3   OH248706   3.656   6.406   4.148 -0.2796  0.9900 -0.2038
 9072TIP3    H148707   3.739   6.387   4.190 -0.9573  0.1634  0.7814
 9072TIP3    H248708   3.603   6.449   4.215 -1.6416 -1.0236  0.0723
 9073TIP3   OH248709   2.028   1.554   3.259  0.7773  0.1635  0.0237
 9073TIP3    H148710   1.996   1.637   3.222  0.8441  1.3935  2.6408
 9073TIP3    H248711   1.950   1.499   3.262  0.2329  0.9433  0.4548
 9074TIP3   OH248712   1.422   3.363  13.455  0.5981  0.4674 -0.0689
 9074TIP3    H148713   1.378   3.409  13.527 -0.2172 -1.2273  0.5291
 9074TIP3    H248714   1.393   3.410  13.376 -0.7068  0.6152  0.4828
 9075TIP3   OH248715   4.755   3.276  14.187 -0.1009 -0.4096 -0.4523
 9075TIP3    H148716   4.733   3.328  14.110 -0.0239  3.8296  2.2221
 9075TIP3    H248717   4.676   3.225  14.205 -0.7138 -0.1407 -2.2956
 9076TIP3   OH248718   2.327   1.007  16.274  0.0522  0.3978 -0.4493
 9076TIP3    H148719   2.267   0.934  16.261  1.0328 -0.7763  1.3702
 9076TIP3    H248720   2.275   1.074  16.318  0.2839 -0.9972  2.0335
 9077TIP3   OH248721   5.883   3.757  13.669  0.3356  0.0180 -0.9069
 9077TIP3    H148722   5.941   3.805  13.728  0.8900  1.3953 -2.5242
 9077TIP3    H248723   5.796   3.795  13.685  0.3372 -0.1948 -0.3864
 9078TIP3   OH248724   6.082   0.666   2.690  0.1021 -0.4012 -0.4447
 9078TIP3    H148725   6.167   0.638   2.724  0.0791 -0.7878 -0.7107
 9078TIP3    H248726   6.102   0.738   2.629  0.2750 -0.8163 -0.8750
 9079TIP3   OH248727   3.554   0.057  15.077 -0.3626  0.9239  0.0479
 9079TIP3    H148728   3.480   0.006  15.109 -0.2087  1.1511  0.7896
 9079TIP3    H248729   3.560   0.036  14.984 -1.0777  0.5622  0.0804
 9080TIP3   OH248730   2.747   5.768  13.580  0.5106  0.3619  0.0833
 9080TIP3    H148731   2.806   5.830  13.538  1.2750 -0.7554 -0.5055
 9080TIP3    H248732   2.759   5.686  13.532  0.4152 -0.5881  1.6375
 9081TIP3   OH248733   5.488   0.382  12.998 -0.0094 -0.1670  0.2813
 9081TIP3    H148734   5.546   0.407  12.926 -0.6195 -1.4118 -0.6649
 9081TIP3    H248735   5.461   0.465  13.037 -1.7197  0.6734 -2.5464
 9082TIP3   OH248736   4.851   0.707  12.143  0.0651  0.1859 -0.1395
 9082TIP3    H148737   4.803   0.682  12.064  1.1797  0.3406 -0.8682
 9082TIP3    H248738   4.823   0.643  12.208 -1.6582  0.6819 -0.3497
 9083TIP3   OH248739   3.647   0.953  15.210 -0.0137  0.0962  0.3650
 9083TIP3    H148740   3.644   0.977  15.303 -1.9730  0.0155  0.3356
 9083TIP3    H248741   3.579   1.007  15.169 -0.0812 -0.8491 -0.7895
 9084TIP3   OH248742   2.625   0.605   5.158 -0.6743  0.8183  0.8320
 9084TIP3    H148743   2.555   0.649   5.110  0.6506  2.2512  0.1685
 9084TIP3    H248744   2.694   0.670   5.165  0.6956 -0.6387  1.2725
 9085TIP3   OH248745   3.183   2.349  14.424 -0.3065 -0.2296  0.0647
 9085TIP3    H148746   3.231   2.360  14.506  1.2135 -2.3177 -0.4916
 9085TIP3    H248747   3.251   2.347  14.356 -1.4123 -0.2705 -1.0643
 9086TIP3   OH248748   6.550   2.209  14.565  0.0029  0.2819 -0.3415
 9086TIP3    H148749   6.573   2.213  14.658  0.4216 -0.1932 -0.4214
 9086TIP3    H248750   6.632   2.229  14.519 -0.2913  0.9066 -0.6061
 9087TIP3   OH248751   3.084   6.519   4.163  0.2200 -0.1777  0.1506
 9087TIP3    H148752   3.014   6.507   4.098  1.2977  0.3647 -1.1290
 9087TIP3    H248753   3.056   6.594   4.215 -0.3052 -0.1501 -0.1698
 9088TIP3   OH248754   2.328   0.808   3.194  0.0047  0.1711 -0.2737
 9088TIP3    H148755   2.256   0.771   3.244  1.2319 -0.9887  0.6653
 9088TIP3    H248756   2.298   0.806   3.103 -1.2773  0.0298  0.1460
 9089TIP3   OH248757   4.034   2.931   2.067  0.1176  0.3845 -0.0701
 9089TIP3    H148758   3.991   3.002   2.020  1.4836  1.6056  0.4923
 9089TIP3    H248759   4.011   2.852   2.018 -0.5920  1.3309 -1.2748
 9090TIP3   OH248760   4.428   6.385   3.804 -0.4134  0.6646  0.3469
 9090TIP3    H148761   4.337   6.358   3.793 -0.4415  0.8639  0.0924
 9090TIP3    H248762   4.441   6.390   3.899 -0.3080 -0.5879  0.4140
 9091TIP3   OH248763   4.132   3.008  13.242  0.1010 -0.5179  0.1209
 9091TIP3    H148764   4.153   2.957  13.319  0.2278  0.3460  0.6612
 9091TIP3    H248765   4.126   2.943  13.171 -0.2229 -1.3302  0.8849
 9092TIP3   OH248766   5.438   2.606  16.178  0.0317  0.2968  0.5196
 9092TIP3    H148767   5.358   2.657  16.191  0.5744  1.2116  0.3798
 9092TIP3    H248768   5.447   2.597  16.083 -0.7956 -1.2682  0.5827
 9093TIP3   OH248769   0.157   4.962  14.530 -0.2405  0.7419  0.0498
 9093TIP3    H148770   0.158   4.867  14.540  1.5375  0.6121 -1.0976
 9093TIP3    H248771   0.094   4.993  14.595  1.0613 -1.0308  2.2236
 9094TIP3   OH248772   4.592   4.020  12.732  0.8715 -0.1187 -0.0906
 9094TIP3    H148773   4.646   4.045  12.807 -0.2442  0.1546  0.6386
 9094TIP3    H248774   4.616   4.083  12.663  1.3575  0.0961  0.2702
 9095TIP3   OH248775   5.852   2.844  12.030 -0.8513  0.6776  0.6870
 9095TIP3    H148776   5.895   2.771  11.986  0.9523  1.2631  1.4552
 9095TIP3    H248777   5.763   2.844  11.995 -0.4169 -0.9345 -0.4538
 9096TIP3   OH248778   1.536   2.462  15.029 -0.0378 -0.0362 -0.4274
 9096TIP3    H148779   1.600   2.398  15.060 -0.6239 -0.5276 -0.2333
 9096TIP3    H248780   1.570   2.492  14.945  0.1037 -0.7823 -0.6322
 9097TIP3   OH248781   5.949   5.931   1.035  0.7458 -0.0273 -0.2887
 9097TIP3    H148782   6.041   5.926   1.010  0.6169 -1.2419 -0.5728
 9097TIP3    H248783   5.910   5.990   0.971  0.8291 -1.5087 -1.7450
 9098TIP3   OH248784   2.435   3.028   4.351  0.2712 -0.0072  0.1914
 9098TIP3    H148785   2.440   3.068   4.438  1.1490  0.9167 -0.2844
 9098TIP3    H248786   2.526   3.012   4.326 -0.0354 -1.7587  0.1068
 9099TIP3   OH248787   1.734   0.702  13.620  0.1433  0.7837 -0.4219
 9099TIP3    H148788   1.741   0.694  13.715  0.9450  0.6224 -0.4912
 9099TIP3    H248789   1.755   0.615  13.587 -0.3505  0.7818 -0.7439
 9100TIP3   OH248790   5.862   2.517  13.563 -0.0496  0.0979  0.2472
 9100TIP3    H148791   5.820   2.586  13.512 -0.4679  0.0975  0.5847
 9100TIP3    H248792   5.956   2.535  13.556 -0.0314 -0.6078 -1.5270
 9101TIP3   OH248793   0.868   3.559  15.832 -0.0297 -0.1626  0.5342
 9101TIP3    H148794   0.892   3.619  15.902 -0.0291  0.8349 -0.3036
 9101TIP3    H248795   0.916   3.479  15.851  0.0324  0.1334  1.6263
 9102TIP3   OH248796   3.442   4.481  11.224  0.1052 -0.2809 -0.3037
 9102TIP3    H148797   3.370   4.498  11.284 -0.3815 -1.4517 -0.5303
 9102TIP3    H248798   3.430   4.545  11.154 -0.6636 -0.3950 -0.2857
 9103TIP3   OH248799   6.585   6.087   3.483  0.8533  0.3909  0.3489
 9103TIP3    H148800   6.541   6.111   3.402  0.3244  0.2042  0.5783
 9103TIP3    H248801   6.594   6.169   3.531 -1.5338  0.0560  1.4171
 9104TIP3   OH248802   2.511   0.115   0.099  0.0873  0.0128  0.3175
 9104TIP3    H148803   2.595   0.147   0.132  1.3729 -0.5874 -2.1728
 9104TIP3    H248804   2.502   0.156   0.013 -1.5522 -0.9455  0.0007
 9105TIP3   OH248805   5.855   5.125   3.670  0.5366  0.1534 -0.3113
 9105TIP3    H148806   5.796   5.196   3.697  2.6720  0.8802  2.7522
 9105TIP3    H248807   5.914   5.166   3.607 -0.0654  0.3390 -0.7560
 9106TIP3   OH248808   1.445   3.148  14.029 -0.4066 -0.5578  0.0164
 9106TIP3    H148809   1.358   3.118  14.058  0.3461 -1.0498  1.8560
 9106TIP3    H248810   1.498   3.069  14.026  0.0801 -0.2037 -0.7218
 9107TIP3   OH248811   5.007   2.009  12.415 -0.4852  0.0376 -0.1897
 9107TIP3    H148812   4.926   2.058  12.425  0.8564  2.0119  1.3894
 9107TIP3    H248813   4.998   1.934  12.474 -0.7149  0.8560  0.8233
 9108TIP3   OH248814   0.013   4.672  12.960  0.7740 -0.6506 -0.4003
 9108TIP3    H148815   0.093   4.723  12.951 -0.0998  1.3243  2.2520
 9108TIP3    H248816   0.030   4.613  13.034 -0.1895 -0.2141  0.1796
 9109TIP3   OH248817   3.838   3.542   2.195 -0.6707  0.4017  0.0390
 9109TIP3    H148818   3.785   3.521   2.272 -2.6438  1.3251 -1.0265
 9109TIP3    H248819   3.908   3.598   2.229 -0.1414 -1.1456  1.5342
 9110TIP3   OH248820   0.244   1.577   2.806 -0.3543 -0.3779  0.9336
 9110TIP3    H148821   0.313   1.523   2.844  1.0589  0.4065 -0.4448
 9110TIP3    H248822   0.196   1.517   2.749  3.2368  0.4008 -3.1723
 9111TIP3   OH248823   1.934   3.874  16.881 -0.0667  0.1489 -0.4813
 9111TIP3    H148824   2.028   3.855  16.880  0.0462  0.2970  2.4332
 9111TIP3    H248825   1.902   3.834  16.962 -2.4477  0.4636 -1.2173
 9112TIP3   OH248826   6.138   4.274  11.127  0.4542 -0.5981 -0.2157
 9112TIP3    H148827   6.184   4.235  11.053  1.1343  2.1634 -1.3140
 9112TIP3    H248828   6.131   4.203  11.191  1.4843 -2.5262 -2.1741
 9113TIP3   OH248829   4.234   1.468  16.451  0.0233 -0.5183 -0.6662
 9113TIP3    H148830   4.309   1.526  16.464  1.1379 -2.2092  0.5286
 9113TIP3    H248831   4.255   1.416  16.374  0.8543 -2.1899  0.6743
 9114TIP3   OH248832   3.468   2.098  17.102 -0.0727  0.5397 -0.2479
 9114TIP3    H148833   3.392   2.126  17.051  1.0400  1.6483 -1.3341
 9114TIP3    H248834   3.543   2.125  17.050  1.0890  1.2743  1.7595
 9115TIP3   OH248835   1.707   3.507  13.941  0.2675 -0.1571  0.3424
 9115TIP3    H148836   1.705   3.562  14.018  2.1612 -1.0384  1.0601
 9115TIP3    H248837   1.759   3.556  13.877  0.4390 -0.3167  0.3566
 9116TIP3   OH248838   2.025   3.864  16.085  0.0045  0.3809 -0.3218
 9116TIP3    H148839   2.044   3.787  16.138 -0.7580  0.2555 -0.2294
 9116TIP3    H248840   2.110   3.891  16.050  0.0476 -1.5543 -1.8057
 9117TIP3   OH248841   5.641   6.451   3.236 -0.1391  0.1183 -0.1073
 9117TIP3    H148842   5.676   6.446   3.148  0.8384  2.0882  0.1510
 9117TIP3    H248843   5.573   6.384   3.239 -0.1464  0.0090 -2.3311
 9118TIP3   OH248844   4.053   1.533   6.365  0.2232  0.3249 -0.1859
 9118TIP3    H148845   4.043   1.456   6.309  1.7748 -1.0049  1.3137
 9118TIP3    H248846   4.076   1.497   6.451 -0.5088  2.4063  0.9012
 9119TIP3   OH248847   1.338   0.805  12.047 -0.2927 -0.5872 -0.6956
 9119TIP3    H148848   1.292   0.813  12.131 -0.4056 -0.5368 -0.7622
 9119TIP3    H248849   1.412   0.749  12.066  1.1258  1.4659  0.0306
 9120TIP3   OH248850   2.499   5.491   2.238  0.7740 -0.0905 -0.3059
 9120TIP3    H148851   2.420   5.511   2.188 -0.0236 -0.7929  0.6705
 9120TIP3    H248852   2.554   5.441   2.177  0.4744  0.3935 -0.9812
 9121TIP3   OH248853   2.934   4.247  15.881  0.5539 -0.2713 -0.2433
 9121TIP3    H148854   2.940   4.340  15.902  3.0426 -0.8419  1.7878
 9121TIP3    H248855   2.966   4.241  15.791  2.1111  0.6408  0.2211
 9122TIP3   OH248856   1.027   3.963   1.084 -0.2835 -0.3754 -0.3922
 9122TIP3    H148857   1.067   3.960   1.170  1.8848 -0.6395 -1.3886
 9122TIP3    H248858   1.006   3.871   1.064  0.6250 -0.5031 -0.7821
 9123TIP3   OH248859   5.874   2.895  15.656  0.1912  0.4132  0.5218
 9123TIP3    H148860   5.954   2.873  15.704  1.2839  1.8570 -0.5831
 9123TIP3    H248861   5.883   2.852  15.572 -0.5459 -0.0089  0.6484
 9124TIP3   OH248862   1.444   0.751   0.107 -0.0649  0.2129  0.4968
 9124TIP3    H148863   1.475   0.663   0.084  0.4332  0.4664  0.1745
 9124TIP3    H248864   1.452   0.800   0.025  1.5628  1.0893  1.1658
 9125TIP3   OH248865   1.128   3.970   1.346 -0.2057  0.0319 -0.1837
 9125TIP3    H148866   1.208   3.923   1.321  0.6186  1.2507  0.0887
 9125TIP3    H248867   1.158   4.059   1.366 -1.6974  0.6040 -0.4304
 9126TIP3   OH248868   2.635   5.360   2.712 -0.2386  0.2077  0.1116
 9126TIP3    H148869   2.591   5.390   2.632  1.6162 -1.6050 -1.6781
 9126TIP3    H248870   2.716   5.411   2.715  0.3207 -0.6568  0.0736
 9127TIP3   OH248871   0.173   1.574   6.497  0.4346  0.0982 -0.6721
 9127TIP3    H148872   0.156   1.652   6.550 -0.1310 -0.5089  0.0609
 9127TIP3    H248873   0.242   1.600   6.437  1.5537  0.6140  0.8080
 9128TIP3   OH248874   0.043   4.944   0.409 -0.3984 -0.0487  0.1961
 9128TIP3    H148875   0.005   4.973   0.326 -0.2019  0.2561  0.2108
 9128TIP3    H248876   0.113   4.884   0.384  0.9203  1.5128  0.0662
 9129TIP3   OH248877   4.721   4.943   3.467  0.1791 -0.5315  0.3439
 9129TIP3    H148878   4.745   4.893   3.544  1.6861 -0.2529  0.0647
 9129TIP3    H248879   4.799   4.994   3.446 -0.3794 -0.2373 -1.0749
 9130TIP3   OH248880   1.933   2.619   1.566  0.3694 -0.3421 -0.6942
 9130TIP3    H148881   1.910   2.537   1.522 -1.1380 -0.5237  0.3830
 9130TIP3    H248882   1.993   2.592   1.636 -0.1362 -0.5334 -0.3324
 9131TIP3   OH248883   2.964   2.228  13.445  0.0323  0.2000 -0.0489
 9131TIP3    H148884   3.046   2.267  13.475  1.0912 -0.1519 -2.3674
 9131TIP3    H248885   2.975   2.134  13.458  0.0378  0.1444 -0.4482
 9132TIP3   OH248886   0.948   6.629  11.867  0.1457  0.7589 -0.0060
 9132TIP3    H148887   0.937   6.575  11.945  1.1306  0.6721  0.0720
 9132TIP3    H248888   0.858   6.646  11.838 -0.2182  0.4329  0.8915
 9133TIP3   OH248889   5.010   2.124   1.322  0.2339 -0.1486  0.7513
 9133TIP3    H148890   5.018   2.145   1.229 -1.0859  0.1212  0.6851
 9133TIP3    H248891   5.021   2.029   1.326 -2.0559 -0.4779  0.0048
 9134TIP3   OH248892   0.904   0.481  12.345 -0.0647  0.0228  0.1752
 9134TIP3    H148893   0.903   0.423  12.422  0.1200 -2.4710 -1.6236
 9134TIP3    H248894   0.890   0.422  12.271 -1.4982  2.5305 -1.6344
 9135TIP3   OH248895   0.251   6.213   1.395  0.4079  0.5917  0.4486
 9135TIP3    H148896   0.171   6.262   1.379 -1.0935 -0.8438  3.3554
 9135TIP3    H248897   0.278   6.182   1.308 -1.7627  1.6840 -0.6334
 9136TIP3   OH248898   2.670   3.533  13.635  0.7687 -0.0880  0.3319
 9136TIP3    H148899   2.724   3.588  13.578  0.6125 -0.9847 -0.6966
 9136TIP3    H248900   2.686   3.566  13.724  1.7055  0.7312 -0.1444
 9137TIP3   OH248901   0.495   4.332  17.188 -0.1999  0.8136  0.2381
 9137TIP3    H148902   0.459   4.347  17.101 -1.0616 -0.3775  0.3711
 9137TIP3    H248903   0.418   4.314  17.243  0.4277  0.3889  0.9899
 9138TIP3   OH248904   6.411   2.117   3.795  0.1734  0.8133 -0.0527
 9138TIP3    H148905   6.433   2.030   3.830 -1.2838  0.5892  0.3377
 9138TIP3    H248906   6.433   2.112   3.702 -0.0853 -0.0376 -0.0735
 9139TIP3   OH248907   6.293   2.171  13.800 -0.0116 -0.2144 -0.2251
 9139TIP3    H148908   6.386   2.191  13.814 -0.1569 -0.5493  1.3441
 9139TIP3    H248909   6.247   2.252  13.822 -0.1191 -0.1979 -0.5141
 9140TIP3   OH248910   1.536   5.213  13.302 -0.2167 -0.2346  0.1907
 9140TIP3    H148911   1.480   5.235  13.377 -3.0423 -1.0171 -1.6088
 9140TIP3    H248912   1.479   5.225  13.226  2.2045 -0.7444 -1.7487
 9141TIP3   OH248913   2.028   2.644  12.778 -1.1139  0.0677 -0.3052
 9141TIP3    H148914   2.036   2.695  12.698 -2.4555  0.2238 -0.3479
 9141TIP3    H248915   2.063   2.558  12.755 -0.7887  0.3400 -0.8335
 9142TIP3   OH248916   2.291   0.993   2.017 -0.4049 -0.7893  0.3969
 9142TIP3    H148917   2.237   1.012   2.093 -1.6931 -1.5968 -0.3029
 9142TIP3    H248918   2.330   0.907   2.036  0.8578 -0.0866  1.0200
 9143TIP3   OH248919   1.052   5.732   0.525 -0.3214 -0.4150  0.4576
 9143TIP3    H148920   0.981   5.766   0.580 -0.4341 -2.1020  1.3889
 9143TIP3    H248921   1.125   5.719   0.585  0.2737 -0.2140 -0.2086
 9144TIP3   OH248922   5.618   6.077   6.735 -0.1012 -0.0753 -0.2448
 9144TIP3    H148923   5.642   6.164   6.769 -0.9519  0.3915 -0.8245
 9144TIP3    H248924   5.677   6.017   6.780 -0.2133  0.6901  0.9456
 9145TIP3   OH248925   5.816   4.313  13.318 -0.2887 -0.4731 -0.1600
 9145TIP3    H148926   5.863   4.394  13.334  0.9531 -1.0463 -0.7734
 9145TIP3    H248927   5.746   4.337  13.258  0.4098  0.0512 -0.7765
 9146TIP3   OH248928   3.883   4.852  12.724  0.2599 -0.0301  0.0416
 9146TIP3    H148929   3.869   4.821  12.634  1.9139 -0.9466  0.0888
 9146TIP3    H248930   3.864   4.775  12.778  0.2136  0.2539  0.4312
 9147TIP3   OH248931   2.663   2.386  15.204  0.2243  0.6679 -0.1408
 9147TIP3    H148932   2.634   2.426  15.122  0.6718 -0.2966 -0.7782
 9147TIP3    H248933   2.738   2.331  15.178 -0.1785 -0.3146  0.7704
 9148TIP3   OH248934   6.074   3.440  16.046 -0.0223 -0.1636  0.1960
 9148TIP3    H148935   6.109   3.478  15.965  0.9625  0.4863  0.9000
 9148TIP3    H248936   6.100   3.348  16.042  3.0553  0.5852  1.3258
 9149TIP3   OH248937   3.820   6.246  14.036 -0.3713 -0.1873 -0.5722
 9149TIP3    H148938   3.901   6.225  13.990  0.2280  0.7921  0.0012
 9149TIP3    H248939   3.803   6.338  14.015  0.2112  0.4374  1.5505
 9150TIP3   OH248940   1.885   1.277  11.128  0.4565  0.2155  0.5929
 9150TIP3    H148941   1.846   1.362  11.109 -0.6148 -0.4209 -0.0651
 9150TIP3    H248942   1.816   1.213  11.110  1.6798 -0.8987 -0.2839
 9151TIP3   OH248943   5.397   1.942   3.281 -0.2712  0.0120  0.0546
 9151TIP3    H148944   5.438   1.988   3.208  0.0648 -0.0431  0.2062
 9151TIP3    H248945   5.386   1.852   3.250 -1.0591  0.2283 -0.2933
 9152TIP3   OH248946   2.438   0.426  16.425  0.0641  0.3007 -0.3338
 9152TIP3    H148947   2.519   0.402  16.469  0.4011  0.2994 -0.9503
 9152TIP3    H248948   2.433   0.368  16.349  0.2189  1.2575 -1.0941
 9153TIP3   OH248949   1.929   1.593   4.827 -0.8131  0.4394 -0.3226
 9153TIP3    H148950   1.927   1.574   4.921 -1.2235  1.4518 -0.1236
 9153TIP3    H248951   1.971   1.516   4.788  1.0127  0.7891  0.8912
 9154TIP3   OH248952   6.303   5.895   0.466 -0.5817  0.0806 -0.6598
 9154TIP3    H148953   6.251   5.974   0.482  1.1176  1.0065  0.5342
 9154TIP3    H248954   6.334   5.904   0.376 -1.3205  0.2164 -0.9044
 9155TIP3   OH248955   6.692   1.718  11.305 -0.0777  0.1753 -0.2326
 9155TIP3    H148956   6.685   1.682  11.394  0.5558  0.1723 -0.1756
 9155TIP3    H248957   6.765   1.669  11.266  2.2234  2.8254  0.5494
 9156TIP3   OH248958   4.583   4.748   5.377  0.0177 -0.5721  0.1058
 9156TIP3    H148959   4.516   4.791   5.324 -0.3151 -0.1904  0.8264
 9156TIP3    H248960   4.665   4.785   5.345 -0.1732 -0.3794 -0.1739
 9157TIP3   OH248961   4.375   0.850   4.232  0.5007  0.4234 -0.0562
 9157TIP3    H148962   4.420   0.920   4.280  2.1633 -0.2317 -0.6253
 9157TIP3    H248963   4.440   0.820   4.168 -0.5212 -1.0204 -0.4243
 9158TIP3   OH248964   2.663   3.350   2.827  0.9450  0.0684 -0.5971
 9158TIP3    H148965   2.621   3.344   2.913  0.8035  0.6400 -0.6287
 9158TIP3    H248966   2.591   3.364   2.765  1.0513 -0.2981 -0.8069
 9159TIP3   OH248967   2.797   3.065  13.521  0.2239 -1.0577  0.1803
 9159TIP3    H148968   2.749   3.020  13.591 -0.0156 -0.2986  0.5116
 9159TIP3    H248969   2.884   3.025  13.522  0.7671  0.0931  2.0308
 9160TIP3   OH248970   0.763   1.933   3.132 -0.4076 -0.5907 -0.5141
 9160TIP3    H148971   0.845   1.980   3.122  0.1490 -1.7443 -1.4685
 9160TIP3    H248972   0.695   1.999   3.117  0.3269  0.4556  0.6895
 9161TIP3   OH248973   3.353   0.657   0.874 -0.1762 -0.3543  0.1995
 9161TIP3    H148974   3.311   0.674   0.789  1.5834  0.8992 -0.4505
 9161TIP3    H248975   3.377   0.565   0.871  2.1291  0.2695 -1.7182
 9162TIP3   OH248976   0.774   2.207   3.578  0.1066  0.4687  0.0226
 9162TIP3    H148977   0.683   2.184   3.557 -0.4126  2.1864  0.2437
 9162TIP3    H248978   0.790   2.167   3.663 -1.4621  2.5594  1.3821
 9163TIP3   OH248979   6.013   0.412   1.069 -0.1539  0.5553  0.6265
 9163TIP3    H148980   5.952   0.338   1.070 -0.6552  0.9591  0.1477
 9163TIP3    H248981   5.976   0.475   1.130  1.2660 -0.3608  2.4982
 9164TIP3   OH248982   3.703   5.405   5.447 -0.7340 -0.2755 -0.6072
 9164TIP3    H148983   3.789   5.442   5.431 -0.2184  0.1832  2.7888
 9164TIP3    H248984   3.720   5.317   5.481 -1.6006 -0.3837 -0.4203
 9165TIP3   OH248985   2.899   3.275  16.711 -0.2175 -0.0916  0.2835
 9165TIP3    H148986   2.902   3.258  16.616  0.9903 -0.3412  0.3555
 9165TIP3    H248987   2.825   3.335  16.722 -0.5730 -0.3105 -0.7771
 9166TIP3   OH248988   6.691   0.439  14.993 -0.0385 -0.0830 -0.0669
 9166TIP3    H148989   6.751   0.511  14.975 -0.6149  0.1781 -0.9823
 9166TIP3    H248990   6.725   0.398  15.073  1.4763 -0.0826 -0.6973
 9167TIP3   OH248991   5.003   1.672  14.129 -0.2822  0.0418  0.6062
 9167TIP3    H148992   4.948   1.727  14.072 -0.4175  0.1924  0.8816
 9167TIP3    H248993   5.054   1.735  14.180  0.3364 -0.0998  0.1668
 9168TIP3   OH248994   0.853   0.364  13.631 -0.2255  0.2139 -0.2057
 9168TIP3    H148995   0.775   0.382  13.684  0.0318 -0.8814  0.5578
 9168TIP3    H248996   0.919   0.422  13.668 -0.0936 -0.4223  0.5792
 9169TIP3   OH248997   3.243   1.919   2.247  0.5429 -0.1807  0.3046
 9169TIP3    H148998   3.226   1.825   2.238  1.2522 -0.1769 -1.3004
 9169TIP3    H248999   3.160   1.960   2.222  1.0366 -0.3261 -1.6755
 9170TIP3   OH249000   1.292   5.747  15.634 -0.2469 -0.7063  0.1262
 9170TIP3    H149001   1.234   5.694  15.579  0.2731 -1.1376 -0.0118
 9170TIP3    H249002   1.380   5.724  15.604 -0.0779  1.9795 -1.5268
 9171TIP3   OH249003   4.041   2.096  14.175 -0.1173 -0.7606  0.0225
 9171TIP3    H149004   4.051   2.035  14.102  0.1269  0.0227 -0.6130
 9171TIP3    H249005   3.948   2.091  14.198 -0.3187 -0.5924 -0.7292
 9172TIP3   OH249006   5.624   5.423  13.074 -0.2960  0.5591  0.1291
 9172TIP3    H149007   5.530   5.405  13.075 -0.2955  0.4723 -1.0260
 9172TIP3    H249008   5.630   5.518  13.061 -0.2128  0.2449 -2.3617
 9173TIP3   OH249009   1.592   6.683  11.076  0.2471 -0.3963  0.4154
 9173TIP3    H149010   1.638   6.677  10.992  1.0089  1.2024  0.7008
 9173TIP3    H249011   1.662   6.678  11.142 -0.3581 -1.8335  0.9825
 9174TIP3   OH249012   3.516   6.604   1.324 -0.0772 -0.0979 -0.2644
 9174TIP3    H149013   3.528   6.652   1.242  0.1924 -0.6909 -0.5729
 9174TIP3    H249014   3.513   6.672   1.392  0.6368  0.3317 -0.6652
 9175TIP3   OH249015   1.493   5.264   5.867  0.0120 -0.2440  0.3009
 9175TIP3    H149016   1.473   5.285   5.776  0.3952 -0.1621  0.2336
 9175TIP3    H249017   1.408   5.256   5.909 -0.1544  0.2918  0.0640
 9176TIP3   OH249018   2.175   0.376   1.700  0.7099  0.7088 -0.0812
 9176TIP3    H149019   2.267   0.378   1.725  0.6760  1.4386  0.0126
 9176TIP3    H249020   2.143   0.291   1.730  1.1230  0.8327  0.7314
 9177TIP3   OH249021   2.133   5.618   0.666  0.1581 -0.2442  0.3672
 9177TIP3    H149022   2.195   5.687   0.641  1.4564 -0.8049  1.9891
 9177TIP3    H249023   2.064   5.623   0.599  1.0918  1.4932 -0.5056
 9178TIP3   OH249024   2.441   4.641   1.111 -0.0408  0.0159 -0.4654
 9178TIP3    H149025   2.433   4.654   1.206 -1.1954  1.1399 -0.7075
 9178TIP3    H249026   2.531   4.610   1.099  0.3941  0.6923  0.9128
 9179TIP3   OH249027   2.017   1.052   4.780 -0.4078 -0.6119 -0.4873
 9179TIP3    H149028   2.087   1.093   4.728  1.2896 -0.3026  1.9441
 9179TIP3    H249029   1.938   1.066   4.728  1.3319 -1.0442 -3.3555
 9180TIP3   OH249030   5.638   5.455  12.360 -0.6526 -0.3004 -0.2075
 9180TIP3    H149031   5.691   5.394  12.411  2.0058  0.6166 -1.8035
 9180TIP3    H249032   5.659   5.434  12.269 -1.0122  1.8492 -0.7956
 9181TIP3   OH249033   3.010   2.754   1.089 -0.2074  0.1744 -0.2533
 9181TIP3    H149034   2.935   2.798   1.130 -0.3074  0.7222 -0.9929
 9181TIP3    H249035   3.013   2.668   1.130 -1.0340  0.2753  0.0388
 9182TIP3   OH249036   0.909   5.526   2.293  0.4268  0.5189  0.9321
 9182TIP3    H149037   0.844   5.478   2.343 -0.2150  1.1762  0.7278
 9182TIP3    H249038   0.922   5.608   2.341  0.0531  1.0049  0.2083
 9183TIP3   OH249039   1.966   0.886  16.205 -0.2664 -0.0113 -0.1854
 9183TIP3    H149040   2.018   0.904  16.127 -1.0195  1.7067 -0.3030
 9183TIP3    H249041   1.977   0.791  16.219  0.4799 -0.2047 -1.9217
 9184TIP3   OH249042   4.209   0.512  17.185 -0.0757  0.3432  0.0978
 9184TIP3    H149043   4.280   0.575  17.196  0.2451 -0.0860  0.5336
 9184TIP3    H249044   4.204   0.466  17.269 -1.5053  1.0119  0.4022
 9185TIP3   OH249045   6.561   1.185   5.014 -0.1338 -0.3822  0.2657
 9185TIP3    H149046   6.620   1.252   4.979 -0.7691  0.3620  0.5974
 9185TIP3    H249047   6.509   1.231   5.080 -1.0655 -1.0367  0.0059
 9186TIP3   OH249048   3.640   0.307   2.543 -0.3839  0.7027  0.1177
 9186TIP3    H149049   3.676   0.395   2.531 -1.3721  1.1049  0.0450
 9186TIP3    H249050   3.602   0.285   2.458  1.1142 -0.3891 -0.2943
 9187TIP3   OH249051   6.813   3.723   3.365  0.0668  0.0483  0.5576
 9187TIP3    H149052   6.905   3.751   3.370 -0.7660  2.4141  3.5812
 9187TIP3    H249053   6.805   3.656   3.433 -0.2846 -0.8132 -0.3074
 9188TIP3   OH249054   0.707   2.674   3.442  0.0566 -0.6963  0.1951
 9188TIP3    H149055   0.777   2.693   3.379  1.1079 -1.0568  1.2351
 9188TIP3    H249056   0.663   2.758   3.454  0.4008 -0.4282 -0.3680
 9189TIP3   OH249057   3.012   0.286   0.488 -0.3992  0.5665  0.1794
 9189TIP3    H149058   2.977   0.281   0.399 -0.9917 -0.2521  0.4465
 9189TIP3    H249059   2.985   0.373   0.520 -0.7718  0.5903 -0.2006
 9190TIP3   OH249060   4.358   3.644  12.243 -0.2115  0.3105 -0.4897
 9190TIP3    H149061   4.365   3.739  12.250 -0.4006  0.2893  0.0627
 9190TIP3    H249062   4.298   3.629  12.171  0.4421  0.5989 -1.0965
 9191TIP3   OH249063   1.283   6.773   4.052 -0.6662  0.4068  0.1792
 9191TIP3    H149064   1.235   6.832   4.110 -0.9854  0.4830 -0.1609
 9191TIP3    H249065   1.373   6.777   4.082 -1.2655 -1.6457  2.4648
 9192TIP3   OH249066   0.264   0.022  12.807 -0.1025 -0.1116 -0.6719
 9192TIP3    H149067   0.186  -0.034  12.807 -1.5066  1.7652  1.0257
 9192TIP3    H249068   0.271   0.053  12.717 -1.4079 -0.1582 -0.7977
 9193TIP3   OH249069   6.171   2.191  13.152 -0.0135  0.3516 -0.3823
 9193TIP3    H149070   6.179   2.211  13.245  0.2858  2.2985 -0.7947
 9193TIP3    H249071   6.079   2.211  13.131 -0.7113 -2.2747 -0.0525
 9194TIP3   OH249072   6.443   1.161   5.601  0.0155 -0.2320 -0.3436
 9194TIP3    H149073   6.485   1.101   5.663 -0.1950  0.9916  1.0111
 9194TIP3    H249074   6.516   1.210   5.562  0.1681 -1.1822 -1.2665
 9195TIP3   OH249075   4.399   4.913  15.572 -0.3421 -0.1328  0.0531
 9195TIP3    H149076   4.386   4.824  15.605  0.3487 -0.1192  0.3804
 9195TIP3    H249077   4.322   4.961  15.601 -0.1446 -0.3334  0.9205
 9196TIP3   OH249078   3.004   4.489  17.131 -0.8979  0.2795  0.1875
 9196TIP3    H149079   2.947   4.562  17.151 -2.5763 -0.9616  0.0685
 9196TIP3    H249080   3.015   4.442  17.214  2.4820  2.1881  0.9189
 9197TIP3   OH249081   6.389   5.103  12.360 -0.1880  0.0914  0.0290
 9197TIP3    H149082   6.456   5.039  12.384 -1.6841 -1.2291  0.7967
 9197TIP3    H249083   6.384   5.097  12.264  1.1445  0.5882 -0.0895
 9198TIP3   OH249084   4.940   5.769   4.326 -0.0863 -0.4162 -0.1740
 9198TIP3    H149085   4.920   5.737   4.414  3.2998 -0.5930  0.5967
 9198TIP3    H249086   4.901   5.856   4.323 -0.6307 -0.5880  1.3069
 9199TIP3   OH249087   5.335   5.849  15.932 -0.0588 -0.0275  0.4237
 9199TIP3    H149088   5.256   5.901  15.948 -0.7643 -0.9537  0.0097
 9199TIP3    H249089   5.405   5.898  15.976 -0.7973  0.9798  0.5147
 9200TIP3   OH249090   1.412   2.673  14.091 -0.4676 -0.5231  0.1759
 9200TIP3    H149091   1.327   2.635  14.071 -0.6333 -0.6614  1.0934
 9200TIP3    H249092   1.447   2.701  14.007 -1.1194 -1.0936 -0.2881
 9201TIP3   OH249093   3.562   0.307  16.111  0.1265 -0.0646 -0.4398
 9201TIP3    H149094   3.582   0.249  16.038  1.2723 -1.5155  0.9906
 9201TIP3    H249095   3.476   0.278  16.141 -0.1654  0.2656 -0.9537
 9202TIP3   OH249096   4.311   2.378  11.395 -0.4685  0.5137 -0.6963
 9202TIP3    H149097   4.238   2.327  11.360  0.6224 -1.1431 -0.5769
 9202TIP3    H249098   4.370   2.390  11.321  0.9019 -1.3243  0.0588
 9203TIP3   OH249099   0.719   1.387  16.778  0.4751  0.2408  0.3942
 9203TIP3    H149100   0.795   1.434  16.743  0.7938 -1.7742 -1.7029
 9203TIP3    H249101   0.751   1.347  16.859  0.8478  1.6105  0.9519
 9204TIP3   OH249102   4.152   0.063   4.939 -0.3147 -0.3608  0.4366
 9204TIP3    H149103   4.204   0.143   4.943 -1.3678  0.2627  2.7001
 9204TIP3    H249104   4.197   0.001   4.997 -1.4292 -0.1853  1.5258
 9205TIP3   OH249105   4.470   1.501  15.368  0.0551 -0.0611  0.2511
 9205TIP3    H149106   4.516   1.565  15.421 -1.7894  1.4024  0.1224
 9205TIP3    H249107   4.444   1.432  15.429 -0.3564  0.6660  0.8965
 9206TIP3   OH249108   0.541   1.402  11.229  0.2678 -0.0235  0.1497
 9206TIP3    H149109   0.471   1.356  11.183 -0.7308  0.8898  0.7245
 9206TIP3    H249110   0.619   1.348  11.216  0.0274  0.2793 -2.6757
 9207TIP3   OH249111   1.595   0.695  14.742 -0.0151 -0.3267 -0.0701
 9207TIP3    H149112   1.626   0.648  14.820  0.6493 -1.4393 -1.0011
 9207TIP3    H249113   1.673   0.739  14.708 -0.5037  0.9337  0.4329
 9208TIP3   OH249114   2.278   2.950   6.085 -0.1420 -0.7434  0.0343
 9208TIP3    H149115   2.338   3.023   6.074 -2.7676  1.2907 -1.1561
 9208TIP3    H249116   2.333   2.872   6.074  2.0129  1.0420 -2.2948
 9209TIP3   OH249117   2.595   6.062   3.317 -0.0831  0.0843  0.4802
 9209TIP3    H149118   2.602   5.988   3.377 -2.0194 -0.2610  0.3113
 9209TIP3    H249119   2.602   6.023   3.230  1.1184  0.3852  0.4362
 9210TIP3   OH249120   1.932   6.632   3.612  0.0875 -0.0393  0.1661
 9210TIP3    H149121   1.928   6.629   3.707 -1.2483 -1.5443  0.0824
 9210TIP3    H249122   1.946   6.541   3.586 -1.0656  0.1426 -1.1268
 9211TIP3   OH249123   5.007   4.859  11.711  0.3000  0.0638  0.5371
 9211TIP3    H149124   5.100   4.836  11.717  0.5587  1.1632  0.8558
 9211TIP3    H249125   4.968   4.824  11.791 -0.1171 -2.8500 -0.8787
 9212TIP3   OH249126   0.419   3.586  15.374  0.3211  0.2324 -0.1788
 9212TIP3    H149127   0.375   3.530  15.310 -1.5332  1.9662 -0.4795
 9212TIP3    H249128   0.509   3.553  15.377 -0.9200 -3.2989  0.3537
 9213TIP3   OH249129   6.539   2.535  14.697 -0.5774  0.2209 -0.1173
 9213TIP3    H149130   6.493   2.600  14.645  0.0158  1.9145  1.4102
 9213TIP3    H249131   6.629   2.536  14.664 -0.7954 -0.5143 -0.7336
 9214TIP3   OH249132   1.032   2.473   1.995  0.1503  0.3386  0.6279
 9214TIP3    H149133   1.114   2.472   1.946  0.1438 -1.8419  0.6420
 9214TIP3    H249134   0.991   2.556   1.970  0.4521 -0.3950 -2.5492
 9215TIP3   OH249135   6.681   0.175  16.605 -0.3322  0.3682  0.4547
 9215TIP3    H149136   6.586   0.181  16.615 -0.4866 -0.6587 -0.3537
 9215TIP3    H249137   6.694   0.101  16.546  0.9394  1.0927 -0.1756
 9216TIP3   OH249138   5.552   6.529   0.004 -0.0235  0.4133 -0.2548
 9216TIP3    H149139   5.557   6.497   0.094 -0.3291 -1.1360 -0.7774
 9216TIP3    H249140   5.574   6.453  -0.050  0.9870  1.5462 -1.4620
 9217TIP3   OH249141   5.602   4.823   2.376  0.1031 -0.4179  0.2668
 9217TIP3    H149142   5.572   4.758   2.439 -0.9356  1.1806  1.4712
 9217TIP3    H249143   5.695   4.835   2.395 -0.0606 -0.4119  1.0492
 9218TIP3   OH249144   2.278   4.987   5.261  0.2259 -0.3015 -0.4190
 9218TIP3    H149145   2.267   5.080   5.284  0.8382 -0.2847 -0.1935
 9218TIP3    H249146   2.309   4.988   5.171  3.1968 -0.1612  0.5450
 9219TIP3   OH249147   5.657   2.257   0.424 -0.2381 -0.5276  0.0410
 9219TIP3    H149148   5.656   2.348   0.393 -0.2309 -0.5032  0.1124
 9219TIP3    H249149   5.748   2.242   0.448 -0.4969 -0.1389  1.2650
 9220TIP3   OH249150   0.074   3.449   3.055 -0.4850  1.0508 -0.2223
 9220TIP3    H149151   0.005   3.401   3.009  0.6225  1.1108 -1.9778
 9220TIP3    H249152   0.086   3.401   3.137 -0.8745 -0.4414 -1.0243
 9221TIP3   OH249153   6.818   1.621  16.119 -0.1358  0.8107 -0.4234
 9221TIP3    H149154   6.880   1.566  16.073 -0.0080  1.4321 -1.0107
 9221TIP3    H249155   6.824   1.706  16.075 -0.6905  1.1493  0.1387
 9222TIP3   OH249156   5.747   2.257  12.709  0.7130  0.4432 -0.2180
 9222TIP3    H149157   5.699   2.323  12.759 -1.2271 -1.7899  1.0169
 9222TIP3    H249158   5.801   2.306  12.648 -0.1702  3.1549  1.1297
 9223TIP3   OH249159   4.231   5.698  13.212 -0.3290  0.5065 -0.1919
 9223TIP3    H149160   4.231   5.741  13.298  0.2477  1.2073 -0.5294
 9223TIP3    H249161   4.234   5.771  13.149  1.6569 -0.0284 -0.7637
 9224TIP3   OH249162   5.280   1.811   5.007  0.5678  0.2702 -0.0743
 9224TIP3    H149163   5.198   1.855   4.987 -0.2861 -1.4844 -0.4343
 9224TIP3    H249164   5.272   1.785   5.099  1.1796  1.0439  0.2134
 9225TIP3   OH249165   5.066   3.618  16.285  0.5928 -0.3839 -0.5405
 9225TIP3    H149166   5.096   3.690  16.230  0.5976 -0.5432 -0.7476
 9225TIP3    H249167   5.028   3.555  16.223 -1.6216  0.5193 -0.1397
 9226TIP3   OH249168   4.899   4.551  16.721 -0.6409 -0.1759  0.0810
 9226TIP3    H149169   4.930   4.639  16.742 -0.9399 -0.6658  2.6543
 9226TIP3    H249170   4.958   4.492  16.767 -1.4491 -1.2824 -0.2661
 9227TIP3   OH249171   6.051   4.075  16.984  0.1259  0.7023  0.0130
 9227TIP3    H149172   6.143   4.096  16.998 -0.0223  0.1665  1.9637
 9227TIP3    H249173   6.004   4.123  17.053 -1.1362  1.5227 -1.3770
 9228TIP3   OH249174   0.743   1.426  11.811 -0.2641  0.0940  0.5136
 9228TIP3    H149175   0.744   1.333  11.791  0.7036  0.0581  0.7063
 9228TIP3    H249176   0.680   1.435  11.883  0.0660 -0.4973  0.8787
 9229TIP3   OH249177   3.886   5.149   3.020  0.2442  0.4531  0.0898
 9229TIP3    H149178   3.850   5.209   2.955  1.1748 -1.6393 -2.4378
 9229TIP3    H249179   3.841   5.066   3.003  1.1341 -0.3584  1.5750
 9230TIP3   OH249180   3.328   6.509  14.348 -0.6358 -0.1366 -0.8403
 9230TIP3    H149181   3.240   6.504  14.310 -0.6810 -0.0656 -0.7466
 9230TIP3    H249182   3.318   6.569  14.422 -0.2246  0.9331 -1.6346
 9231TIP3   OH249183   2.655   1.691  15.147 -0.3666  0.7803  0.1197
 9231TIP3    H149184   2.590   1.759  15.137 -1.4644 -0.2388  0.2311
 9231TIP3    H249185   2.609   1.619  15.189  0.9233  0.1867  0.5472
 9232TIP3   OH249186   3.141   1.786   1.248  0.2594  0.0894  0.4406
 9232TIP3    H149187   3.205   1.745   1.190 -0.4217 -1.3666  0.7099
 9232TIP3    H249188   3.074   1.822   1.189  0.8184  0.7852  0.2135
 9233TIP3   OH249189   0.620   1.279   0.614 -0.2649  0.0590  0.2726
 9233TIP3    H149190   0.706   1.240   0.597 -0.0906 -0.0205  1.2855
 9233TIP3    H249191   0.565   1.205   0.640 -0.3156  0.2892  0.8167
 9234TIP3   OH249192   3.446   6.189   1.271  0.7367  0.0086  0.2176
 9234TIP3    H149193   3.355   6.164   1.256 -0.4937  3.0483  2.2183
 9234TIP3    H249194   3.462   6.260   1.209  1.7392 -0.4654 -0.0747
 9235TIP3   OH249195   5.995   6.571   5.548 -0.4095  0.2576 -0.1880
 9235TIP3    H149196   5.928   6.507   5.569  0.2637  0.2629  2.0598
 9235TIP3    H249197   5.960   6.654   5.580  1.1475  0.0725  2.1199
 9236TIP3   OH249198   5.060   5.835  13.243  0.2515  0.0107 -0.5071
 9236TIP3    H149199   5.086   5.919  13.205 -1.0172  0.0400 -1.3287
 9236TIP3    H249200   4.990   5.803  13.186 -1.5917 -0.0135  1.7180
 9237TIP3   OH249201   5.921   0.223   4.433  0.2770 -0.2279 -0.1117
 9237TIP3    H149202   5.852   0.191   4.492  1.1525  1.7303  2.0290
 9237TIP3    H249203   5.874   0.264   4.361 -0.8037 -2.2077 -0.5693
 9238TIP3   OH249204   0.814   0.931   3.095  0.2756 -0.3461  0.7214
 9238TIP3    H149205   0.783   0.965   3.179 -2.3617  4.9177 -2.1514
 9238TIP3    H249206   0.751   0.863   3.072 -1.8143  1.4418  0.9288
 9239TIP3   OH249207   5.173   0.203  12.077  0.2034 -0.0898 -0.0868
 9239TIP3    H149208   5.134   0.219  11.991  0.9597  1.8390 -0.1113
 9239TIP3    H249209   5.263   0.235  12.068  0.1960  0.3953  1.5014
 9240TIP3   OH249210   0.930   6.205  14.293 -0.5268  0.3608  0.0340
 9240TIP3    H149211   0.981   6.272  14.340  1.5363 -0.0663 -1.5304
 9240TIP3    H249212   0.852   6.252  14.263 -0.7826  1.1931  1.9234
 9241TIP3   OH249213   0.706   1.598   2.707 -0.2820  0.3138 -0.3180
 9241TIP3    H149214   0.678   1.508   2.687 -1.1033  0.1314  1.5450
 9241TIP3    H249215   0.625   1.649   2.707 -0.3342  0.3102  2.3655
 9242TIP3   OH249216   0.598   0.218   2.247  0.5232 -0.1453  0.1862
 9242TIP3    H149217   0.652   0.255   2.316  1.0147  1.9084 -1.2845
 9242TIP3    H249218   0.555   0.143   2.289  1.7823  0.2958  2.3470
 9243TIP3   OH249219   2.874   4.451   1.583  0.9883 -0.0628  0.1270
 9243TIP3    H149220   2.937   4.438   1.654  0.4427  0.7553  0.7611
 9243TIP3    H249221   2.821   4.372   1.582  0.6164  0.1746  1.0187
 9244TIP3   OH249222   5.613   2.142  15.050  0.2836 -0.1385  0.3910
 9244TIP3    H149223   5.701   2.171  15.027 -0.2419 -0.7849 -2.7110
 9244TIP3    H249224   5.582   2.206  15.114  1.8881  1.7824 -0.7172
 9245TIP3   OH249225   5.564   5.367   5.706 -0.0057  0.4628 -0.1576
 9245TIP3    H149226   5.621   5.364   5.629  0.0361 -1.6793 -0.0669
 9245TIP3    H249227   5.476   5.375   5.671  0.1100  0.8097 -0.3749
 9246TIP3   OH249228   0.117   3.985  13.644  0.0155 -0.1673 -0.3053
 9246TIP3    H149229   0.210   3.986  13.665 -0.1141  0.3096  0.2528
 9246TIP3    H249230   0.093   3.892  13.644  0.6353 -0.3333 -1.1190
 9247TIP3   OH249231   3.022   2.092   2.283  0.3877 -0.1639  0.1445
 9247TIP3    H149232   3.019   2.171   2.229 -0.9211 -0.9470 -0.9675
 9247TIP3    H249233   3.026   2.124   2.373 -2.8653  1.2254 -0.1289
 9248TIP3   OH249234   3.325   4.330   1.926  0.0072  0.2516  0.4247
 9248TIP3    H149235   3.285   4.265   1.984 -0.4324  1.0074  0.9768
 9248TIP3    H249236   3.408   4.290   1.899  0.2275 -0.1020  1.5858
 9249TIP3   OH249237   2.859   2.268   6.285  0.3309 -0.2107 -0.2848
 9249TIP3    H149238   2.834   2.356   6.313  1.1914 -0.5734  1.7339
 9249TIP3    H249239   2.834   2.212   6.358  0.2421 -1.5817 -1.3563
 9250TIP3   OH249240   5.992   1.399   2.335  0.2463 -0.0724  0.0566
 9250TIP3    H149241   6.075   1.445   2.325  0.0124  0.9207  2.2811
 9250TIP3    H249242   5.952   1.439   2.412 -1.1928 -2.2205  0.4732
 9251TIP3   OH249243   1.183   2.391   5.173 -0.1586 -0.0781 -0.2163
 9251TIP3    H149244   1.254   2.338   5.210  1.2573  1.7129 -0.3364
 9251TIP3    H249245   1.103   2.343   5.197  0.9725 -1.1438  1.5323
 9252TIP3   OH249246   5.355   5.231  16.487 -0.5854 -0.2380  0.2470
 9252TIP3    H149247   5.270   5.244  16.444 -0.3402 -1.5670 -0.6791
 9252TIP3    H249248   5.415   5.288  16.439 -0.7452 -0.0939  0.2184
 9253TIP3   OH249249   4.473   3.196   4.183  0.0222  0.2726  0.3965
 9253TIP3    H149250   4.379   3.215   4.176 -0.2261  0.1829  3.2880
 9253TIP3    H249251   4.481   3.137   4.257  2.2334 -1.0110 -0.8003
 9254TIP3   OH249252   3.101   0.601  11.426  0.4226 -0.0103  0.0446
 9254TIP3    H149253   3.166   0.667  11.450 -0.1936  0.6825 -0.1570
 9254TIP3    H249254   3.022   0.628  11.473  0.0053 -0.2715 -0.5033
 9255TIP3   OH249255   3.244   5.088   3.987 -0.1618  0.2296  0.1145
 9255TIP3    H149256   3.319   5.118   3.936 -0.3461  1.7729  0.7350
 9255TIP3    H249257   3.277   5.011   4.034  0.5754 -0.0244 -0.7930
 9256TIP3   OH249258   4.744   6.461   2.178 -0.2008  0.2298  0.6462
 9256TIP3    H149259   4.719   6.369   2.171 -0.2006  0.3341 -1.1691
 9256TIP3    H249260   4.813   6.472   2.112  0.2032  1.4008  1.2455
 9257TIP3   OH249261   1.021   3.523   3.723 -0.0990  0.6030  0.4007
 9257TIP3    H149262   1.000   3.613   3.748 -0.1452  0.4013  1.0758
 9257TIP3    H249263   1.116   3.520   3.720 -0.1133  1.0025 -0.8141
 9258TIP3   OH249264   5.543   2.758   5.486 -0.1627 -0.3540 -0.4191
 9258TIP3    H149265   5.618   2.814   5.502 -0.4919 -0.4935  1.8453
 9258TIP3    H249266   5.473   2.795   5.540 -0.5075 -2.6256  0.7667
 9259TIP3   OH249267   6.706   4.587   1.417 -0.0062  0.1978  0.3882
 9259TIP3    H149268   6.771   4.657   1.429 -0.1175  0.5695 -1.0408
 9259TIP3    H249269   6.640   4.626   1.360  0.2621 -1.2959 -0.9738
 9260TIP3   OH249270   3.591   0.293  16.489  0.1381  0.0121  0.5000
 9260TIP3    H149271   3.545   0.250  16.417  0.1018  2.1357 -0.7741
 9260TIP3    H249272   3.682   0.297  16.460  0.0764  1.1253  0.4543
 9261TIP3   OH249273   6.677   3.679  16.773 -0.4814  0.8107 -0.3673
 9261TIP3    H149274   6.770   3.657  16.774 -0.1806  2.0482  0.1188
 9261TIP3    H249275   6.672   3.754  16.714 -0.9823  1.5279  0.5807
 9262TIP3   OH249276   4.589   2.883   3.812 -0.3841  0.4545 -0.1253
 9262TIP3    H149277   4.601   2.885   3.907 -1.5432  1.2321  0.0184
 9262TIP3    H249278   4.675   2.859   3.778  0.3885  1.4489  1.0588
 9263TIP3   OH249279   6.336   5.107  16.667 -0.1385 -0.6084  0.1334
 9263TIP3    H149280   6.346   5.027  16.616 -0.5446 -0.2725 -0.4850
 9263TIP3    H249281   6.426   5.140  16.679  0.0030 -1.0031  0.1433
 9264TIP3   OH249282   3.957   3.855   5.284  0.1196 -0.4986  0.5183
 9264TIP3    H149283   4.027   3.897   5.233 -1.8328 -1.5220 -3.2013
 9264TIP3    H249284   3.903   3.927   5.314 -0.0345  0.0414 -0.9884
 9265TIP3   OH249285   6.627   2.956  12.210  0.2213  0.5455  0.2844
 9265TIP3    H149286   6.631   3.023  12.142 -0.5300 -0.9639 -1.2791
 9265TIP3    H249287   6.706   2.902  12.196 -0.5907 -0.5293 -0.2095
 9266TIP3   OH249288   0.217   4.747  12.661  0.1705 -0.4731 -0.2304
 9266TIP3    H149289   0.240   4.825  12.609  1.2071 -0.4121  0.3106
 9266TIP3    H249290   0.270   4.755  12.740  1.1147 -2.3087 -0.6572
 9267TIP3   OH249291   1.682   1.766  11.431  0.1632 -0.4479 -0.1172
 9267TIP3    H149292   1.749   1.733  11.491  0.4316 -0.4704 -0.4295
 9267TIP3    H249293   1.707   1.731  11.346  0.9768  1.3196 -0.6348
 9268TIP3   OH249294   0.714   2.219   0.014 -0.2310  0.0313  0.4620
 9268TIP3    H149295   0.790   2.193   0.066 -1.2238 -0.6217  1.5865
 9268TIP3    H249296   0.663   2.275   0.072 -0.7358  0.2975 -0.2232
 9269TIP3   OH249297   3.717   6.450   5.879 -0.0538 -0.7453  0.3276
 9269TIP3    H149298   3.730   6.359   5.851 -2.4602 -0.5444 -1.5758
 9269TIP3    H249299   3.801   6.492   5.863  1.3944 -2.8009  2.0998
 9270TIP3   OH249300   3.617   0.903   4.505 -0.4040 -0.1851 -0.4725
 9270TIP3    H149301   3.585   0.988   4.535 -3.0247 -1.0511 -0.6680
 9270TIP3    H249302   3.668   0.869   4.579  0.3412  1.3844 -0.2567
 9271TIP3   OH249303   4.418   4.342  15.028  0.2635  0.4147 -0.0219
 9271TIP3    H149304   4.365   4.332  14.949 -0.5317  1.7162  0.3300
 9271TIP3    H249305   4.388   4.425  15.066  1.8454  0.6554  0.7205
 9272TIP3   OH249306   5.507   5.429  16.320 -0.3755  0.1366 -0.5829
 9272TIP3    H149307   5.491   5.476  16.238 -3.7886 -0.9188 -0.6047
 9272TIP3    H249308   5.543   5.345  16.292  0.3108  0.5207 -0.8672
 9273TIP3   OH249309   5.199   1.473   3.417  0.2151  0.2476  0.0098
 9273TIP3    H149310   5.203   1.522   3.499  0.0152  1.9191 -0.9534
 9273TIP3    H249311   5.278   1.499   3.370 -0.0331 -0.1475 -0.6294
 9274TIP3   OH249312   4.314   6.508  16.328  0.3843 -0.8530 -0.2519
 9274TIP3    H149313   4.302   6.603  16.319 -0.3623 -0.6608  2.3843
 9274TIP3    H249314   4.277   6.471  16.248 -0.2901  0.9977 -0.8233
 9275TIP3   OH249315   2.441   0.325  13.979  0.2711 -0.5772 -0.4565
 9275TIP3    H149316   2.517   0.322  14.037 -1.2943 -1.0215  1.6342
 9275TIP3    H249317   2.410   0.234  13.975 -0.2872 -0.3634 -1.1185
 9276TIP3   OH249318   2.378   3.236  15.666 -0.1992 -0.3108 -0.7661
 9276TIP3    H149319   2.463   3.197  15.686  0.0841 -0.8222 -2.9025
 9276TIP3    H249320   2.348   3.272  15.750  3.2285  2.0587 -0.4915
 9277TIP3   OH249321   2.626   2.931   4.018 -0.6291  0.3507  0.1772
 9277TIP3    H149322   2.716   2.935   3.984 -0.8206 -1.1122 -0.5490
 9277TIP3    H249323   2.633   2.961   4.108  0.4983  0.8245 -0.0609
 9278TIP3   OH249324   6.070   1.817   3.080  0.2507  0.0807 -0.3367
 9278TIP3    H149325   6.142   1.805   3.018  1.2095  0.4275  0.6911
 9278TIP3    H249326   6.063   1.911   3.092 -0.3783  0.0507 -0.4301
 9279TIP3   OH249327   4.047   4.283   0.897  0.4964 -0.4515 -0.6417
 9279TIP3    H149328   3.995   4.203   0.897 -0.2526  0.0186 -0.3637
 9279TIP3    H249329   4.089   4.284   0.983 -0.2146 -0.1025 -0.2897
 9280TIP3   OH249330   1.969   6.348   3.235  0.3175 -0.0432 -0.0270
 9280TIP3    H149331   1.941   6.260   3.209  0.8337  0.3641 -2.0728
 9280TIP3    H249332   2.034   6.372   3.169  1.5315  1.1492  1.5914
 9281TIP3   OH249333   3.018   0.118  16.379  0.3990 -0.8630 -0.1417
 9281TIP3    H149334   2.944   0.133  16.438 -1.3865 -1.1464 -2.2285
 9281TIP3    H249335   3.040   0.204  16.345 -0.3495 -1.0298 -1.0820
 9282TIP3   OH249336   6.820   4.002  12.702  0.4740 -0.3042  0.2458
 9282TIP3    H149337   6.851   4.073  12.757 -1.3544  1.4707 -0.9398
 9282TIP3    H249338   6.782   3.939  12.764  0.4557  0.6034  1.1699
 9283TIP3   OH249339   0.132   4.743   3.640  0.4472 -0.3917 -0.6579
 9283TIP3    H149340   0.073   4.817   3.624  0.5135 -0.2897 -0.4340
 9283TIP3    H249341   0.106   4.677   3.576 -0.1125 -0.4593 -0.3617
 9284TIP3   OH249342   6.228   4.195  11.700  0.1722 -0.3803  0.0709
 9284TIP3    H149343   6.275   4.154  11.773 -0.2596 -1.2048 -0.1065
 9284TIP3    H249344   6.278   4.274  11.680  1.1547 -0.9430  0.2777
 9285TIP3   OH249345   2.641   0.353   5.045 -0.3052  0.0031  0.6701
 9285TIP3    H149346   2.656   0.297   5.121 -5.5047 -1.1566  1.0745
 9285TIP3    H249347   2.607   0.435   5.083  0.1319  0.6049 -0.2404
 9286TIP3   OH249348   0.041   1.482   3.550  0.0653  0.0732 -0.3791
 9286TIP3    H149349   0.126   1.443   3.570  0.1810 -0.7330 -2.3138
 9286TIP3    H249350   0.057   1.577   3.550  1.4039 -0.1203 -2.4920
 9287TIP3   OH249351   2.383   3.804   2.298  0.2410  0.0979  0.4869
 9287TIP3    H149352   2.381   3.803   2.394  3.3995 -2.3647  0.6483
 9287TIP3    H249353   2.428   3.886   2.276 -0.9483  0.9181  1.0829
 9288TIP3   OH249354   0.428   3.778  12.196 -1.0132  0.0473  0.3126
 9288TIP3    H149355   0.403   3.689  12.220  0.9077 -0.8035 -0.7294
 9288TIP3    H249356   0.393   3.790  12.107  0.8045 -0.5617 -0.5051
 9289TIP3   OH249357   6.686   0.642   5.202  0.2837  0.3875  0.8527
 9289TIP3    H149358   6.768   0.591   5.206  0.3685  0.5879  2.0793
 9289TIP3    H249359   6.646   0.628   5.288 -1.7567 -0.9609 -0.2611
 9290TIP3   OH249360   6.252   1.059  12.528  0.2059  0.3173  0.1305
 9290TIP3    H149361   6.329   1.111  12.552  0.0168  0.7671 -0.2500
 9290TIP3    H249362   6.288   0.972  12.510  0.4971  0.2662  0.9277
 9291TIP3   OH249363   4.371   5.550  14.941  0.2013  0.2478 -0.4878
 9291TIP3    H149364   4.384   5.588  15.028  0.7807 -2.1497  0.5105
 9291TIP3    H249365   4.453   5.569  14.895 -0.7207  2.9590 -1.1226
 9292TIP3   OH249366   2.346   2.026  12.604  0.0251  0.0698 -0.5218
 9292TIP3    H149367   2.329   2.026  12.509 -2.3999  2.0572 -0.1386
 9292TIP3    H249368   2.421   2.084  12.615  0.3414 -0.1991 -1.2308
 9293TIP3   OH249369   5.352   6.305  13.954 -0.0093 -0.1140  0.3786
 9293TIP3    H149370   5.362   6.232  14.015  2.0694  1.5675  2.1301
 9293TIP3    H249371   5.340   6.263  13.869 -0.0427 -2.4941  1.5040
 9294TIP3   OH249372   5.420   2.130  11.787  0.4064 -0.7689  0.4304
 9294TIP3    H149373   5.353   2.191  11.754 -0.1767 -0.9248  1.3309
 9294TIP3    H249374   5.371   2.065  11.837  1.3992  0.1572  2.6556
 9295TIP3   OH249375   3.211   5.124  10.780  0.4903 -0.2606 -0.0891
 9295TIP3    H149376   3.119   5.101  10.789  0.4136  0.3598  0.7334
 9295TIP3    H249377   3.230   5.180  10.855  1.4725 -0.1737 -0.3880
 9296TIP3   OH249378   0.426   1.106   0.693 -0.0527  0.0303  0.3679
 9296TIP3    H149379   0.361   1.077   0.757  0.0679  0.9339  0.9211
 9296TIP3    H249380   0.392   1.078   0.609 -0.3655 -0.9145  0.8012
 9297TIP3   OH249381   0.568   0.878  14.636  0.0474 -0.5414 -0.4125
 9297TIP3    H149382   0.521   0.843  14.711  0.0050 -2.5475 -1.3523
 9297TIP3    H249383   0.635   0.813  14.616 -0.3085 -0.3237 -2.4602
 9298TIP3   OH249384   0.358   4.633  13.523  0.1046  0.3813 -0.1438
 9298TIP3    H149385   0.289   4.577  13.559 -0.5567  0.6922 -0.8960
 9298TIP3    H249386   0.372   4.700  13.590  0.9667 -0.7206  0.8039
 9299TIP3   OH249387   5.103   4.417  16.832  0.1257 -0.5523  0.1043
 9299TIP3    H149388   5.063   4.379  16.910 -0.1629  0.2030  0.3281
 9299TIP3    H249389   5.166   4.481  16.866 -1.0387  0.8335 -0.2894
 9300TIP3   OH249390   1.473   3.349   1.326  0.0427  0.3382 -0.4158
 9300TIP3    H149391   1.458   3.389   1.411  0.0628  0.3605 -0.4227
 9300TIP3    H249392   1.387   3.348   1.284  0.3757  2.1594 -1.1854
 9301TIP3   OH249393   2.446   5.300  16.168  0.5409  0.2577  0.2001
 9301TIP3    H149394   2.482   5.241  16.234  1.5293 -0.4857 -0.9962
 9301TIP3    H249395   2.396   5.243  16.110 -0.8044  0.9890  0.5996
 9302TIP3   OH249396   2.661   3.360   5.405 -0.2608  0.0982 -1.0762
 9302TIP3    H149397   2.736   3.389   5.354  1.1899  1.0742  1.5078
 9302TIP3    H249398   2.687   3.275   5.441 -0.7573 -0.0050 -0.9587
 9303TIP3   OH249399   1.999   0.260   3.566 -0.2077  0.1131 -0.0871
 9303TIP3    H149400   1.937   0.329   3.589  0.7580  1.4454 -1.3582
 9303TIP3    H249401   2.029   0.283   3.478  2.4382 -0.2001  0.6714
 9304TIP3   OH249402   0.894   0.092   2.322  0.2976  0.3505  0.1795
 9304TIP3    H149403   0.851   0.029   2.379  0.2824 -1.3574 -1.6963
 9304TIP3    H249404   0.956   0.041   2.271  0.5047  1.8866 -1.1565
 9305TIP3   OH249405   2.895   3.928  15.431 -0.0147 -0.2396  0.2473
 9305TIP3    H149406   2.943   3.912  15.350  0.9235 -0.4657  0.8419
 9305TIP3    H249407   2.805   3.903  15.410 -0.1266  1.2664 -1.2123
 9306TIP3   OH249408   6.813   1.002   1.536 -0.1403  0.3104 -0.2715
 9306TIP3    H149409   6.813   1.005   1.440 -4.3120 -1.4291 -0.4217
 9306TIP3    H249410   6.881   0.939   1.558 -0.2949 -0.5641 -2.1825
 9307TIP3   OH249411   5.680   3.516   0.788 -0.3566 -0.5124  0.0338
 9307TIP3    H149412   5.718   3.508   0.701  0.8140  0.8651  0.4015
 9307TIP3    H249413   5.613   3.584   0.779 -0.2207 -0.3542  0.2190
 9308TIP3   OH249414   1.626   2.735  16.190 -0.3887 -0.2904 -0.8312
 9308TIP3    H149415   1.687   2.764  16.257 -1.7507 -0.6058  0.5584
 9308TIP3    H249416   1.603   2.646  16.215 -0.6003 -0.5527 -1.9429
 9309TIP3   OH249417   0.273   2.724   1.645 -0.2201  0.0638 -0.0901
 9309TIP3    H149418   0.251   2.797   1.703  0.1761  2.3921 -2.7550
 9309TIP3    H249419   0.357   2.692   1.678 -0.4421  0.7542  1.1774
 9310TIP3   OH249420   5.320   5.402   1.194 -1.0570 -0.5827 -0.2070
 9310TIP3    H149421   5.258   5.352   1.248 -0.1303 -0.5778  0.8897
 9310TIP3    H249422   5.276   5.413   1.110 -2.9655  0.2687  0.8677
 9311TIP3   OH249423   1.209   4.075   5.986 -0.2965 -0.0113  0.4072
 9311TIP3    H149424   1.287   4.124   5.959  0.2813 -0.3401  1.4803
 9311TIP3    H249425   1.217   3.990   5.942 -0.1264  0.0068  0.4040
 9312TIP3   OH249426   2.989   3.494   2.339 -0.8480 -0.0472 -0.3232
 9312TIP3    H149427   2.913   3.551   2.352 -1.0960 -0.1312 -1.3496
 9312TIP3    H249428   2.975   3.421   2.398 -1.2604  0.2413 -0.0629
 9313TIP3   OH249429   0.658   5.049  17.074  0.0377 -0.3225  0.3841
 9313TIP3    H149430   0.584   5.013  17.123 -0.9037 -0.6962 -1.2664
 9313TIP3    H249431   0.680   4.980  17.011 -0.1921  0.9987 -1.1714
 9314TIP3   OH249432   1.319   3.574  15.316 -0.0517  0.2960 -0.5767
 9314TIP3    H149433   1.357   3.660  15.297  0.5443  0.1950  0.1458
 9314TIP3    H249434   1.321   3.529  15.232  0.7438  0.5643 -0.7139
 9315TIP3   OH249435   3.029   0.425  16.039 -0.5649 -0.4298 -0.2774
 9315TIP3    H149436   2.945   0.390  16.011 -1.1013 -0.2031  0.9720
 9315TIP3    H249437   3.039   0.507  15.990 -1.0011 -0.5391 -0.5481
 9316TIP3   OH249438   4.737   3.427   4.023 -0.1364 -0.0758 -0.1085
 9316TIP3    H149439   4.764   3.372   4.096  1.4832  0.4210 -0.2990
 9316TIP3    H249440   4.744   3.517   4.057  1.2688  0.1876 -1.0564
 9317TIP3   OH249441   3.570   0.148  13.216  0.2231  0.2255 -0.5378
 9317TIP3    H149442   3.632   0.090  13.261  0.7705 -1.2249 -3.0299
 9317TIP3    H249443   3.531   0.092  13.148  0.0019  2.5170 -2.3484
 9318TIP3   OH249444   4.847   0.196   5.738 -0.4373 -0.2035  0.4841
 9318TIP3    H149445   4.823   0.104   5.738  2.9146 -1.1507  2.6505
 9318TIP3    H249446   4.835   0.224   5.829 -0.5592  1.2562  0.0342
 9319TIP3   OH249447   0.670   2.137  12.241  0.2861 -0.3125 -0.4954
 9319TIP3    H149448   0.661   2.219  12.289  0.8536 -1.3895  1.5490
 9319TIP3    H249449   0.763   2.131  12.222  0.2389 -0.4446 -0.6802
 9320TIP3   OH249450   3.455   1.020   3.056  0.3464 -0.2853  0.0483
 9320TIP3    H149451   3.432   1.106   3.090  2.3777 -0.6047  2.3515
 9320TIP3    H249452   3.405   0.959   3.111  0.4725 -0.6672 -0.2543
 9321TIP3   OH249453   6.148   1.586   0.747  0.0891 -0.0901  0.0360
 9321TIP3    H149454   6.109   1.619   0.665 -1.3329 -1.7654 -0.0021
 9321TIP3    H249455   6.227   1.638   0.758  0.4700 -0.0108 -2.5779
 9322TIP3   OH249456   3.282   2.662   4.420 -0.3075  0.4680 -0.3716
 9322TIP3    H149457   3.369   2.656   4.380  0.3604 -0.0808  1.1261
 9322TIP3    H249458   3.269   2.755   4.437 -0.7697  0.7598 -2.1976
 9323TIP3   OH249459   1.434   4.803   4.344 -0.0385 -0.2048 -0.2778
 9323TIP3    H149460   1.371   4.795   4.416  2.1352 -0.5203  1.6323
 9323TIP3    H249461   1.465   4.893   4.349 -0.4513  0.0161 -1.3634
 9324TIP3   OH249462   6.784   1.552  11.489 -0.1552 -0.4714 -0.0182
 9324TIP3    H149463   6.867   1.596  11.505  0.8429 -1.7462 -1.5784
 9324TIP3    H249464   6.807   1.461  11.474 -1.7289 -0.6404 -1.5794
 9325TIP3   OH249465   1.259   4.309   3.796  0.1463 -0.0380 -0.0010
 9325TIP3    H149466   1.163   4.302   3.794  0.0306  0.3442  2.3772
 9325TIP3    H249467   1.276   4.402   3.779  0.0470  0.0396  0.3141
 9326TIP3   OH249468   3.408   3.187  11.638  0.3476  0.2406 -0.9420
 9326TIP3    H149469   3.392   3.103  11.594 -1.2882 -0.7092  1.4206
 9326TIP3    H249470   3.487   3.171  11.690 -0.2883  0.0045 -0.0561
 9327TIP3   OH249471   2.253   6.799  17.034  0.2726  0.4601  0.7764
 9327TIP3    H149472   2.284   6.865  16.972  0.6979  0.8784  1.4248
 9327TIP3    H249473   2.214   6.849  17.105 -2.6522 -0.0830 -0.3840
 9328TIP3   OH249474   5.676   6.403   2.602  0.7151  0.2067 -0.2591
 9328TIP3    H149475   5.702   6.451   2.680 -0.6435 -0.6895  0.7737
 9328TIP3    H249476   5.582   6.421   2.593  0.8182  0.1588 -1.5924
 9329TIP3   OH249477   0.815   0.991   6.702  0.1425 -0.4635 -0.3714
 9329TIP3    H149478   0.820   0.896   6.692  1.0003 -0.3630 -0.9292
 9329TIP3    H249479   0.824   1.025   6.613  2.5695  0.2425  0.0933
 9330TIP3   OH249480   2.632   4.830  15.919 -0.4067 -1.0088  0.4828
 9330TIP3    H149481   2.716   4.849  15.961  1.0232 -1.1348 -2.1851
 9330TIP3    H249482   2.603   4.914  15.885 -1.0842 -1.0734  0.9039
 9331TIP3   OH249483   2.520   3.427   1.952  0.1083 -0.6320 -0.0151
 9331TIP3    H149484   2.608   3.458   1.972  0.0413 -1.4842  1.7304
 9331TIP3    H249485   2.523   3.402   1.860  0.5046  3.3175 -1.1604
 9332TIP3   OH249486   5.190   3.781   4.676 -0.3274  0.4006 -0.4807
 9332TIP3    H149487   5.197   3.845   4.605 -2.3975 -2.2841 -3.2774
 9332TIP3    H249488   5.096   3.776   4.694  0.0810  0.2671  1.7606
 9333TIP3   OH249489   2.617   4.224   4.994  0.2949 -0.3234 -0.3570
 9333TIP3    H149490   2.655   4.208   5.080 -1.3553 -2.1230  0.0676
 9333TIP3    H249491   2.526   4.196   5.002 -0.0989  0.2550 -2.4613
 9334TIP3   OH249492   5.110   3.770   1.740 -0.2304 -0.5943 -0.1048
 9334TIP3    H149493   5.033   3.807   1.698  0.7331  2.6045  0.7990
 9334TIP3    H249494   5.184   3.805   1.690  0.7817  0.2296  1.8989
 9335TIP3   OH249495   2.434   2.900  14.203 -0.3459 -0.0468 -0.6900
 9335TIP3    H149496   2.466   2.932  14.287 -2.6707  0.8338 -0.1324
 9335TIP3    H249497   2.500   2.836  14.176  0.6563 -0.0191  1.5728
 9336TIP3   OH249498   1.839   1.764   3.133 -0.2805  0.0474  0.3278
 9336TIP3    H149499   1.801   1.697   3.076 -0.1937  0.2378  0.0485
 9336TIP3    H249500   1.775   1.835   3.132  0.1265  0.4021 -0.2084
 9337TIP3   OH249501   5.927   4.287  11.352 -0.4511 -0.0529 -0.1400
 9337TIP3    H149502   5.983   4.219  11.390 -1.4797 -0.8943 -0.1168
 9337TIP3    H249503   5.940   4.363  11.409  2.6030  0.5769 -1.5773
 9338TIP3   OH249504   0.340   4.166  13.246 -0.1310  0.4925  0.5330
 9338TIP3    H149505   0.296   4.207  13.320  0.7551  1.7643  0.3808
 9338TIP3    H249506   0.396   4.099  13.285  0.6370  1.4279  1.0691
 9339TIP3   OH249507   5.551   5.896   5.503 -0.1178 -0.7443  0.4008
 9339TIP3    H149508   5.588   5.882   5.590  0.4157 -1.9657 -0.0142
 9339TIP3    H249509   5.622   5.875   5.443 -0.2168  0.9393 -0.3208
 9340TIP3   OH249510   1.471   0.334   1.062  0.6302 -0.2381 -0.3735
 9340TIP3    H149511   1.379   0.307   1.063  0.7287 -0.5905 -1.0763
 9340TIP3    H249512   1.505   0.305   1.147  0.2473 -0.6407 -0.3589
 9341TIP3   OH249513   6.421   1.243   4.713 -0.2009 -0.8064 -0.3253
 9341TIP3    H149514   6.408   1.328   4.755  1.1534 -0.2593 -0.9895
 9341TIP3    H249515   6.510   1.216   4.739  1.4739  0.4751 -4.3894
 9342TIP3   OH249516   1.174   6.721  17.291  0.2090  0.3220  0.5548
 9342TIP3    H149517   1.080   6.732  17.280  0.1233 -0.0965  0.8412
 9342TIP3    H249518   1.211   6.808  17.277 -0.0872  0.2241 -0.9130
 9343TIP3   OH249519   6.576   6.582   1.747 -0.1554  0.3344  0.7431
 9343TIP3    H149520   6.543   6.671   1.759  1.5184  0.8900  1.5313
 9343TIP3    H249521   6.607   6.579   1.656 -1.4425  0.1188  0.3068
 9344TIP3   OH249522   4.568   6.131  12.464 -0.2247 -0.5980 -0.2217
 9344TIP3    H149523   4.564   6.035  12.469  0.1969 -0.7256 -2.0259
 9344TIP3    H249524   4.659   6.152  12.486 -0.5834 -0.5116  1.2595
 9345TIP3   OH249525   2.173   5.828  11.841  0.1713  0.6956  0.0574
 9345TIP3    H149526   2.090   5.820  11.888  1.1079 -1.9306  1.3521
 9345TIP3    H249527   2.240   5.822  11.909  1.4816 -0.6391 -1.2969
 9346TIP3   OH249528   3.976   6.605  13.063 -0.0731  0.2701 -0.2718
 9346TIP3    H149529   3.901   6.547  13.077 -0.2035  0.4131 -0.3775
 9346TIP3    H249530   3.939   6.693  13.065 -0.0026  0.3174 -0.9440
 9347TIP3   OH249531   5.181   5.277  14.313 -0.3716 -0.4178  0.2649
 9347TIP3    H149532   5.086   5.289  14.311 -0.1442  1.2487 -1.6043
 9347TIP3    H249533   5.200   5.220  14.239  0.2312  0.4255 -0.2362
 9348TIP3   OH249534   2.320   1.383   3.002 -0.3796 -0.2826 -0.0903
 9348TIP3    H149535   2.321   1.400   3.096 -0.4563 -1.9441  0.2164
 9348TIP3    H249536   2.239   1.424   2.971  0.9486  2.6450  0.0889
 9349TIP3   OH249537   3.892   1.770  14.198  0.7944 -0.1530  0.4950
 9349TIP3    H149538   3.887   1.707  14.125 -0.8870  1.6274 -0.9790
 9349TIP3    H249539   3.983   1.798  14.198  1.0646 -0.9866 -0.2473
 9350TIP3   OH249540   0.706   3.990   0.430  0.4979  0.4651  0.8579
 9350TIP3    H149541   0.692   3.977   0.524 -1.3815 -0.4990  0.4593
 9350TIP3    H249542   0.663   3.915   0.389  1.1453  0.9839 -0.8015
 9351TIP3   OH249543   3.799   2.153  10.858  0.6084  0.6380 -0.1679
 9351TIP3    H149544   3.862   2.196  10.800  1.1161 -0.4296 -0.4148
 9351TIP3    H249545   3.724   2.134  10.801  0.9176  0.0082 -0.3614
 9352TIP3   OH249546   1.603   6.129   1.930 -0.0493 -0.8113  0.3954
 9352TIP3    H149547   1.538   6.113   1.999 -0.0731 -0.3238  0.4911
 9352TIP3    H249548   1.586   6.063   1.864 -0.9360 -0.4089  0.2159
 9353TIP3   OH249549   4.551   2.627  11.502 -0.5496  0.4163 -0.1529
 9353TIP3    H149550   4.559   2.572  11.424 -0.5010 -0.1859  0.2716
 9353TIP3    H249551   4.551   2.717  11.468  0.0798  0.1800 -0.7908
 9354TIP3   OH249552   4.545   3.530   2.317  0.3608 -0.4960 -0.2193
 9354TIP3    H149553   4.608   3.470   2.278  0.6163  0.6778 -1.6235
 9354TIP3    H249554   4.593   3.612   2.327  0.1607 -0.6140  2.1294
 9355TIP3   OH249555   2.549   6.044  16.662  0.0954 -0.3992  0.3720
 9355TIP3    H149556   2.641   6.017  16.667 -0.0377 -0.8196  0.6758
 9355TIP3    H249557   2.549   6.137  16.682  0.5231 -0.2714 -0.2298
 9356TIP3   OH249558   1.669   3.429   5.138 -0.3321  0.1378 -0.1224
 9356TIP3    H149559   1.670   3.440   5.233 -0.3558  2.8539 -0.3857
 9356TIP3    H249560   1.576   3.420   5.116 -0.3730  0.0742  0.0782
 9357TIP3   OH249561   4.932   6.051   4.119  0.2877 -0.3332  0.0051
 9357TIP3    H149562   4.937   6.108   4.042  2.4829  0.1811  0.4979
 9357TIP3    H249563   4.866   6.092   4.175 -0.2617  0.0970 -0.9378
 9358TIP3   OH249564   3.560   2.347  11.888  0.5737 -0.3942  0.4110
 9358TIP3    H149565   3.653   2.357  11.869  0.6601 -1.5032  0.2158
 9358TIP3    H249566   3.551   2.375  11.979  0.8514  1.0271  0.0229
 9359TIP3   OH249567   2.932   2.357  10.296 -0.1207  0.0472 -0.4018
 9359TIP3    H149568   2.986   2.358  10.376 -0.6630 -2.2679  0.0598
 9359TIP3    H249569   2.909   2.448  10.281  0.4566  0.5978  1.7934
 9360TIP3   OH249570   1.808   4.569  13.912  0.1715 -0.6493 -0.1760
 9360TIP3    H149571   1.787   4.482  13.880  1.5185 -0.6277 -1.1977
 9360TIP3    H249572   1.872   4.603  13.848  0.5848  0.5947  0.8711
 9361TIP3   OH249573   3.474   3.661  13.768 -0.4105  0.1297  0.4129
 9361TIP3    H149574   3.399   3.603  13.783  0.3982 -1.1997 -0.5987
 9361TIP3    H249575   3.475   3.675  13.673 -0.5470  1.7501  0.6422
 9362TIP3   OH249576   1.207   0.682  17.154  0.0856 -0.1213  0.0841
 9362TIP3    H149577   1.262   0.755  17.126 -2.0884  1.4545 -0.2612
 9362TIP3    H249578   1.264   0.606  17.148  1.6226  1.1324 -2.3117
 9363TIP3   OH249579   1.865   3.361  13.611 -0.4849 -0.0561  0.3843
 9363TIP3    H149580   1.915   3.305  13.552 -0.6698 -0.3917  0.5474
 9363TIP3    H249581   1.905   3.348  13.697  1.3007  2.1960 -0.0500
 9364TIP3   OH249582   1.227   0.129  15.630  0.0971  0.7057  0.0030
 9364TIP3    H149583   1.280   0.162  15.702 -0.7994  1.0667  0.5034
 9364TIP3    H249584   1.147   0.098  15.671 -0.4127  0.8867 -0.8395
 9365TIP3   OH249585   6.719   0.004  13.068 -0.0812 -0.2502  0.1645
 9365TIP3    H149586   6.725  -0.042  12.984 -1.3430 -0.0750 -0.0353
 9365TIP3    H249587   6.625   0.007  13.086  0.0962  0.9378  0.9007
 9366TIP3   OH249588   0.137   0.878   0.518  0.0887  0.1246 -0.3405
 9366TIP3    H149589   0.141   0.955   0.461 -0.0568  1.3060  1.2279
 9366TIP3    H249590   0.044   0.860   0.529  0.1155 -0.0010 -0.3111
 9367TIP3   OH249591   1.385   3.565  11.303 -0.0874  0.1485  0.4625
 9367TIP3    H149592   1.451   3.609  11.250  1.9661 -1.3180  1.6818
 9367TIP3    H249593   1.363   3.486  11.254  1.1591 -0.7627  1.3311
 9368TIP3   OH249594   0.715   6.500   5.567  0.5633  0.7574 -0.0845
 9368TIP3    H149595   0.627   6.535   5.554  0.7193  1.1823  0.0194
 9368TIP3    H249596   0.755   6.507   5.480  1.1085  2.2429  0.2738
 9369TIP3   OH249597   1.974   5.370   1.616 -0.2247  0.2903 -0.3868
 9369TIP3    H149598   1.955   5.286   1.575  0.6536 -1.0763  1.9242
 9369TIP3    H249599   1.893   5.420   1.607 -1.0638 -1.1560 -0.9611
 9370TIP3   OH249600   2.061   3.704  12.567  0.1138 -0.1588 -0.1392
 9370TIP3    H149601   2.117   3.779  12.588  1.7943 -1.2032 -0.8017
 9370TIP3    H249602   2.102   3.664  12.491  0.0550 -2.5917  1.0681
 9371TIP3   OH249603   4.733   5.090   1.631 -0.3292 -0.2044 -0.1958
 9371TIP3    H149604   4.639   5.107   1.624 -0.3170 -0.0082  0.0963
 9371TIP3    H249605   4.743   5.000   1.601 -0.7685 -0.5993  0.7891
 9372TIP3   OH249606   3.679   5.628   3.846 -0.2730 -0.2189  0.5632
 9372TIP3    H149607   3.758   5.611   3.794 -0.4796 -1.3909  0.6111
 9372TIP3    H249608   3.629   5.690   3.794 -0.4512 -1.3480 -0.6276
 9373TIP3   OH249609   1.698   3.524  13.482 -0.5884 -0.1371  0.2414
 9373TIP3    H149610   1.745   3.457  13.533  1.1910 -0.0527 -1.2319
 9373TIP3    H249611   1.639   3.565  13.545  0.5341 -1.0058  1.8977
 9374TIP3   OH249612   1.580   4.759  17.107 -0.1292 -0.0560  0.2019
 9374TIP3    H149613   1.540   4.793  17.187  0.2283  0.2295  0.2603
 9374TIP3    H249614   1.652   4.705  17.138 -0.9053 -1.1592  0.1226
 9375TIP3   OH249615   2.228   0.851  14.475  0.8348 -0.0541 -0.1173
 9375TIP3    H149616   2.206   0.786  14.409 -0.5921 -1.4339  1.6614
 9375TIP3    H249617   2.169   0.924  14.457 -2.3323 -1.9569  1.8843
 9376TIP3   OH249618   1.658   5.785  14.470  0.1205  0.4122 -0.9261
 9376TIP3    H149619   1.682   5.807  14.380  1.2783  1.8561 -0.2931
 9376TIP3    H249620   1.712   5.709  14.491  1.0891  1.0915 -0.9148
 9377TIP3   OH249621   2.635   1.067  16.693 -0.0208 -0.7119  0.1440
 9377TIP3    H149622   2.625   1.096  16.603 -1.2144 -0.2310  0.4203
 9377TIP3    H249623   2.723   1.030  16.697 -0.0625 -0.9781 -1.2779
 9378TIP3   OH249624   5.100   6.180  15.155  0.4034 -0.6488 -0.1070
 9378TIP3    H149625   5.088   6.211  15.065  1.8760 -1.6254 -0.6658
 9378TIP3    H249626   5.122   6.259  15.205  0.0141 -0.1684 -0.6915
 9379TIP3   OH249627   5.672   1.009  14.154 -0.1419 -0.4569  0.6957
 9379TIP3    H149628   5.665   1.065  14.231  1.1519 -0.3190  0.7228
 9379TIP3    H249629   5.581   0.990  14.130 -0.8172  4.6760 -1.4879
 9380TIP3   OH249630   4.499   2.907  13.725 -0.3037 -0.2129 -0.4021
 9380TIP3    H149631   4.468   2.936  13.810  0.4944 -1.4146  0.3165
 9380TIP3    H249632   4.494   2.985  13.669 -1.1735  0.4835  0.6408
 9381TIP3   OH249633   1.046   6.268   2.860 -0.3877  0.2439 -0.6645
 9381TIP3    H149634   0.958   6.256   2.826 -0.3716  1.4443 -1.1684
 9381TIP3    H249635   1.050   6.361   2.882  0.0769 -0.2095  1.2658
 9382TIP3   OH249636   4.201   4.433   2.123  0.2194  0.1944  0.6628
 9382TIP3    H149637   4.216   4.493   2.196 -0.8621  0.3550  0.7592
 9382TIP3    H249638   4.128   4.379   2.151  0.8926 -0.8701  0.3788
 9383TIP3   OH249639   2.896   0.049   0.251 -0.3270 -0.3425 -0.2332
 9383TIP3    H149640   2.808   0.054   0.287 -1.6572 -0.9401 -3.2666
 9383TIP3    H249641   2.914   0.137   0.219  0.0670 -0.2794  0.1666
 9384TIP3   OH249642   0.845   3.963  12.537 -0.2443 -0.0881  0.0066
 9384TIP3    H149643   0.765   4.004  12.503 -1.1834 -0.2574  1.9638
 9384TIP3    H249644   0.822   3.871  12.548 -0.0567  0.0251  1.3861
 9385TIP3   OH249645   3.088   4.305  11.186 -0.7249 -0.3509 -0.1603
 9385TIP3    H149646   3.146   4.339  11.118  0.4098 -0.2247  0.8579
 9385TIP3    H249647   3.142   4.242  11.234 -1.1273  0.5000  1.4134
 9386TIP3   OH249648   4.706   4.542  17.198  0.4403  0.4821 -0.7341
 9386TIP3    H149649   4.695   4.622  17.148  0.2589 -0.2102 -1.8122
 9386TIP3    H249650   4.659   4.475  17.149 -1.5823  0.1958  1.4756
 9387TIP3   OH249651   2.912   0.736  15.732 -0.2121  0.5509  0.0061
 9387TIP3    H149652   2.965   0.720  15.654  1.4313 -0.5610  1.3270
 9387TIP3    H249653   2.874   0.651  15.753 -0.2343  0.7333  0.7158
 9388TIP3   OH249654   5.809   3.810   3.007 -0.3980 -0.3353 -0.5574
 9388TIP3    H149655   5.732   3.754   3.011  0.1492 -1.2519 -2.0450
 9388TIP3    H249656   5.841   3.799   2.917  1.6001 -0.1802  0.1064
 9389TIP3   OH249657   1.559   4.154   2.604  0.4236  0.2205  0.2066
 9389TIP3    H149658   1.596   4.160   2.516 -1.2091 -0.1486 -0.5081
 9389TIP3    H249659   1.615   4.211   2.657  1.9352 -0.2014 -0.8761
 9390TIP3   OH249660   3.779   3.178   2.501 -0.1962  0.0324 -0.3417
 9390TIP3    H149661   3.830   3.116   2.449  0.7172  0.5262 -0.0496
 9390TIP3    H249662   3.826   3.261   2.493 -1.2972  0.6530 -0.5759
 9391TIP3   OH249663   5.173   1.148  13.878  0.2537  0.0395  0.3798
 9391TIP3    H149664   5.225   1.228  13.871  1.0629 -0.4427  0.7417
 9391TIP3    H249665   5.226   1.082  13.833  0.8883 -0.8944  2.4232
 9392TIP3   OH249666   0.544   4.990  12.724  0.3210  0.1319  0.7184
 9392TIP3    H149667   0.622   4.953  12.681  0.5429  0.8343  0.5044
 9392TIP3    H249668   0.509   4.918  12.776  2.4728  0.4386  2.7206
 9393TIP3   OH249669   5.026   5.658   3.884  1.2026 -0.3817  0.2294
 9393TIP3    H149670   4.993   5.574   3.915  0.0351 -0.4654 -1.1839
 9393TIP3    H249671   4.959   5.721   3.911 -0.1016 -0.5337 -2.5502
 9394TIP3   OH249672   2.749   3.402  11.073  0.0710  0.1750 -0.3221
 9394TIP3    H149673   2.781   3.337  11.010 -0.7652 -2.3998  1.8192
 9394TIP3    H249674   2.653   3.397  11.066 -0.0808 -1.0487  1.9415
 9395TIP3   OH249675   6.088   4.607  14.342 -0.2153  0.0300 -0.1915
 9395TIP3    H149676   6.086   4.703  14.342 -2.4159  0.0058 -0.3325
 9395TIP3    H249677   6.009   4.581  14.390 -0.2410 -1.7122 -1.1371
 9396TIP3   OH249678   3.357   6.450  16.230  0.0040  0.0175  0.2425
 9396TIP3    H149679   3.359   6.536  16.188 -1.4588  0.2436  0.6013
 9396TIP3    H249680   3.430   6.452  16.293  1.0546  0.3436 -0.9747
 9397TIP3   OH249681   3.230   3.919   5.292  0.2986  0.4234 -0.9814
 9397TIP3    H149682   3.293   3.859   5.253  0.6719  0.5643 -0.5943
 9397TIP3    H249683   3.266   3.940   5.378 -0.8455 -0.4006 -0.2923
 9398TIP3   OH249684   4.344   5.750  14.521 -0.0608  0.3158  0.2204
 9398TIP3    H149685   4.260   5.763  14.564 -1.3352 -0.2853 -2.0103
 9398TIP3    H249686   4.353   5.824  14.461  0.0687 -0.6000 -0.9284
 9399TIP3   OH249687   3.927   2.054  16.610  0.2414 -1.0313  0.4869
 9399TIP3    H149688   4.003   2.015  16.654  1.7626  1.9750  0.6757
 9399TIP3    H249689   3.930   2.146  16.635 -1.1602 -0.0512 -2.7333
 9400TIP3   OH249690   3.899   3.998   2.210 -0.3716  0.2176 -0.5060
 9400TIP3    H149691   3.901   3.967   2.120 -1.4430  0.4245 -0.6059
 9400TIP3    H249692   3.954   3.937   2.259 -1.5762 -1.1822 -0.8912
 9401TIP3   OH249693   4.381   0.397  15.419  0.3674  0.6743 -0.0782
 9401TIP3    H149694   4.327   0.403  15.499 -0.3801 -1.1712 -0.4226
 9401TIP3    H249695   4.387   0.488  15.388 -1.6988  1.0549  0.5351
 9402TIP3   OH249696   2.109   2.130  13.031 -0.0015  0.0044  0.7596
 9402TIP3    H149697   2.145   2.200  12.976 -0.1760  0.0524  0.7049
 9402TIP3    H249698   2.072   2.175  13.107  0.6632 -0.1027  1.1435
 9403TIP3   OH249699   0.422   2.700   3.064 -0.1446 -0.5435  0.1895
 9403TIP3    H149700   0.392   2.785   3.033 -0.8083 -0.6417  0.5431
 9403TIP3    H249701   0.507   2.717   3.104 -0.3880 -0.0112  0.4759
 9404TIP3   OH249702   2.056   1.654  14.806  0.1035 -0.6360 -0.0592
 9404TIP3    H149703   1.979   1.619  14.852 -0.0089 -1.4841 -0.8754
 9404TIP3    H249704   2.054   1.610  14.721 -0.7813  2.3628 -1.6319
 9405TIP3   OH249705   0.368   1.708  12.782 -0.1193 -0.2161  0.2272
 9405TIP3    H149706   0.459   1.714  12.812 -0.4098  0.7830  0.9117
 9405TIP3    H249707   0.369   1.746  12.694  0.2672 -0.9129 -0.0738
 9406TIP3   OH249708   5.094   0.828  14.848  0.1459  0.0335  0.4199
 9406TIP3    H149709   5.170   0.772  14.862 -0.5740 -1.3162 -0.9160
 9406TIP3    H249710   5.019   0.776  14.877 -0.6927 -0.3386 -2.3203
 9407TIP3   OH249711   2.836   0.446  14.421  0.0238 -0.5318 -0.6607
 9407TIP3    H149712   2.925   0.464  14.393 -0.7645  0.6746 -2.4887
 9407TIP3    H249713   2.794   0.532  14.427 -1.0289 -1.0835  0.1871
 9408TIP3   OH249714   5.498   0.798  14.350  0.2379 -0.3729 -0.3237
 9408TIP3    H149715   5.567   0.856  14.382 -1.0788  0.9458  0.1885
 9408TIP3    H249716   5.544   0.731  14.300  1.7872  1.2158 -1.0797
 9409TIP3   OH249717   0.904   6.615  16.361 -0.2809 -0.1312 -0.2789
 9409TIP3    H149718   0.944   6.612  16.274  1.6475  0.3077  0.5675
 9409TIP3    H249719   0.814   6.644  16.345  0.5878  1.7452 -1.9662
 9410TIP3   OH249720   4.119   2.476   0.556  0.2593  0.0323  0.3026
 9410TIP3    H149721   4.026   2.467   0.576  0.2098  0.1132  0.1059
 9410TIP3    H249722   4.127   2.564   0.518  0.3357 -0.1687 -0.1497
 9411TIP3   OH249723   2.386   2.051  10.962 -0.1970 -0.6301 -0.0224
 9411TIP3    H149724   2.383   1.987  11.032  1.2596 -1.3078 -0.5635
 9411TIP3    H249725   2.417   2.132  11.004  0.3669 -0.9487  0.1712
 9412TIP3   OH249726   1.139   4.112  12.241 -0.4422 -0.1889  0.0778
 9412TIP3    H149727   1.119   4.056  12.166 -0.7588  0.6949 -0.5086
 9412TIP3    H249728   1.216   4.073  12.282 -1.6564 -2.0145  0.6649
 9413TIP3   OH249729   2.362   3.155   2.852  0.2572  0.0489 -0.3445
 9413TIP3    H149730   2.325   3.204   2.925 -0.4815 -2.3798  0.9770
 9413TIP3    H249731   2.442   3.115   2.887 -0.7906 -2.1984 -0.4359
 9414TIP3   OH249732   0.063   4.301  17.240 -0.3898 -0.3412 -0.3284
 9414TIP3    H149733   0.132   4.328  17.180 -0.8032  1.0367 -0.2017
 9414TIP3    H249734   0.001   4.373  17.239 -1.2763 -1.0833  0.4164
 9415TIP3   OH249735   2.502   1.386   2.510  0.4733 -0.1991  0.8290
 9415TIP3    H149736   2.482   1.465   2.461  1.1878 -0.2773  0.4069
 9415TIP3    H249737   2.450   1.317   2.467  0.2528 -0.0624  0.8753
 9416TIP3   OH249738   6.322   1.711  13.588  0.0392 -0.0041  1.0267
 9416TIP3    H149739   6.360   1.713  13.676  0.0950  0.7560  0.9956
 9416TIP3    H249740   6.240   1.761  13.597  0.2863  0.4963  0.5422
 9417TIP3   OH249741   0.523   2.960   3.545 -0.3549  0.3603 -0.0189
 9417TIP3    H149742   0.495   2.954   3.454 -0.0799 -1.3465 -0.0080
 9417TIP3    H249743   0.618   2.971   3.541 -0.4892  1.6241  0.0449
 9418TIP3   OH249744   6.498   6.058  11.277  0.4174 -0.1845  0.1358
 9418TIP3    H149745   6.415   6.026  11.243  0.4925 -0.7488  0.4662
 9418TIP3    H249746   6.549   5.979  11.293  0.1652  0.0231  2.0928
 9419TIP3   OH249747   0.910   5.757  15.323 -0.2757  0.1178 -0.5682
 9419TIP3    H149748   0.986   5.765  15.265 -0.1056  1.4406 -0.1709
 9419TIP3    H249749   0.930   5.681  15.378 -0.0420 -0.6108 -1.6311
 9420TIP3   OH249750   5.515   5.736  13.815  0.0882 -0.0887 -0.0007
 9420TIP3    H149751   5.545   5.676  13.883  0.3999 -0.9012 -0.8486
 9420TIP3    H249752   5.419   5.731  13.819  0.1153 -1.1038 -0.4618
 9421TIP3   OH249753   1.161   6.157  14.153 -0.1974 -0.0309 -0.7623
 9421TIP3    H149754   1.190   6.082  14.205  1.4811  1.6409  0.8055
 9421TIP3    H249755   1.078   6.183  14.193  1.9105  2.3340  2.4201
 9422TIP3   OH249756   2.286   0.120   3.933  0.0008  0.1862 -0.1325
 9422TIP3    H149757   2.301   0.040   3.984  2.7675  0.7976  0.1055
 9422TIP3    H249758   2.214   0.098   3.874 -0.3624 -1.9487  1.0725
 9423TIP3   OH249759   5.015   4.918   1.367 -0.2132 -0.2161 -0.2981
 9423TIP3    H149760   5.066   4.994   1.339 -1.1753  0.2501 -0.8143
 9423TIP3    H249761   5.067   4.842   1.339  0.1719  0.2545 -0.8620
 9424TIP3   OH249762   5.083   3.565  15.029 -0.4418  0.1956  0.1600
 9424TIP3    H149763   5.161   3.616  15.051  0.6777 -0.8757 -1.2340
 9424TIP3    H249764   5.052   3.531  15.113  0.5937  0.6328  0.7291
 9425TIP3   OH249765   0.748   5.073  13.656  0.1638  0.4910  0.1815
 9425TIP3    H149766   0.737   5.093  13.563 -0.0440  2.3538  0.5909
 9425TIP3    H249767   0.843   5.062  13.667  0.0756 -1.1063 -0.5006
 9426TIP3   OH249768   4.908   3.835  15.616 -0.3177 -0.0185  0.5116
 9426TIP3    H149769   4.834   3.869  15.564 -1.3634 -2.4357  0.3361
 9426TIP3    H249770   4.877   3.838  15.706  0.1702  0.8861  0.6569
 9427TIP3   OH249771   3.628   3.234   0.150 -0.0392 -0.0990 -0.1892
 9427TIP3    H149772   3.570   3.307   0.127  0.8393  0.6581 -0.0626
 9427TIP3    H249773   3.656   3.253   0.240 -0.7176 -1.2113  0.2655
 9428TIP3   OH249774   4.910   1.865   1.368  0.0226 -0.5016  0.2754
 9428TIP3    H149775   4.837   1.889   1.425 -0.2792  0.6000 -0.5466
 9428TIP3    H249776   4.876   1.877   1.280  1.2789  0.3001 -0.1173
 9429TIP3   OH249777   4.878   1.627  16.628 -0.8669  0.0669 -0.3143
 9429TIP3    H149778   4.907   1.546  16.585  0.8532  0.3532  0.2532
 9429TIP3    H249779   4.847   1.599  16.714  0.0652  0.0412  0.0178
 9430TIP3   OH249780   5.692   0.669  11.620  0.1506  0.2517 -0.0097
 9430TIP3    H149781   5.668   0.717  11.541  1.9968 -1.2025 -1.5134
 9430TIP3    H249782   5.781   0.638  11.603  0.3932 -0.4941  2.4572
 9431TIP3   OH249783   3.468   0.672  17.036  0.3258  0.0789  0.3412
 9431TIP3    H149784   3.439   0.763  17.024  0.1118  0.1178  1.1462
 9431TIP3    H249785   3.563   0.678  17.036  0.3139  0.2905  0.2589
 9432TIP3   OH249786   4.505   3.103   2.105 -0.3186  0.3479  0.5950
 9432TIP3    H149787   4.531   3.105   2.012 -0.5351  0.6529  0.5386
 9432TIP3    H249788   4.417   3.066   2.104  0.9107 -2.6652  0.9841
 9433TIP3   OH249789   0.546   4.517   5.400  0.5261 -0.3493 -0.2540
 9433TIP3    H149790   0.617   4.481   5.452  2.1692  0.3672 -1.9683
 9433TIP3    H249791   0.538   4.458   5.325 -0.0992  0.0587 -0.5233
 9434TIP3   OH249792   5.907   6.735  16.105 -0.2875 -0.0625 -0.5693
 9434TIP3    H149793   5.998   6.718  16.082 -0.0588 -0.7970  0.8268
 9434TIP3    H249794   5.873   6.650  16.132 -1.2003  0.3244 -0.4790
 9435TIP3   OH249795   4.166   1.574   5.174 -0.1111 -0.1512  0.1197
 9435TIP3    H149796   4.186   1.665   5.193  0.6716 -0.7841  2.5033
 9435TIP3    H249797   4.245   1.540   5.132  0.3112 -0.1992  0.9377
 9436TIP3   OH249798   5.899   4.123   1.507  0.2235 -0.1057  0.5381
 9436TIP3    H149799   5.914   4.153   1.417  0.0909 -1.1547  0.1651
 9436TIP3    H249800   5.888   4.204   1.557  0.6598  0.4951 -0.3227
 9437TIP3   OH249801   2.272   0.195  14.704 -0.2154 -0.2837 -0.2153
 9437TIP3    H149802   2.310   0.136  14.769  1.6844 -0.9013 -1.8496
 9437TIP3    H249803   2.307   0.166  14.621  0.5968  3.0113 -1.1129
 9438TIP3   OH249804   3.435   5.271  12.416 -0.5259 -0.0042  0.2024
 9438TIP3    H149805   3.420   5.219  12.494  1.8560 -2.7425 -1.0773
 9438TIP3    H249806   3.351   5.268  12.369 -1.0841 -0.8222  1.2264
 9439TIP3   OH249807   4.398   3.159   4.736 -0.5204  0.8870  0.0838
 9439TIP3    H149808   4.315   3.120   4.709 -1.6121  2.4380  1.0945
 9439TIP3    H249809   4.414   3.228   4.672  0.7832 -0.4119 -1.0018
 9440TIP3   OH249810   5.689   4.918   0.516  0.2304 -0.0425  0.3152
 9440TIP3    H149811   5.712   4.834   0.476 -2.9704 -0.7427 -0.2522
 9440TIP3    H249812   5.710   4.983   0.449  1.3533 -0.5296  0.1855
 9441TIP3   OH249813   5.891   6.018  11.001 -0.2325  0.1164 -0.0625
 9441TIP3    H149814   5.987   6.017  11.003 -0.2496  0.0133  1.6804
 9441TIP3    H249815   5.867   5.934  10.961  0.3969 -0.5811  0.9983
 9442TIP3   OH249816   2.576   0.984  11.572 -0.7053 -0.8835 -0.8066
 9442TIP3    H149817   2.509   0.919  11.592  0.1412 -1.7508 -0.7421
 9442TIP3    H249818   2.590   0.975  11.477  1.6065 -2.9953 -0.3409
 9443TIP3   OH249819   3.705   3.190  16.742 -0.1359 -0.1705  0.4604
 9443TIP3    H149820   3.682   3.283  16.739  0.7222  0.0576  0.7990
 9443TIP3    H249821   3.794   3.188  16.776 -1.4549 -1.3423  4.1575
 9444TIP3   OH249822   0.735   1.558  12.986 -0.4986  0.3051 -0.0658
 9444TIP3    H149823   0.681   1.528  13.059 -1.0194  0.4866 -0.3677
 9444TIP3    H249824   0.780   1.480  12.955 -1.8819 -0.1937 -0.8834
 9445TIP3   OH249825   1.767   5.718  15.173 -0.3521 -0.0460  0.5602
 9445TIP3    H149826   1.687   5.749  15.214 -0.1582  0.2026  0.7586
 9445TIP3    H249827   1.837   5.757  15.226 -0.1037 -0.4240  0.5090
 9446TIP3   OH249828   0.707   3.993  11.359 -0.3320 -0.2649 -0.3426
 9446TIP3    H149829   0.624   3.946  11.359  0.2247 -1.2697 -0.2475
 9446TIP3    H249830   0.697   4.061  11.426 -0.7539 -0.9666  0.3178
 9447TIP3   OH249831   0.368   4.629  14.177  0.2680  0.3077  0.9674
 9447TIP3    H149832   0.462   4.629  14.197  0.0684  1.7605  1.9535
 9447TIP3    H249833   0.326   4.653  14.260 -1.0350 -1.1492  0.7542
 9448TIP3   OH249834   1.138   6.769  16.911  0.5866  0.6401  0.8007
 9448TIP3    H149835   1.151   6.700  16.976  1.7653  0.7578  0.7131
 9448TIP3    H249836   1.061   6.817  16.942  0.0703 -0.3861  1.1437
 9449TIP3   OH249837   6.016   0.310   2.241  0.0231  0.2170 -0.5488
 9449TIP3    H149838   6.016   0.263   2.158 -3.6206  0.7357 -0.9181
 9449TIP3    H249839   6.049   0.247   2.305 -0.1855 -1.2318 -1.8603
 9450TIP3   OH249840   1.593   4.995  11.217  0.7047 -0.0552 -0.2331
 9450TIP3    H149841   1.561   5.057  11.152  0.0169  0.3100  0.4354
 9450TIP3    H249842   1.519   4.935  11.232 -0.1017  1.4323  2.1048
 9451TIP3   OH249843   5.387   3.155   5.842  0.1683 -0.4974  1.4883
 9451TIP3    H149844   5.376   3.241   5.801 -3.1249 -2.5906 -2.3631
 9451TIP3    H249845   5.323   3.153   5.912 -1.1107 -0.4665  0.3447
 9452TIP3   OH249846   2.880   2.474   2.997  0.0051  0.3234 -0.2112
 9452TIP3    H149847   2.873   2.493   3.090 -2.0250 -0.6357 -0.1442
 9452TIP3    H249848   2.935   2.544   2.962  0.8783  0.6167  1.7136
 9453TIP3   OH249849   2.805   4.183   4.266 -0.2114 -0.3458 -0.1261
 9453TIP3    H149850   2.761   4.182   4.181 -0.3050  0.1601 -0.0860
 9453TIP3    H249851   2.875   4.247   4.256 -0.3128 -0.1771  0.2223
 9454TIP3   OH249852   5.903   3.485  13.661 -0.4242  0.6344  0.3941
 9454TIP3    H149853   5.898   3.579  13.676  1.4275  0.5759  1.5365
 9454TIP3    H249854   5.984   3.457  13.706  1.1197 -0.8676 -3.1191
 9455TIP3   OH249855   0.288   1.706   6.279 -0.0518 -0.1480  0.4718
 9455TIP3    H149856   0.379   1.736   6.278 -0.8383  2.3400  0.8561
 9455TIP3    H249857   0.254   1.730   6.193 -0.6632 -0.0276  0.7455
 9456TIP3   OH249858   0.324   4.197  13.890 -0.1417 -0.3032 -0.2772
 9456TIP3    H149859   0.381   4.191  13.814 -0.0021  2.8847 -0.4999
 9456TIP3    H249860   0.330   4.289  13.917 -2.2483 -0.7732  1.9749
 9457TIP3   OH249861   6.318   4.144  14.153  0.3576  0.4682 -0.3778
 9457TIP3    H149862   6.373   4.218  14.127 -0.1830  0.5743 -1.2300
 9457TIP3    H249863   6.237   4.184  14.184  0.4846  0.2796  0.2058
 9458TIP3   OH249864   3.104   3.600   5.818  0.5932  0.2947  0.4473
 9458TIP3    H149865   3.153   3.528   5.779 -0.0785  0.6179 -1.0449
 9458TIP3    H249866   3.118   3.674   5.759 -2.7853  0.0167 -0.8585
 9459TIP3   OH249867   5.403   3.532  12.068  0.0471 -0.0407  0.0272
 9459TIP3    H149868   5.482   3.560  12.115 -0.4016  1.2679  0.0438
 9459TIP3    H249869   5.363   3.467  12.125  1.1705 -0.7861 -0.0278
 9460TIP3   OH249870   1.982   5.979  14.460 -1.4881 -0.1881 -0.4758
 9460TIP3    H149871   1.978   5.940  14.548 -0.0499 -1.4745 -0.9472
 9460TIP3    H249872   1.962   6.071  14.474  2.4058  0.4466  1.8328
 9461TIP3   OH249873   0.997   1.967  14.690  0.1467  0.4783  0.3784
 9461TIP3    H149874   0.949   2.024  14.630  3.9520 -0.0591 -3.3946
 9461TIP3    H249875   0.941   1.890  14.699 -1.2245  1.2631 -1.2266
 9462TIP3   OH249876   0.453   4.051   4.998 -0.2709  0.1759 -0.2308
 9462TIP3    H149877   0.506   3.972   4.989 -0.3452  0.2094 -0.9665
 9462TIP3    H249878   0.395   4.033   5.072 -0.5867 -0.6284 -0.6766
 9463TIP3   OH249879   3.093   2.334  15.158 -0.4604  0.0742 -0.3691
 9463TIP3    H149880   3.033   2.270  15.199  0.8896 -1.1169 -0.2095
 9463TIP3    H249881   3.078   2.324  15.064  0.6579 -1.4461 -0.4190
 9464TIP3   OH249882   1.572   3.167  12.162  0.4452 -0.1486 -0.0631
 9464TIP3    H149883   1.565   3.094  12.101 -1.6272 -0.9980  1.1403
 9464TIP3    H249884   1.621   3.131  12.236 -1.4276 -0.6428  0.9611
 9465TIP3   OH249885   4.716   1.797  16.940  0.2227 -0.7463  0.1055
 9465TIP3    H149886   4.656   1.865  16.967 -0.0169  0.2798 -2.8409
 9465TIP3    H249887   4.661   1.731  16.898  0.4303 -2.8685  3.0327
 9466TIP3   OH249888   6.487   4.041   3.574 -0.2437  0.0971 -0.4308
 9466TIP3    H149889   6.535   3.981   3.631  1.0860  0.7330 -0.8359
 9466TIP3    H249890   6.527   4.028   3.487 -2.4468 -1.0838 -1.2921
 9467TIP3   OH249891   5.591   1.328  11.398 -0.3767 -0.0629  0.6578
 9467TIP3    H149892   5.621   1.387  11.329 -0.3965 -0.2210  0.5157
 9467TIP3    H249893   5.649   1.346  11.472  1.4705 -1.9047 -0.3051
 9468TIP3   OH249894   5.309   2.765  14.454  0.2792 -0.2591  0.3242
 9468TIP3    H149895   5.321   2.850  14.496  0.0026  1.3260 -2.6871
 9468TIP3    H249896   5.219   2.740  14.476  0.9324 -0.7098  2.7305
 9469TIP3   OH249897   5.049   2.377  17.092 -0.3914  0.1221  0.6630
 9469TIP3    H149898   5.065   2.370  17.186 -0.4753  2.1981  0.8566
 9469TIP3    H249899   4.971   2.433  17.085  0.7856  1.6341 -0.6885
 9470TIP3   OH249900   4.662   3.344  13.268  0.3095 -0.4500 -0.0272
 9470TIP3    H149901   4.713   3.403  13.213  0.1858 -1.5918 -1.3917
 9470TIP3    H249902   4.724   3.278  13.298  0.2291 -0.2253  0.6529
 9471TIP3   OH249903   1.871   4.054  13.747 -0.1058 -0.1638 -0.2228
 9471TIP3    H149904   1.855   4.021  13.658  2.7708  0.8057 -1.1722
 9471TIP3    H249905   1.834   4.142  13.748 -1.4050 -0.7044  0.0122
 9472TIP3   OH249906   2.950   6.096   3.416  0.6459  0.0298 -0.4421
 9472TIP3    H149907   2.875   6.137   3.460  0.9695  0.2134 -0.0496
 9472TIP3    H249908   3.006   6.066   3.488 -0.1594 -2.1860 -0.7030
 9473TIP3   OH249909   3.926   4.121  15.493 -0.5449 -0.0161  1.2172
 9473TIP3    H149910   3.856   4.078  15.542 -0.2639  0.9918  2.5028
 9473TIP3    H249911   3.886   4.202  15.460 -0.5702 -0.4207  0.2263
 9474TIP3   OH249912   2.034   4.315  12.717 -0.3642  0.0258  0.4208
 9474TIP3    H149913   2.025   4.394  12.664  0.0638 -0.2736 -0.0998
 9474TIP3    H249914   2.025   4.346  12.807 -0.3195  0.6535  0.2145
 9475TIP3   OH249915   0.349   4.616   1.266  0.1966 -0.4720 -0.4903
 9475TIP3    H149916   0.358   4.675   1.191  0.7601 -1.1133 -0.9350
 9475TIP3    H249917   0.297   4.665   1.329  0.1440  0.2676 -1.1019
 9476TIP3   OH249918   1.198   0.131   4.256  0.9165 -0.0475 -0.1265
 9476TIP3    H149919   1.130   0.080   4.300  0.8631  0.8934  0.8788
 9476TIP3    H249920   1.172   0.222   4.268  1.3921  0.2619 -1.3148
 9477TIP3   OH249921   2.520   4.647   0.127 -0.0986 -0.2971  0.3425
 9477TIP3    H149922   2.550   4.594   0.053  1.5163  0.2668  0.5512
 9477TIP3    H249923   2.600   4.690   0.159 -1.3627  2.3476  0.0971
 9478TIP3   OH249924   1.946   1.947   5.879  0.1384 -0.0468  0.4485
 9478TIP3    H149925   1.886   1.874   5.868 -0.3260  0.2607  0.9736
 9478TIP3    H249926   2.027   1.918   5.835 -1.0710  0.4053 -2.1806
 9479TIP3   OH249927   5.258   5.696   0.572  0.5554  0.7239  0.0009
 9479TIP3    H149928   5.299   5.740   0.647 -1.3022  0.7860  1.0099
 9479TIP3    H249929   5.249   5.605   0.600 -0.7438  0.8833  0.1053
 9480TIP3   OH249930   3.426   1.421   4.347  0.5048  0.4531  0.1437
 9480TIP3    H149931   3.411   1.386   4.259 -0.3226  0.2287  0.3644
 9480TIP3    H249932   3.384   1.507   4.347  0.6662  0.5334  0.2649
 9481TIP3   OH249933   2.970   1.934   1.090  0.2656 -0.2857 -0.1460
 9481TIP3    H149934   2.905   1.936   1.020  0.2571  0.0432 -0.1275
 9481TIP3    H249935   3.006   2.023   1.092 -0.0350 -0.1771  0.5575
 9482TIP3   OH249936   6.551   1.959  15.384  0.2273  0.3953 -0.5643
 9482TIP3    H149937   6.470   2.005  15.403 -0.6135 -1.1109 -0.4271
 9482TIP3    H249938   6.584   1.932  15.469  0.0104 -0.4374 -0.7453
 9483TIP3   OH249939   2.197   1.612  12.328 -1.0310 -0.1881 -0.0801
 9483TIP3    H149940   2.291   1.621  12.342 -0.5928 -2.0956 -1.5042
 9483TIP3    H249941   2.165   1.564  12.405 -1.0597  1.4900  0.9685
 9484TIP3   OH249942   2.213   0.580  10.653  0.1694  0.1052 -0.4434
 9484TIP3    H149943   2.231   0.625  10.570  0.5702  1.7834  0.5429
 9484TIP3    H249944   2.184   0.649  10.712  1.8300 -0.7306  1.4126
 9485TIP3   OH249945   4.529   4.051  11.730  0.3792  0.5797 -0.3611
 9485TIP3    H149946   4.573   4.132  11.753  1.5108 -0.0757 -0.2103
 9485TIP3    H249947   4.599   3.987  11.719 -0.5995 -0.8220  1.3230
 9486TIP3   OH249948   1.245   3.754   3.514  0.2231  0.3479  0.6344
 9486TIP3    H149949   1.279   3.806   3.587  0.7886  2.5105 -1.1092
 9486TIP3    H249950   1.151   3.749   3.530  0.1611  1.9185  0.8448
 9487TIP3   OH249951   1.552   3.733  11.117 -0.1207  0.0839 -0.7027
 9487TIP3    H149952   1.635   3.767  11.084 -0.9852  2.0799 -0.9494
 9487TIP3    H249953   1.513   3.808  11.163 -0.9421 -1.3582  1.0038
 9488TIP3   OH249954   5.730   2.384   2.494  0.1344  0.5177 -0.2327
 9488TIP3    H149955   5.696   2.447   2.558 -0.8269 -0.5078  0.2798
 9488TIP3    H249956   5.726   2.300   2.539  1.6778  0.1098 -0.8155
 9489TIP3   OH249957   1.489   2.517   5.071 -0.7322 -0.2181 -0.0105
 9489TIP3    H149958   1.516   2.515   5.163  2.4048  0.1335 -0.8639
 9489TIP3    H249959   1.509   2.606   5.042 -2.0437 -0.2179 -0.9738
 9490TIP3   OH249960   0.685   6.052   2.041  0.6214  0.1773 -0.1651
 9490TIP3    H149961   0.620   6.122   2.051  0.9669  0.5209 -0.3555
 9490TIP3    H249962   0.752   6.089   1.984 -1.0160 -1.5729 -3.3253
 9491TIP3   OH249963   4.149   5.844   0.523 -0.6702 -0.2632  0.5797
 9491TIP3    H149964   4.182   5.931   0.546 -1.3188  0.2250 -0.3074
 9491TIP3    H249965   4.147   5.797   0.607 -1.0951  0.8347  1.2102
 9492TIP3   OH249966   4.848   4.145   1.802 -0.0080  0.1591 -0.6956
 9492TIP3    H149967   4.793   4.067   1.793  0.3027  0.0136 -1.3908
 9492TIP3    H249968   4.842   4.169   1.894 -0.5815 -0.3412 -0.6035
 9493TIP3   OH249969   1.505   5.332  14.588  0.4066 -0.1747 -0.0743
 9493TIP3    H149970   1.595   5.338  14.555  0.7598 -3.1787  0.1429
 9493TIP3    H249971   1.486   5.238  14.585 -2.9517  0.4735 -0.6953
 9494TIP3   OH249972   4.460   5.278  16.076  0.1186  0.9825  0.3855
 9494TIP3    H149973   4.466   5.345  16.145  2.0529  0.0761  1.1110
 9494TIP3    H249974   4.390   5.310  16.019 -1.1392  2.0430  2.4415
 9495TIP3   OH249975   6.085   5.055  15.749  1.1917 -0.1544 -0.7163
 9495TIP3    H149976   6.047   5.025  15.832  1.2198  0.6639 -0.3968
 9495TIP3    H249977   6.015   5.045  15.685  0.5099  1.1017 -0.1819
 9496TIP3   OH249978   1.964   3.267   2.303 -0.1503 -0.6576 -0.8097
 9496TIP3    H149979   2.029   3.293   2.239 -2.4344  0.2249 -2.8354
 9496TIP3    H249980   1.988   3.177   2.326  2.0719 -0.1673 -1.0657
 9497TIP3   OH249981   1.505   6.808  11.797  0.3230 -0.0441 -0.4928
 9497TIP3    H149982   1.546   6.833  11.880 -1.8152 -1.7993  1.1592
 9497TIP3    H249983   1.564   6.842  11.730  0.8907  3.5101  1.6879
 9498TIP3   OH249984   3.320   5.306   2.977  0.5660 -0.3313  0.3940
 9498TIP3    H149985   3.410   5.334   2.961  0.5787 -0.2827  0.5424
 9498TIP3    H249986   3.313   5.304   3.073  0.5935 -0.9175  0.3842
 9499TIP3   OH249987   5.599   3.889  13.623  0.1846  0.0658  0.4524
 9499TIP3    H149988   5.568   3.968  13.669  2.4384  0.1098  1.9846
 9499TIP3    H249989   5.560   3.816  13.671 -1.1735  0.2285 -0.4060
 9500TIP3   OH249990   4.195   2.173   4.521 -0.0441  0.2646 -0.2542
 9500TIP3    H149991   4.145   2.219   4.454  2.3976 -0.2720 -2.5258
 9500TIP3    H249992   4.131   2.118   4.566 -1.6392  0.3321 -2.3920
 9501TIP3   OH249993   5.510   3.781   4.508 -0.4355  0.1492  0.7372
 9501TIP3    H149994   5.603   3.804   4.515 -0.1219 -1.0932  0.9359
 9501TIP3    H249995   5.463   3.860   4.533  0.5894  0.1962  2.6082
 9502TIP3   OH249996   5.487   6.266   2.889  0.2540 -0.2065  0.2073
 9502TIP3    H149997   5.433   6.217   2.952  0.0244  0.3541  0.4437
 9502TIP3    H249998   5.550   6.201   2.858 -0.9681 -1.0581 -0.5784
 9503TIP3   OH249999   6.543   2.166   1.990 -0.5377 -0.0388 -0.1160
 9503TIP3    H150000   6.506   2.213   1.915 -0.8360  0.3528  0.2767
 9503TIP3    H250001   6.527   2.224   2.064  0.4664 -0.0756  0.1255
 9504TIP3   OH250002   4.612   3.052  14.264  0.1399  0.3053  0.1513
 9504TIP3    H150003   4.522   3.023  14.251  0.0326  1.4264 -1.9004
 9504TIP3    H250004   4.637   3.017  14.349 -2.2877  0.1094  0.8152
 9505TIP3   OH250005   5.979   3.312  16.918 -0.5653 -0.4504  0.5304
 9505TIP3    H150006   6.021   3.265  16.846  0.8803  0.3394  0.8559
 9505TIP3    H250007   5.987   3.253  16.993 -3.4776 -1.9822 -0.2548
 9506TIP3   OH250008   6.026   2.220  16.042  0.1126  0.3044  0.6633
 9506TIP3    H150009   5.950   2.205  16.097 -0.2613  0.8003  0.2937
 9506TIP3    H250010   6.017   2.311  16.013  0.0031 -0.1163 -0.6547
 9507TIP3   OH250011   4.731   0.183  16.031 -0.6444  0.0561  0.5669
 9507TIP3    H150012   4.680   0.237  15.971 -1.8687 -1.7292 -0.0372
 9507TIP3    H250013   4.806   0.154  15.979 -0.7386  0.0008  0.4628
 9508TIP3   OH250014   1.367   0.509  14.909  0.1446  0.1726 -0.2587
 9508TIP3    H150015   1.409   0.578  14.962 -0.5610  0.1767  0.2961
 9508TIP3    H250016   1.337   0.445  14.973  0.1805 -0.3211 -0.7315
 9509TIP3   OH250017   2.519   2.185  14.319 -0.2040 -0.1649 -0.0206
 9509TIP3    H150018   2.601   2.214  14.278  0.2644 -3.4289 -1.5315
 9509TIP3    H250019   2.458   2.257  14.303  1.2803  0.6658 -2.2848
 9510TIP3   OH250020   6.544   2.606  12.691  0.7008  0.3133 -0.1371
 9510TIP3    H150021   6.629   2.605  12.733 -0.1327 -1.1118  1.5609
 9510TIP3    H250022   6.483   2.576  12.758 -0.9472 -0.0205 -1.7346
 9511TIP3   OH250023   1.829   2.430   4.396  0.0706 -0.1972  0.3304
 9511TIP3    H150024   1.888   2.422   4.472  1.4808  0.0984 -0.7167
 9511TIP3    H250025   1.888   2.441   4.321 -1.3324  0.2802 -0.7169
 9512TIP3   OH250026   1.685   3.252   4.637  0.2930 -0.3809 -0.6391
 9512TIP3    H150027   1.626   3.309   4.588 -0.4322 -1.0702 -0.5707
 9512TIP3    H250028   1.728   3.310   4.700 -2.8348 -0.4515  1.6695
 9513TIP3   OH250029   2.982   4.572   3.667 -0.2275  0.2885  0.5474
 9513TIP3    H150030   3.028   4.619   3.598  0.2119  0.4967  0.9782
 9513TIP3    H250031   2.890   4.576   3.642  0.0564 -0.8025 -0.7304
 9514TIP3   OH250032   2.462   1.404   1.361  0.5246  0.2629 -0.0230
 9514TIP3    H150033   2.417   1.335   1.313 -1.6604  1.1537  0.7051
 9514TIP3    H250034   2.427   1.486   1.325  0.9081  0.9617  1.1536
 9515TIP3   OH250035   3.905   4.635   3.816 -0.2479 -0.3102 -0.6448
 9515TIP3    H150036   3.983   4.599   3.772  1.4097  1.7144  0.5168
 9515TIP3    H250037   3.845   4.656   3.745  0.1946 -2.0437 -1.5642
 9516TIP3   OH250038   5.002   3.083   0.396 -0.2072  0.1518 -0.3344
 9516TIP3    H150039   4.915   3.098   0.358 -0.5657 -0.2471  0.3115
 9516TIP3    H250040   5.008   3.144   0.468 -0.2102 -0.2707  0.0256
 9517TIP3   OH250041   1.873   3.809  12.899  0.4073 -0.2890  0.4290
 9517TIP3    H150042   1.832   3.821  12.814  0.8873  0.5562  0.3079
 9517TIP3    H250043   1.800   3.801  12.960  0.0549  1.1080  0.2004
 9518TIP3   OH250044   4.456   0.938   5.520 -0.0467 -0.0912  0.2946
 9518TIP3    H150045   4.434   0.877   5.450 -2.3120  0.6442  0.3391
 9518TIP3    H250046   4.548   0.920   5.539  0.0303 -1.6982 -1.4612
 9519TIP3   OH250047   5.959   1.566   5.229 -0.3158 -0.4381 -0.3808
 9519TIP3    H150048   5.885   1.614   5.191 -0.5522  0.0183  0.6423
 9519TIP3    H250049   5.920   1.513   5.299  0.2471 -0.5590 -0.1517
 9520TIP3   OH250050   1.941   1.410  16.798  0.2433 -0.4066  0.1308
 9520TIP3    H150051   1.862   1.461  16.783  0.0444 -0.8287 -0.2671
 9520TIP3    H250052   2.012   1.466  16.766  0.1133 -0.0081  0.5372
 9521TIP3   OH250053   5.182   6.092   4.461 -0.2382 -0.3982  0.1781
 9521TIP3    H150054   5.172   6.067   4.369 -1.0614  0.8983 -0.0910
 9521TIP3    H250055   5.096   6.126   4.486  0.0166 -0.6341  1.4032
 9522TIP3   OH250056   4.681   3.833  12.441 -0.5541 -0.1649  0.0046
 9522TIP3    H150057   4.610   3.895  12.458 -0.3069  0.4074 -0.9955
 9522TIP3    H250058   4.757   3.873  12.483 -0.5365 -0.1074 -0.0802
 9523TIP3   OH250059   4.992   5.584   3.427  0.0149 -0.4665  0.0951
 9523TIP3    H150060   5.014   5.677   3.417  1.7412 -0.6215  2.2036
 9523TIP3    H250061   4.949   5.561   3.344 -0.8413  2.3119 -0.2779
 9524TIP3   OH250062   3.563   1.393  11.600  0.2518 -0.4401 -0.0027
 9524TIP3    H150063   3.542   1.310  11.644 -1.6529  0.5642  1.0608
 9524TIP3    H250064   3.478   1.435  11.588  0.9789  0.3897 -2.5252
 9525TIP3   OH250065   2.249   3.042  12.411  0.0335  0.5544  0.0202
 9525TIP3    H150066   2.329   3.056  12.461 -0.7306  0.5101  1.3013
 9525TIP3    H250067   2.223   2.953  12.432  0.3458  0.1098 -1.4338
 9526TIP3   OH250068   3.973   3.824  13.769  0.0901 -0.0902 -0.3396
 9526TIP3    H150069   4.059   3.805  13.732  0.7887 -0.2877  1.3610
 9526TIP3    H250070   3.930   3.879  13.703  2.7813  2.8398  0.2695
 9527TIP3   OH250071   5.068   6.743  16.285  0.4121  0.5097  0.3051
 9527TIP3    H150072   5.015   6.790  16.221  0.6057  0.9070  0.4396
 9527TIP3    H250073   5.153   6.731  16.242  0.6607  1.1001  0.6250
 9528TIP3   OH250074   5.085   4.215  15.000 -0.3453 -0.2353  0.0041
 9528TIP3    H150075   5.130   4.296  14.977 -1.0617  0.6348  1.6076
 9528TIP3    H250076   5.153   4.147  14.990  0.5462  0.6841 -0.3258
 9529TIP3   OH250077   0.472   5.877  14.304 -0.2245 -0.2682  0.7456
 9529TIP3    H150078   0.490   5.791  14.342  0.1710  0.1638  1.5312
 9529TIP3    H250079   0.439   5.929  14.377 -1.0328  0.0771  0.1422
 9530TIP3   OH250080   0.845   0.586   3.051  0.1280 -0.0951  0.0207
 9530TIP3    H150081   0.863   0.612   3.142  0.5568  1.9299 -0.6120
 9530TIP3    H250082   0.888   0.501   3.041  1.4458  0.4073  1.2600
 9531TIP3   OH250083   1.767   5.457   1.270 -0.9081  0.2254  0.3290
 9531TIP3    H150084   1.797   5.537   1.313  1.2387  0.0367 -0.7640
 9531TIP3    H250085   1.847   5.409   1.251 -2.2463 -2.8850  2.2594
 9532TIP3   OH250086   6.473   4.408   1.957  0.0832  0.0262  0.3231
 9532TIP3    H150087   6.528   4.352   2.012  1.2091 -0.5816 -1.3786
 9532TIP3    H250088   6.469   4.491   2.004  0.4415 -0.7133  1.6693
 9533TIP3   OH250089   5.221   5.122   4.534 -0.4218  0.0610 -0.4059
 9533TIP3    H150090   5.202   5.178   4.609 -0.4609 -0.8578  0.2880
 9533TIP3    H250091   5.308   5.150   4.505  0.3313 -0.6696  1.0355
 9534TIP3   OH250092   3.743   0.670  17.015  0.0868 -0.5075 -0.3479
 9534TIP3    H150093   3.801   0.746  17.020  0.9913 -1.2572  1.1209
 9534TIP3    H250094   3.793   0.600  17.057 -0.8008 -1.8661 -1.5424
 9535TIP3   OH250095   0.788   6.242  13.403 -0.0013 -0.8186 -0.6453
 9535TIP3    H150096   0.756   6.332  13.403  0.6667 -0.5774 -0.1149
 9535TIP3    H250097   0.808   6.224  13.495 -0.9502 -1.7990 -0.6210
 9536TIP3   OH250098   3.658   5.792  16.595  0.0425 -1.0432 -0.2258
 9536TIP3    H150099   3.632   5.770  16.685  0.9161 -0.8948  0.0599
 9536TIP3    H250100   3.689   5.882  16.600 -0.2899 -0.8924 -0.7599
 9537TIP3   OH250101   1.319   0.411   5.189  0.3574  0.3020 -0.4904
 9537TIP3    H150102   1.238   0.389   5.142  0.4795  2.7871 -1.9402
 9537TIP3    H250103   1.299   0.394   5.281 -1.2937 -0.5782 -0.9846
 9538TIP3   OH250104   6.761   4.556  13.606 -0.1008  0.2065 -0.3143
 9538TIP3    H150105   6.715   4.502  13.670  0.9825 -0.2085  0.1067
 9538TIP3    H250106   6.809   4.620  13.658 -1.1371  1.4183 -0.7971
 9539TIP3   OH250107   5.949   1.401   4.606  0.4391  0.0396 -0.3922
 9539TIP3    H150108   5.995   1.467   4.555  0.1606  0.6091  0.0902
 9539TIP3    H250109   5.948   1.436   4.695  0.1337 -0.5314 -0.1691
 9540TIP3   OH250110   6.493   4.763   0.380 -0.2758 -0.8386 -0.8457
 9540TIP3    H150111   6.510   4.716   0.299 -0.9394 -2.0388 -0.2868
 9540TIP3    H250112   6.398   4.769   0.385 -0.2055  1.3318 -1.3376
 9541TIP3   OH250113   0.352   3.551   4.596 -0.6917 -0.3213 -0.4229
 9541TIP3    H150114   0.387   3.634   4.564 -1.9029  0.9220  1.3425
 9541TIP3    H250115   0.427   3.507   4.636 -0.0282 -0.0988 -1.4129
 9542TIP3   OH250116   0.164   2.341   2.718  0.0514  0.5162 -0.3300
 9542TIP3    H150117   0.087   2.341   2.662 -0.5584 -0.5701  0.4950
 9542TIP3    H250118   0.228   2.287   2.671  0.0734  0.8477 -0.6844
 9543TIP3   OH250119   2.820   3.021   2.974  0.6935 -0.7278  0.4249
 9543TIP3    H150120   2.863   3.096   3.015  0.8436 -0.8750  0.5349
 9543TIP3    H250121   2.799   3.051   2.886 -1.6799  0.3793  1.3183
 9544TIP3   OH250122   2.316   3.193   4.096 -0.2361 -0.2208  0.0094
 9544TIP3    H150123   2.411   3.202   4.100 -0.1329 -0.3286 -1.7713
 9544TIP3    H250124   2.295   3.196   4.002 -2.1042  0.9647  0.4361
 9545TIP3   OH250125   3.756   1.294  17.066  0.0673  0.0577 -0.5631
 9545TIP3    H150126   3.746   1.308  17.160  1.2157  1.0892 -0.5756
 9545TIP3    H250127   3.736   1.380  17.027 -1.8543 -0.7248 -1.3824
 9546TIP3   OH250128   1.629   1.168   3.195  0.2060  0.4200  0.6844
 9546TIP3    H150129   1.591   1.253   3.175  1.5330  1.3637  2.0703
 9546TIP3    H250130   1.595   1.146   3.282  0.0414 -0.3605  0.4247
 9547TIP3   OH250131   6.395   4.925   2.047 -0.3203 -0.0906 -0.4828
 9547TIP3    H150132   6.438   4.885   1.971  0.7193 -2.7885  1.4336
 9547TIP3    H250133   6.462   4.922   2.116 -1.7594  0.8384  0.9798
 9548TIP3   OH250134   4.873   2.585   5.181 -0.1876 -0.4958  0.2845
 9548TIP3    H150135   4.883   2.679   5.190  0.0883 -0.3442 -1.5666
 9548TIP3    H250136   4.954   2.555   5.141  0.0510 -1.6416  1.5782
 9549TIP3   OH250137   4.134   0.722   0.200  0.4654 -0.1963 -0.7914
 9549TIP3    H150138   4.132   0.812   0.232  0.9055 -0.4672 -0.0112
 9549TIP3    H250139   4.150   0.732   0.106  1.3720  0.5129 -0.5718
 9550TIP3   OH250140   0.094   2.286   3.472 -0.1743 -0.1745 -0.5097
 9550TIP3    H150141   0.176   2.329   3.448  0.6444 -1.5301 -0.2316
 9550TIP3    H250142   0.034   2.306   3.401  1.1052 -1.0707 -1.8734
 9551TIP3   OH250143   5.100   0.168  16.614  0.6684  0.0301 -0.5580
 9551TIP3    H150144   5.119   0.244  16.559 -1.2312  1.5264  0.7588
 9551TIP3    H250145   5.181   0.152  16.662  0.8505  1.7444 -0.2711
 9552TIP3   OH250146   1.090   2.571  12.180  0.6997 -0.0685 -0.0768
 9552TIP3    H150147   1.054   2.650  12.140  1.5484  1.7068  2.5670
 9552TIP3    H250148   1.184   2.577  12.165  0.9004  0.0554  1.1955
 9553TIP3   OH250149   2.045   2.189   2.253  0.3713  0.3944 -0.0051
 9553TIP3    H150150   2.114   2.242   2.293 -0.3858  0.2510  1.5275
 9553TIP3    H250151   2.008   2.246   2.185  0.4922  1.3203  0.6881
 9554TIP3   OH250152   1.867   2.704  14.243  0.0429  0.0179 -0.1071
 9554TIP3    H150153   1.936   2.768  14.259  2.5285 -2.0052 -2.3952
 9554TIP3    H250154   1.827   2.732  14.160  0.2751 -0.6489 -0.4441
 9555TIP3   OH250155   2.682   2.590  12.949 -1.1187  0.1498  0.7178
 9555TIP3    H150156   2.615   2.655  12.969 -1.1853  0.2342  0.2267
 9555TIP3    H250157   2.657   2.554  12.864 -0.6434  0.0536  0.6128
 9556TIP3   OH250158   2.211   6.260  12.967  0.4523 -0.3703 -0.4538
 9556TIP3    H150159   2.211   6.229  13.058 -0.5412  0.1261 -0.2836
 9556TIP3    H250160   2.303   6.279  12.949  0.5435  0.3348  0.7230
 9557TIP3   OH250161   3.063   0.031   0.570  0.0529  0.2693 -0.5282
 9557TIP3    H150162   3.052  -0.023   0.492 -0.0297  1.0869 -1.0864
 9557TIP3    H250163   3.032   0.118   0.544 -2.4423 -0.0469  1.1736
 9558TIP3   OH250164   6.001   2.199  11.208  0.3147 -0.4921 -0.0523
 9558TIP3    H150165   5.911   2.164  11.207  0.4827 -0.9654  1.1263
 9558TIP3    H250166   6.014   2.229  11.297 -0.0836  3.3325 -1.1772
 9559TIP3   OH250167   6.719   4.977  11.375  1.0141 -0.1837 -0.4701
 9559TIP3    H150168   6.625   4.992  11.389  0.5505 -1.7522 -1.7000
 9559TIP3    H250169   6.755   4.968  11.463 -0.1505 -0.4227 -0.0072
 9560TIP3   OH250170   4.980   0.410  16.059 -0.2015 -0.3642 -0.5441
 9560TIP3    H150171   4.969   0.443  15.970  0.0966 -0.7707 -0.7253
 9560TIP3    H250172   4.923   0.467  16.112  0.9438  1.0006 -0.7308
 9561TIP3   OH250173   1.629   5.039  10.779 -0.5856  0.1292  0.2863
 9561TIP3    H150174   1.608   5.122  10.737  2.0897  0.8347  0.2727
 9561TIP3    H250175   1.724   5.041  10.790 -0.6260 -2.4190  1.3698
 9562TIP3   OH250176   3.399   0.881   2.150 -0.3145  0.1810  0.1536
 9562TIP3    H150177   3.309   0.885   2.117  0.6275  0.3780 -2.4670
 9562TIP3    H250178   3.398   0.935   2.229 -3.3635 -2.8203  2.3244
 9563TIP3   OH250179   6.506   3.320  10.442 -0.2599  0.3098  0.6031
 9563TIP3    H150180   6.533   3.341  10.532 -0.5932 -0.3045  0.8479
 9563TIP3    H250181   6.442   3.388  10.420 -0.7602  0.0110  1.1160
 9564TIP3   OH250182   2.311   5.157   1.685  0.2040  0.3563  0.0424
 9564TIP3    H150183   2.290   5.140   1.593  0.2683 -1.0742  0.2777
 9564TIP3    H250184   2.387   5.216   1.683  0.4145  0.0529 -0.8174
 9565TIP3   OH250185   5.594   0.998   3.810 -0.3433  0.2898 -0.3029
 9565TIP3    H150186   5.622   1.056   3.881 -1.7830  1.6662 -0.8466
 9565TIP3    H250187   5.644   0.917   3.824  2.6432  2.0737 -0.2703
 9566TIP3   OH250188   3.261   1.849   5.821 -0.0887  0.0680  0.0360
 9566TIP3    H150189   3.312   1.772   5.794  1.6485  1.6304 -1.3275
 9566TIP3    H250190   3.304   1.880   5.901 -1.0582 -0.6267  0.8303
 9567TIP3   OH250191   2.691   4.579  14.580  0.2358 -0.0870  0.5247
 9567TIP3    H150192   2.648   4.548  14.500  1.3172 -2.1249  0.7042
 9567TIP3    H250193   2.774   4.530  14.583 -0.2223 -0.7752  3.3696
 9568TIP3   OH250194   3.900   4.696   4.952 -0.0797 -1.2142  0.0142
 9568TIP3    H150195   3.847   4.659   4.881  0.4250  0.0550 -1.0624
 9568TIP3    H250196   3.940   4.621   4.995 -1.9051 -2.1113  0.1449
 9569TIP3   OH250197   3.718   0.471  13.630 -0.3310 -0.0503 -0.3391
 9569TIP3    H150198   3.642   0.519  13.663 -0.1930 -0.0717  0.0123
 9569TIP3    H250199   3.772   0.456  13.707  0.7806  1.3239 -0.8127
 9570TIP3   OH250200   1.447   3.478   1.604 -0.2109 -0.4454  0.3841
 9570TIP3    H150201   1.364   3.490   1.651  0.0522 -3.1396  1.6526
 9570TIP3    H250202   1.493   3.411   1.654  1.6687 -0.7676 -1.6998
 9571TIP3   OH250203   2.441   5.851   4.741 -0.1054  0.4212  0.4756
 9571TIP3    H150204   2.414   5.828   4.830 -1.7277  1.5274  0.3078
 9571TIP3    H250205   2.398   5.935   4.724  0.5901  0.4709 -1.1714
 9572TIP3   OH250206   4.215   1.341  12.357 -0.0004  0.0024  0.4146
 9572TIP3    H150207   4.255   1.395  12.289  0.8046  0.8942  1.5911
 9572TIP3    H250208   4.285   1.282  12.385 -0.6523 -1.1241 -0.3151
 9573TIP3   OH250209   5.538   1.447   0.120  0.2738 -0.1441  0.8403
 9573TIP3    H150210   5.627   1.461   0.151  0.2546  0.5253  0.5957
 9573TIP3    H250211   5.494   1.531   0.133  0.1419  0.0202 -0.5910
 9574TIP3   OH250212   4.195   6.816   1.991 -0.0859 -0.6196  0.4370
 9574TIP3    H150213   4.193   6.904   2.027 -0.8778 -0.1900 -0.6185
 9574TIP3    H250214   4.110   6.806   1.947 -0.2870 -2.1530  1.1281
 9575TIP3   OH250215   3.723   3.688   0.928 -0.0630 -1.1250  0.2918
 9575TIP3    H150216   3.724   3.779   0.956  2.4063 -0.0271 -3.0798
 9575TIP3    H250217   3.770   3.641   0.996 -1.0813  0.1228  1.8964
 9576TIP3   OH250218   5.029   2.111  14.619 -0.0024  0.0923 -0.0156
 9576TIP3    H150219   5.119   2.078  14.620 -0.3141 -0.8092 -0.4666
 9576TIP3    H250220   5.019   2.156  14.702  0.9480  0.4124 -0.0712
 9577TIP3   OH250221   3.615   1.400  12.103  0.0466 -0.3761 -0.7364
 9577TIP3    H150222   3.606   1.419  12.010 -0.0776  1.8444 -0.2936
 9577TIP3    H250223   3.683   1.460  12.133  0.4978 -1.4824  0.4909
 9578TIP3   OH250224   1.461   2.271  14.566  0.7805 -0.1399 -0.0617
 9578TIP3    H150225   1.379   2.288  14.612  0.0453 -0.5798 -1.1895
 9578TIP3    H250226   1.466   2.175  14.560  0.1075 -0.0647 -2.2151
 9579TIP3   OH250227   3.333   3.635   5.440 -0.0183  0.3447 -0.4671
 9579TIP3    H150228   3.338   3.591   5.355  0.6202  0.7277 -0.6297
 9579TIP3    H250229   3.420   3.625   5.477 -0.3966 -0.1393  0.3096
 9580TIP3   OH250230   0.658   6.694  11.848 -0.4907 -0.2736  0.9264
 9580TIP3    H150231   0.642   6.600  11.839  0.0896 -0.1186 -2.4158
 9580TIP3    H250232   0.581   6.735  11.809 -0.4366  0.6289  1.7633
 9581TIP3   OH250233   6.026   1.747  12.393 -0.3226 -0.5436  0.2638
 9581TIP3    H150234   6.112   1.709  12.376  0.6021  0.3794  2.7807
 9581TIP3    H250235   5.997   1.707  12.475 -2.6308 -1.3706 -0.8948
 9582TIP3   OH250236   0.750   5.866   2.615  0.0896 -0.1978 -0.0469
 9582TIP3    H150237   0.746   5.934   2.547 -1.0568  0.3029  0.4872
 9582TIP3    H250238   0.735   5.914   2.696  0.4054 -0.9397  0.4504
 9583TIP3   OH250239   0.109   6.653  14.640  0.1207 -0.3708 -0.0143
 9583TIP3    H150240   0.029   6.650  14.693 -0.5419  0.0518 -0.9663
 9583TIP3    H250241   0.179   6.671  14.703 -0.4417 -1.4417  0.9299
 9584TIP3   OH250242   6.180   3.030  15.395 -0.4068 -0.3342 -0.1386
 9584TIP3    H150243   6.170   3.121  15.370 -4.0645 -0.6063  0.0839
 9584TIP3    H250244   6.236   3.032  15.472 -0.8598  1.7797  0.1652
 9585TIP3   OH250245   5.694   1.836   4.165 -0.4324 -0.1444  0.3032
 9585TIP3    H150246   5.787   1.844   4.186 -0.1501 -0.5398 -0.7922
 9585TIP3    H250247   5.650   1.833   4.251  0.6759 -1.3930  0.8415
 9586TIP3   OH250248   0.928   6.140   0.149  0.0730  1.0691  0.2268
 9586TIP3    H150249   0.835   6.133   0.124 -0.0017 -1.4237  1.0715
 9586TIP3    H250250   0.925   6.164   0.241  0.2812  0.6985  0.3264
 9587TIP3   OH250251   4.592   5.226   2.485  0.5224  0.4102 -0.1214
 9587TIP3    H150252   4.664   5.288   2.499  1.1497 -0.3606  0.1815
 9587TIP3    H250253   4.601   5.198   2.394  0.4979  0.4583 -0.1385
 9588TIP3   OH250254   6.363   5.187  11.363  0.2913  0.6302 -0.0228
 9588TIP3    H150255   6.272   5.217  11.362  0.0212 -0.0077  2.4872
 9588TIP3    H250256   6.359   5.098  11.328 -0.5206 -0.4953  2.8015
 9589TIP3   OH250257   1.425   5.859   5.145 -0.0294  0.1787 -0.3175
 9589TIP3    H150258   1.480   5.785   5.119 -1.4323 -0.5953 -1.1580
 9589TIP3    H250259   1.482   5.936   5.137  1.6122 -0.8554  1.1284
 9590TIP3   OH250260   0.685   3.525  16.964  0.4213 -0.9680  0.5859
 9590TIP3    H150261   0.756   3.517  16.900  1.6140 -2.0008  1.9815
 9590TIP3    H250262   0.693   3.446  17.018 -2.1734 -1.3808  0.4259
 9591TIP3   OH250263   4.429   6.471  16.754  0.0572 -0.4319  0.7199
 9591TIP3    H150264   4.488   6.525  16.702  0.0396  0.8205  1.9708
 9591TIP3    H250265   4.361   6.444  16.693 -0.1266  1.2761  0.1503
 9592TIP3   OH250266   3.129   0.019  15.991 -0.3911  0.5218  0.1738
 9592TIP3    H150267   3.119   0.102  15.944  0.1860  0.3242 -0.3055
 9592TIP3    H250268   3.045  -0.025  15.981 -0.5694  0.8739  0.0992
 9593TIP3   OH250269   5.910   5.069   2.097 -0.0656 -0.0357  0.2182
 9593TIP3    H150270   5.920   5.101   2.007 -2.7939 -0.4336 -0.2610
 9593TIP3    H250271   5.982   5.006   2.108  1.1600  1.0779 -1.1725
 9594TIP3   OH250272   0.579   1.905  13.031 -0.5589  0.2427  0.1718
 9594TIP3    H150273   0.572   1.870  12.943 -1.8220  0.2173  0.2836
 9594TIP3    H250274   0.651   1.856  13.071 -0.9121 -0.7181 -0.3795
 9595TIP3   OH250275   1.448   5.065   2.286  0.1501 -0.6515  0.0415
 9595TIP3    H150276   1.391   4.989   2.270 -0.8982 -0.2109  1.6204
 9595TIP3    H250277   1.528   5.027   2.322 -0.0828 -1.0799  0.1130
 9596TIP3   OH250278   5.070   2.100   2.018 -0.1319  0.1563  0.5997
 9596TIP3    H150279   5.144   2.059   2.063  0.2205  1.5468  1.3122
 9596TIP3    H250280   5.095   2.192   2.009 -0.2421 -0.0589 -2.3584
 9597TIP3   OH250281   5.564   6.697  16.228  0.0502 -0.3051  0.8703
 9597TIP3    H150282   5.570   6.787  16.196  1.7443 -0.3297  1.1125
 9597TIP3    H250283   5.516   6.705  16.311  0.0843  0.3644  0.8261
 9598TIP3   OH250284   3.945   3.267   4.164 -0.1422 -0.0514  0.8795
 9598TIP3    H150285   3.934   3.362   4.152  2.1752  0.1689  0.2736
 9598TIP3    H250286   3.861   3.230   4.136 -0.5868  1.7123 -0.2167
 9599TIP3   OH250287   1.870   0.688   5.696 -0.1131  0.1587 -0.2546
 9599TIP3    H150288   1.785   0.677   5.740 -0.1795  0.6262 -0.2599
 9599TIP3    H250289   1.847   0.725   5.610  0.1896  1.6259  0.2811
 9600TIP3   OH250290   2.134   1.446  10.643  0.4222 -0.7055 -0.3250
 9600TIP3    H150291   2.135   1.384  10.570  0.6038 -0.3239 -0.6516
 9600TIP3    H250292   2.139   1.532  10.601 -0.2520 -0.4538  0.0996
 9601TIP3   OH250293   2.584   3.294   0.825 -0.2414 -0.5646 -0.3684
 9601TIP3    H150294   2.553   3.326   0.740  0.4715  0.0288 -0.4063
 9601TIP3    H250295   2.646   3.360   0.855 -1.3141 -0.1946  1.1380
 9602TIP3   OH250296   0.532   5.007   1.169  0.0262 -0.0762 -0.2547
 9602TIP3    H150297   0.553   4.937   1.107 -1.6663  0.4361 -1.4489
 9602TIP3    H250298   0.567   4.976   1.252 -0.8453 -2.4493 -0.7151
 9603TIP3   OH250299   5.221   0.375  12.492  0.3944 -0.7872 -0.2168
 9603TIP3    H150300   5.314   0.351  12.490  0.2015 -1.5929  0.1669
 9603TIP3    H250301   5.189   0.342  12.576  0.2471  1.4109  0.6149
 9604TIP3   OH250302   1.371   5.727   2.068  0.0593 -0.4804 -0.0130
 9604TIP3    H150303   1.456   5.699   2.101  0.2685  1.3452  1.0583
 9604TIP3    H250304   1.308   5.695   2.133  0.0769 -0.4778  0.0051
 9605TIP3   OH250305   4.925   2.429  14.285  0.5723 -0.0187 -0.3180
 9605TIP3    H150306   4.938   2.524  14.281  0.7127  0.1505  2.8020
 9605TIP3    H250307   5.005   2.397  14.327  0.1330 -1.4270 -0.5543
 9606TIP3   OH250308   6.730   2.186  13.476 -0.3481  0.6256  0.2007
 9606TIP3    H150309   6.786   2.189  13.553 -2.2137 -0.0408  1.6095
 9606TIP3    H250310   6.705   2.278  13.461 -1.4437  0.5514  1.4998
 9607TIP3   OH250311   4.746   2.510  13.241  0.1925 -0.2991  0.3392
 9607TIP3    H150312   4.735   2.599  13.275 -1.5641 -0.8420  1.2831
 9607TIP3    H250313   4.805   2.468  13.304  0.7175  0.0897  0.1047
 9608TIP3   OH250314   4.342   4.720  13.983  0.0313  0.3739 -0.1397
 9608TIP3    H150315   4.384   4.667  14.050 -0.0378 -0.0399 -0.4241
 9608TIP3    H250316   4.394   4.801  13.981  2.0352 -0.9021 -1.8508
 9609TIP3   OH250317   0.605   5.687  11.656  0.0309 -0.0883 -0.6333
 9609TIP3    H150318   0.521   5.733  11.657  0.7335  1.2010  0.4544
 9609TIP3    H250319   0.659   5.735  11.593  0.5835  0.2538  0.0901
 9610TIP3   OH250320   1.694   4.352  15.890  0.6707  0.0318 -0.3534
 9610TIP3    H150321   1.778   4.359  15.844  0.8378  0.6654  0.0475
 9610TIP3    H250322   1.647   4.432  15.866  0.2335 -0.2602 -0.4749
 9611TIP3   OH250323   5.383   4.284  16.459 -0.3051 -0.1787 -0.4424
 9611TIP3    H150324   5.375   4.377  16.439  0.1818  0.2655  1.3367
 9611TIP3    H250325   5.306   4.265  16.512  0.2533 -0.4840  0.2662
 9612TIP3   OH250326   0.022   2.959   0.954 -0.1725 -0.4206 -0.1302
 9612TIP3    H150327  -0.026   3.038   0.930  1.7868  1.5716  2.2520
 9612TIP3    H250328  -0.028   2.921   1.025 -0.5174 -0.6947 -0.5208
 9613TIP3   OH250329   5.073   4.732  16.777 -0.6257  0.0179 -0.1173
 9613TIP3    H150330   5.083   4.714  16.871  2.1443  0.3429 -0.3049
 9613TIP3    H250331   5.119   4.815  16.764 -1.2791  0.1390 -1.6973
 9614TIP3   OH250332   2.757   0.132  10.344  1.2474 -0.1429 -0.0504
 9614TIP3    H150333   2.706   0.096  10.415 -1.2321 -1.8243 -2.5788
 9614TIP3    H250334   2.710   0.211  10.317 -0.1651 -1.7245 -2.4219
 9615TIP3   OH250335   0.927   1.122  11.693  0.1327  0.0755  0.1825
 9615TIP3    H150336   0.845   1.128  11.742  0.1305  0.3668  0.1475
 9615TIP3    H250337   0.904   1.154  11.605 -0.7095 -3.7056 -1.0856
 9616TIP3   OH250338   2.248   1.799   2.937 -0.1930  0.0641 -0.1729
 9616TIP3    H150339   2.168   1.820   2.985  0.7641  0.6543  1.1784
 9616TIP3    H250340   2.247   1.704   2.929 -1.1872  0.0915 -0.4552
 9617TIP3   OH250341   1.869   6.624  16.327 -0.3783 -0.6121  0.3764
 9617TIP3    H150342   1.907   6.538  16.308 -0.4767 -0.7107  0.6314
 9617TIP3    H250343   1.785   6.605  16.368 -0.1787 -0.3975  0.8928
 9618TIP3   OH250344   0.562   6.460  11.790  0.5066  0.0381 -0.0546
 9618TIP3    H150345   0.503   6.385  11.800 -0.8843  0.9730 -1.1242
 9618TIP3    H250346   0.636   6.425  11.738  0.8304 -1.0837  1.1343
 9619TIP3   OH250347   5.164   6.188   2.686  0.1525 -0.0674 -0.8967
 9619TIP3    H150348   5.072   6.162   2.694  0.3139 -0.1429  0.9424
 9619TIP3    H250349   5.164   6.282   2.703  0.6575 -0.4295  1.2454
 9620TIP3   OH250350   5.729   3.526   5.881 -0.2416  0.3205 -0.2768
 9620TIP3    H150351   5.823   3.545   5.872 -0.0241  0.4497  2.0708
 9620TIP3    H250352   5.687   3.611   5.887 -0.4473  0.2472 -0.6392
 9621TIP3   OH250353   1.430   5.224   1.797  0.1290 -0.2022 -0.0407
 9621TIP3    H150354   1.373   5.164   1.749 -2.0277  3.0643 -1.7359
 9621TIP3    H250355   1.419   5.198   1.889  0.3610 -3.2337 -0.7881
 9622TIP3   OH250356   3.152   5.691   4.786 -0.1638 -0.7060 -0.2495
 9622TIP3    H150357   3.244   5.674   4.809  0.0216 -0.4533 -0.7994
 9622TIP3    H250358   3.138   5.641   4.705 -0.7143 -1.3123  0.2097
 9623TIP3   OH250359   3.966   5.068  10.733 -0.1659 -0.8168  0.4092
 9623TIP3    H150360   3.985   5.024  10.816 -1.3014 -1.5517  0.2983
 9623TIP3    H250361   4.039   5.046  10.676  0.7173 -0.1499  1.2728
 9624TIP3   OH250362   5.870   0.101   2.635 -0.2907 -0.3925 -0.3817
 9624TIP3    H150363   5.906   0.091   2.723  0.3851  1.1823 -0.4706
 9624TIP3    H250364   5.778   0.074   2.644 -0.1160 -0.6643  0.7014
 9625TIP3   OH250365   2.280   0.298  15.492  0.4115 -0.0384  0.0837
 9625TIP3    H150366   2.267   0.244  15.414 -0.2987 -0.2047  0.3165
 9625TIP3    H250367   2.249   0.243  15.564 -4.0165  2.0875 -0.0351
 9626TIP3   OH250368   3.137   1.161  12.444 -0.1811  0.3511 -0.2724
 9626TIP3    H150369   3.122   1.115  12.362 -0.5551  2.5028 -1.4213
 9626TIP3    H250370   3.208   1.111  12.486  0.7003 -0.1812 -2.3326
 9627TIP3   OH250371   5.185   4.366  15.370  0.5914 -0.9395 -0.2185
 9627TIP3    H150372   5.237   4.350  15.291  0.6611 -1.1892 -0.1223
 9627TIP3    H250373   5.095   4.376  15.338  0.8277  0.4680 -0.4903
 9628TIP3   OH250374   2.194   6.252   5.351  0.1479  0.2807  0.0241
 9628TIP3    H150375   2.112   6.206   5.337 -0.5186  1.1462  0.9478
 9628TIP3    H250376   2.216   6.290   5.266  0.4347 -1.2854 -0.6071
 9629TIP3   OH250377   2.124   1.474   6.187  0.3185 -0.2862 -0.1049
 9629TIP3    H150378   2.160   1.498   6.272  1.5362  0.3888 -0.8004
 9629TIP3    H250379   2.100   1.381   6.197  0.4281 -0.2064  0.9713
 9630TIP3   OH250380   2.598   3.917  12.442 -0.1423  0.0729  0.3863
 9630TIP3    H150381   2.639   3.833  12.461 -2.1227 -1.5012 -1.9994
 9630TIP3    H250382   2.521   3.920  12.498  1.7977  1.9777  3.1123
 9631TIP3   OH250383   1.985   6.803   5.318 -0.7529 -0.7209 -0.4164
 9631TIP3    H150384   2.039   6.735   5.277  0.2651 -0.9107  1.1736
 9631TIP3    H250385   1.958   6.763   5.401 -1.4588  0.2405 -0.1854
 9632TIP3   OH250386   0.386   4.163   0.550  0.0935  0.1132  0.2780
 9632TIP3    H150387   0.442   4.225   0.597 -0.3784  1.4483 -0.8876
 9632TIP3    H250388   0.432   4.079   0.557  0.3264  0.4085  2.5824
 9633TIP3   OH250389   3.853   2.227   2.311 -0.3836  0.3901  0.0957
 9633TIP3    H150390   3.886   2.286   2.378 -3.0082  2.4477 -0.3526
 9633TIP3    H250391   3.932   2.190   2.271  1.2589  1.7026  2.0389
 9634TIP3   OH250392   6.610   6.227  14.968 -0.1543 -0.2667 -0.3881
 9634TIP3    H150393   6.575   6.226  15.057 -0.6702 -0.2724 -0.5881
 9634TIP3    H250394   6.559   6.160  14.921 -0.4254  0.2807 -0.8873
 9635TIP3   OH250395   5.564   0.541   1.726  0.2969  0.0938 -0.2930
 9635TIP3    H150396   5.482   0.535   1.774  1.3977  1.3117  1.8250
 9635TIP3    H250397   5.630   0.509   1.788  1.8125  2.1217 -0.7934
 9636TIP3   OH250398   1.542   1.333   5.380  0.3541 -0.9019  0.4654
 9636TIP3    H150399   1.501   1.360   5.298  0.8813 -1.5227 -0.0084
 9636TIP3    H250400   1.470   1.295   5.431  0.4172 -2.5398 -0.6043
 9637TIP3   OH250401   1.840   5.890  11.101 -0.1652  0.3820 -0.3834
 9637TIP3    H150402   1.791   5.844  11.169 -0.8266  0.8453 -0.5337
 9637TIP3    H250403   1.791   5.871  11.020  0.6239 -0.1867 -0.7328
 9638TIP3   OH250404   2.445   1.182   4.206 -0.2473  0.8333 -0.0841
 9638TIP3    H150405   2.476   1.244   4.273  1.4339  1.3733 -1.3348
 9638TIP3    H250406   2.477   1.097   4.236 -1.3777  0.7448  0.9188
 9639TIP3   OH250407   2.872   6.716  10.347  0.4791  0.2650 -0.8125
 9639TIP3    H150408   2.827   6.797  10.324  0.7045  0.8279  0.6830
 9639TIP3    H250409   2.806   6.662  10.389  1.3460  1.4528  2.2142
 9640TIP3   OH250410   5.539   2.416   1.572  0.3701 -0.0366 -0.6919
 9640TIP3    H150411   5.504   2.459   1.494 -0.9317  0.7445  0.2862
 9640TIP3    H250412   5.495   2.461   1.645  2.1826 -0.1955  0.5169
 9641TIP3   OH250413   4.189   3.415  12.734 -0.4530 -0.3725 -0.3686
 9641TIP3    H150414   4.168   3.397  12.643 -0.4356  0.2526 -0.4993
 9641TIP3    H250415   4.228   3.334  12.767 -2.5298 -1.3809 -0.2868
 9642TIP3   OH250416   1.863   3.434   4.764  0.4945  0.3093  0.5121
 9642TIP3    H150417   1.878   3.492   4.690  1.5063  1.3476  1.5009
 9642TIP3    H250418   1.808   3.484   4.824  0.9847  0.0752  1.1667
 9643TIP3   OH250419   3.415   5.404  16.872 -0.0586 -0.0155 -0.2090
 9643TIP3    H150420   3.369   5.420  16.955 -0.0511 -0.1519 -0.1781
 9643TIP3    H250421   3.461   5.485  16.854  2.2083 -0.9056  1.3591
 9644TIP3   OH250422   1.833   5.242   0.897 -0.3209  0.4474  0.1825
 9644TIP3    H150423   1.885   5.321   0.883  0.0560  0.2367  0.4062
 9644TIP3    H250424   1.746   5.265   0.863  0.4720  0.0900 -2.1986
 9645TIP3   OH250425   4.830   6.770   0.612  0.5854  0.2656 -0.0523
 9645TIP3    H150426   4.890   6.844   0.621 -0.2390  0.8988  0.2293
 9645TIP3    H250427   4.887   6.697   0.586  1.3146  1.1201 -0.8994
 9646TIP3   OH250428   5.973   1.219  10.860 -0.5796  0.3291 -0.0418
 9646TIP3    H150429   5.919   1.298  10.852  0.5427  1.0707 -0.3704
 9646TIP3    H250430   6.011   1.224  10.948  1.3165  1.3428 -0.9004
 9647TIP3   OH250431   5.817   2.166  14.654 -0.2229 -0.7609  0.1529
 9647TIP3    H150432   5.765   2.143  14.577  0.7214  0.4295 -0.8652
 9647TIP3    H250433   5.825   2.261  14.649  1.1805 -0.8388  0.8629
 9648TIP3   OH250434   0.957   4.152   1.520  0.3178 -0.5420  0.2801
 9648TIP3    H150435   1.000   4.067   1.520 -0.6929 -1.0570  1.1167
 9648TIP3    H250436   0.864   4.133   1.532 -0.0319  0.6239 -0.4426
 9649TIP3   OH250437   0.963   4.569   0.946 -0.0292  0.2357 -0.1190
 9649TIP3    H150438   1.000   4.577   1.034  0.4667 -0.3868 -0.2665
 9649TIP3    H250439   0.976   4.655   0.906  0.9001  0.1332 -0.0317
 9650TIP3   OH250440   4.709   1.287   3.361  0.0900 -0.1427  0.5510
 9650TIP3    H150441   4.800   1.313   3.342  0.0448  0.4376  1.0902
 9650TIP3    H250442   4.669   1.274   3.275  0.5999 -0.1021  0.3036
 9651TIP3   OH250443   4.861   2.656  14.775 -0.0635 -0.3421 -0.0441
 9651TIP3    H150444   4.807   2.577  14.771 -0.7725  0.0776  0.9503
 9651TIP3    H250445   4.799   2.728  14.765  0.2624  0.1496  1.3557
 9652TIP3   OH250446   1.530   4.277  11.544  0.3522  0.0566  0.5414
 9652TIP3    H150447   1.573   4.356  11.576 -0.0685  0.0655  1.0783
 9652TIP3    H250448   1.542   4.281  11.449  1.2864  0.2049  0.6571
 9653TIP3   OH250449   2.759   5.049  14.612  0.9458 -0.1800 -0.8018
 9653TIP3    H150450   2.801   5.074  14.529  0.8066  1.2474 -0.4606
 9653TIP3    H250451   2.689   5.113  14.624  2.2805  0.9351  1.4474
 9654TIP3   OH250452   1.304   4.710   0.187  0.0050  0.0444  0.4319
 9654TIP3    H150453   1.227   4.764   0.171 -0.6733 -0.6617  1.2708
 9654TIP3    H250454   1.309   4.652   0.111 -0.9902 -0.7116  0.9240
 9655TIP3   OH250455   3.272   6.080  12.168 -0.4693  0.3143  0.6537
 9655TIP3    H150456   3.269   6.045  12.079  1.6629 -2.6301  1.6658
 9655TIP3    H250457   3.304   6.170  12.157  1.3126 -0.5370 -1.4623
 9656TIP3   OH250458   4.086   5.767  16.228 -0.4722  0.0055 -0.5079
 9656TIP3    H150459   4.024   5.713  16.278 -0.5959  2.1443  1.7123
 9656TIP3    H250460   4.036   5.846  16.206 -0.2452 -0.6238 -3.6021
 9657TIP3   OH250461   3.254   1.385  13.770 -0.0718 -0.0816  0.0652
 9657TIP3    H150462   3.180   1.326  13.757 -1.4230  1.3235  1.2208
 9657TIP3    H250463   3.268   1.426  13.684 -0.5126 -0.4943 -0.2019
 9658TIP3   OH250464   5.103   4.497  12.832  0.2202 -0.1091  0.0135
 9658TIP3    H150465   5.087   4.469  12.742  2.7609  0.8027 -0.7521
 9658TIP3    H250466   5.120   4.591  12.825 -0.6513  0.1821  1.6109
 9659TIP3   OH250467   0.265   5.437   4.040 -0.6944 -0.4822 -0.4941
 9659TIP3    H150468   0.251   5.431   4.134 -3.2734 -1.2811 -0.9095
 9659TIP3    H250469   0.328   5.509   4.030 -0.5147 -0.2862  1.8052
 9660TIP3   OH250470   6.577   5.243  17.190  0.2463 -0.4075 -0.4930
 9660TIP3    H150471   6.499   5.240  17.134 -0.1492  0.3041 -0.0083
 9660TIP3    H250472   6.615   5.156  17.184 -1.4599 -1.2363  0.4572
 9661TIP3   OH250473   3.530   1.434   1.650 -0.6375 -0.2942  0.1724
 9661TIP3    H150474   3.546   1.452   1.558 -1.2543  2.4712  0.5798
 9661TIP3    H250475   3.441   1.398   1.652 -0.8931  0.3143 -0.2310
 9662TIP3   OH250476   0.030   5.066  14.971 -0.1560  0.2077  0.1490
 9662TIP3    H150477  -0.011   5.096  15.052  0.6645 -0.1231  0.6928
 9662TIP3    H250478   0.035   4.970  14.980 -0.8834  0.0751 -0.6877
 9663TIP3   OH250479   4.028   6.501   6.260  0.4508 -0.1168 -0.2028
 9663TIP3    H150480   4.061   6.518   6.172 -0.3322 -0.9652 -0.6742
 9663TIP3    H250481   3.970   6.574   6.278  0.6001  0.0528 -0.4020
 9664TIP3   OH250482   5.514   1.591   0.926  0.0314 -0.0027 -0.7963
 9664TIP3    H150483   5.437   1.634   0.965  0.9058  1.4369 -0.6119
 9664TIP3    H250484   5.517   1.625   0.837  2.8192  3.2048  0.4396
 9665TIP3   OH250485   1.338   0.895  15.772  0.0501  0.1767 -0.5828
 9665TIP3    H150486   1.430   0.896  15.799 -0.3349  2.7395  0.7925
 9665TIP3    H250487   1.341   0.899  15.676  1.3641 -0.1788 -0.5640
 9666TIP3   OH250488   6.492   1.406   5.427 -0.4513  0.5147 -0.3462
 9666TIP3    H150489   6.443   1.467   5.483  0.7651  0.8772  0.3532
 9666TIP3    H250490   6.560   1.370   5.485 -0.8383 -1.1273 -0.8904
 9667TIP3   OH250491   0.231   0.293  13.971 -0.0494  0.4425 -0.0657
 9667TIP3    H150492   0.232   0.333  14.058 -2.2850  0.2441  0.0854
 9667TIP3    H250493   0.152   0.239  13.971  0.1233  0.1667 -2.1007
 9668TIP3   OH250494   3.280   1.902  11.222  0.6075  0.0379  0.3514
 9668TIP3    H150495   3.218   1.974  11.211 -0.5014 -1.0672 -0.7598
 9668TIP3    H250496   3.365   1.945  11.229  0.4206  1.3697 -3.9009
 9669TIP3   OH250497   5.462   2.217   5.510  0.0115  0.2196 -0.3500
 9669TIP3    H150498   5.418   2.285   5.563  0.1831 -0.3038  0.4784
 9669TIP3    H250499   5.438   2.135   5.553  0.2576 -0.2084 -1.0297
 9670TIP3   OH250500   4.674   6.621  11.431 -0.6563 -0.4692 -0.2948
 9670TIP3    H150501   4.607   6.569  11.386 -2.8632 -0.4692  2.8414
 9670TIP3    H250502   4.655   6.712  11.407 -1.5794 -0.4965  0.3267
 9671TIP3   OH250503   1.334   2.879  10.353 -0.3302  0.0184 -0.1984
 9671TIP3    H150504   1.289   2.811  10.403 -1.2492 -1.2080 -2.5887
 9671TIP3    H250505   1.422   2.844  10.340 -0.5063 -0.2927 -0.5848
 9672TIP3   OH250506   1.632   2.420  15.759  0.0441 -0.6109  0.3644
 9672TIP3    H150507   1.592   2.507  15.757  1.9287  0.2669 -2.0151
 9672TIP3    H250508   1.558   2.360  15.748 -1.0482  0.7968 -0.2077
 9673TIP3   OH250509   5.857   4.807  13.468  0.0465  0.1239 -0.8000
 9673TIP3    H150510   5.942   4.782  13.431  0.3529  2.1768 -1.5893
 9673TIP3    H250511   5.858   4.772  13.557  0.2845 -2.8576 -1.9158
 9674TIP3   OH250512   6.382   0.769   4.792 -0.2760  0.8746  1.1178
 9674TIP3    H150513   6.337   0.852   4.801 -0.4349  1.4265 -3.5120
 9674TIP3    H250514   6.315   0.708   4.760  0.7458  0.0136  0.5659
 9675TIP3   OH250515   4.406   5.506   2.164 -0.2667  0.0761  0.7177
 9675TIP3    H150516   4.450   5.466   2.090  1.4360  0.8936  1.2676
 9675TIP3    H250517   4.357   5.435   2.204 -0.5852 -0.5338 -0.7287
 9676TIP3   OH250518   1.785   3.082   4.461 -0.0199 -0.1152 -0.0755
 9676TIP3    H150519   1.749   3.157   4.510  1.2206  0.6511 -0.3179
 9676TIP3    H250520   1.763   3.100   4.370  2.1757  1.0771 -0.3999
 9677TIP3   OH250521   4.855   0.657  14.850 -0.0529  0.2130 -0.2858
 9677TIP3    H150522   4.775   0.604  14.861  0.2527  0.2161  2.4183
 9677TIP3    H250523   4.902   0.614  14.779 -1.9633 -0.4016 -1.2337
 9678TIP3   OH250524   3.653   4.522  12.723 -0.0110  0.1539  0.1606
 9678TIP3    H150525   3.642   4.437  12.765 -0.4417  0.3852  0.5302
 9678TIP3    H250526   3.698   4.575  12.788  2.0375 -0.3610 -0.8107
 9679TIP3   OH250527   5.502   6.708   6.177 -0.5773  0.1930 -0.3040
 9679TIP3    H150528   5.462   6.625   6.200  0.9894 -0.5798 -0.2913
 9679TIP3    H250529   5.542   6.693   6.091  0.4593  0.6452  0.0824
 9680TIP3   OH250530   0.214   5.234   3.284  0.0346  0.2655  0.4978
 9680TIP3    H150531   0.176   5.236   3.372  2.1330 -1.8551  1.5024
 9680TIP3    H250532   0.184   5.150   3.248  2.5933 -0.8170  0.8036
 9681TIP3   OH250533   3.805   0.548   0.276  0.1967  0.4483 -0.5468
 9681TIP3    H150534   3.838   0.589   0.356 -0.3867  0.2172 -0.1776
 9681TIP3    H250535   3.711   0.539   0.292  0.4376 -1.8185 -0.2614
 9682TIP3   OH250536   2.589   0.251  11.458 -0.0906 -0.5272 -0.8182
 9682TIP3    H150537   2.536   0.303  11.398 -0.2069 -1.7164 -1.7720
 9682TIP3    H250538   2.678   0.254  11.421  0.7604  2.2790  1.3135
 9683TIP3   OH250539   2.463   2.892  11.373 -0.1305 -0.0968 -0.4903
 9683TIP3    H150540   2.551   2.879  11.408 -0.3548  0.3745  0.2594
 9683TIP3    H250541   2.420   2.808  11.386 -0.3223  0.1729  0.6994
 9684TIP3   OH250542   2.748   4.726  13.561  0.0902  0.2137 -0.1807
 9684TIP3    H150543   2.762   4.652  13.620 -0.1855  0.5290  0.2830
 9684TIP3    H250544   2.657   4.752  13.576 -0.1986 -0.1429 -1.2520
 9685TIP3   OH250545   6.488   0.864  11.800  0.5544  0.6005  0.0202
 9685TIP3    H150546   6.501   0.928  11.730  1.0812  0.8390  0.3308
 9685TIP3    H250547   6.497   0.779  11.756 -0.1537  0.7347 -0.3943
 9686TIP3   OH250548   2.440   2.946   3.831 -0.3209  0.7208 -0.6511
 9686TIP3    H150549   2.427   3.041   3.828  0.0345  0.7958  0.0156
 9686TIP3    H250550   2.504   2.933   3.902  0.3821  0.0676 -1.3913
 9687TIP3   OH250551   6.469   3.385   4.350  0.0148  0.0110  0.2111
 9687TIP3    H150552   6.400   3.324   4.378  0.3970  0.1074  1.3947
 9687TIP3    H250553   6.463   3.458   4.411  1.1878  0.0008  0.3526
 9688TIP3   OH250554   5.480   6.189  15.152  0.2580  0.7872 -0.5062
 9688TIP3    H150555   5.388   6.192  15.125  0.4035 -2.1322 -1.4713
 9688TIP3    H250556   5.482   6.130  15.228  1.1364  1.9572  0.4013
 9689TIP3   OH250557   4.526   5.034  12.888 -0.3916  0.0336  0.0960
 9689TIP3    H150558   4.489   4.953  12.853 -0.7468  0.1226  0.2651
 9689TIP3    H250559   4.584   5.066  12.819 -0.8467  0.0438 -0.2764
 9690TIP3   OH250560   5.357   2.817  13.191 -1.0659 -0.1728 -0.1637
 9690TIP3    H150561   5.293   2.884  13.167 -0.8920 -0.3077 -1.0117
 9690TIP3    H250562   5.415   2.810  13.115 -1.2069 -1.4245 -0.1703
 9691TIP3   OH250563   2.206   5.584   1.797  0.0132  0.3187  0.1719
 9691TIP3    H150564   2.163   5.499   1.808  0.4938  0.2892  1.9121
 9691TIP3    H250565   2.291   5.563   1.758  1.0479 -0.2359  2.6566
 9692TIP3   OH250566   4.038   3.577   5.482  0.5143  0.0814 -0.2707
 9692TIP3    H150567   3.989   3.659   5.484  0.1194 -0.1564  3.0704
 9692TIP3    H250568   4.123   3.600   5.520  1.7285 -0.2954 -2.7045
 9693TIP3   OH250569   5.450   0.858  11.347  0.6584 -0.0333  0.1394
 9693TIP3    H150570   5.415   0.947  11.349  4.2308  1.5434 -1.8822
 9693TIP3    H250571   5.430   0.826  11.260  1.4976 -0.2570  0.0208
 9694TIP3   OH250572   1.996   5.656   6.263  0.5074 -0.3831 -0.1420
 9694TIP3    H150573   1.978   5.734   6.315  1.3839 -0.3567  0.1266
 9694TIP3    H250574   2.088   5.664   6.238  0.7409 -1.5674  0.2957
 9695TIP3   OH250575   3.223   6.790  13.605  0.1246  0.1190 -0.6607
 9695TIP3    H150576   3.195   6.798  13.514 -2.2360  1.1155  0.1315
 9695TIP3    H250577   3.263   6.703  13.610 -2.8971 -1.3886 -1.8296
 9696TIP3   OH250578   2.160   0.293   4.732  0.2625 -0.0872  0.1970
 9696TIP3    H150579   2.067   0.285   4.754  0.0477 -3.7998 -1.6560
 9696TIP3    H250580   2.203   0.310   4.815 -1.8037 -1.0965  1.5066
 9697TIP3   OH250581   6.727   5.495   6.099 -0.0256 -0.4976 -0.4073
 9697TIP3    H150582   6.632   5.507   6.097  0.1265  1.0701  0.8758
 9697TIP3    H250583   6.750   5.505   6.192  1.5036  0.1222 -0.8454
 9698TIP3   OH250584   0.874   0.998  14.366 -0.3987  0.0314 -0.3941
 9698TIP3    H150585   0.941   1.024  14.430  0.1131 -1.7379 -0.1704
 9698TIP3    H250586   0.794   0.988  14.418 -0.7189  1.5879 -0.5645
 9699TIP3   OH250587   4.706   3.858  13.784 -0.4540 -0.2247  0.4338
 9699TIP3    H150588   4.776   3.829  13.842  0.4120  1.4852  0.2794
 9699TIP3    H250589   4.664   3.777  13.756  1.4121 -1.2899  0.5806
 9700TIP3   OH250590   4.577   2.805  14.032 -0.0642 -0.3545  0.2522
 9700TIP3    H150591   4.505   2.768  13.982  0.0557  0.0265 -0.1994
 9700TIP3    H250592   4.538   2.829  14.116 -0.8276  1.3390 -0.5704
 9701TIP3   OH250593   1.656   3.340   3.041 -0.0358  0.2323  0.8220
 9701TIP3    H150594   1.721   3.309   2.978 -1.1144 -0.1019 -0.1489
 9701TIP3    H250595   1.668   3.284   3.118  1.4536  0.8009  1.0214
 9702TIP3   OH250596   0.107   2.659   2.424  0.1934  0.1567 -0.4932
 9702TIP3    H150597   0.086   2.627   2.512 -1.1396  1.0450 -0.4798
 9702TIP3    H250598   0.120   2.579   2.372  0.1516 -0.3735  0.3108
 9703TIP3   OH250599   2.100   1.367   4.187  0.1894 -0.2993 -0.4602
 9703TIP3    H150600   2.033   1.391   4.251 -0.3503  1.3992 -1.6297
 9703TIP3    H250601   2.183   1.396   4.225 -0.2972  2.2199 -1.2038
 9704TIP3   OH250602   0.891   6.115  14.606  0.4827 -0.5125 -0.2263
 9704TIP3    H150603   0.959   6.175  14.638 -0.3148 -1.1957  2.9826
 9704TIP3    H250604   0.809   6.165  14.614 -0.1865 -1.9156  2.4708
 9705TIP3   OH250605   5.132   3.571  13.491 -0.2385  0.0093 -0.1516
 9705TIP3    H150606   5.188   3.639  13.454  0.3783 -0.1775  0.4369
 9705TIP3    H250607   5.185   3.529  13.558 -2.0254  1.6548  2.3885
 9706TIP3   OH250608   2.219   1.071   0.622 -0.0579  0.4239  0.0621
 9706TIP3    H150609   2.208   0.980   0.650 -1.7622  0.1602 -1.3799
 9706TIP3    H250610   2.239   1.118   0.703  0.5973 -1.1871  0.8642
 9707TIP3   OH250611   2.056   6.387   3.502  0.4839 -0.2599 -0.5322
 9707TIP3    H150612   2.148   6.368   3.522  0.6987  0.8237 -0.4524
 9707TIP3    H250613   2.054   6.398   3.407  0.5046  0.0564 -0.4967
 9708TIP3   OH250614   5.546   1.398   1.865  0.5592  0.4361 -0.2763
 9708TIP3    H150615   5.624   1.350   1.837  0.0811  0.1184 -1.0880
 9708TIP3    H250616   5.556   1.408   1.959  1.1285 -0.4309 -0.2426
 9709TIP3   OH250617   4.910   6.160  15.954 -0.2158  0.2992 -0.3446
 9709TIP3    H150618   4.882   6.222  16.021  1.3309  1.1472 -0.4650
 9709TIP3    H250619   4.850   6.086  15.963 -1.2613  1.2571  0.6519
 9710TIP3   OH250620   6.752   6.539  13.963  0.4059  0.4838 -0.0120
 9710TIP3    H150621   6.822   6.484  13.999 -0.0713 -0.1799 -0.0905
 9710TIP3    H250622   6.796   6.619  13.935  1.4204 -0.6249 -1.6551
 9711TIP3   OH250623   0.324   4.236  11.919  0.3411  0.1139 -0.9081
 9711TIP3    H150624   0.257   4.253  11.853 -0.7950  0.6122  0.3630
 9711TIP3    H250625   0.293   4.280  11.997  2.3517  0.6849 -0.3994
 9712TIP3   OH250626   6.540   4.977  14.477  0.7389 -0.7043 -0.2577
 9712TIP3    H150627   6.558   4.927  14.397  0.3893  0.8672 -1.3213
 9712TIP3    H250628   6.455   4.945  14.507 -0.6771  1.0428 -2.3410
 9713TIP3   OH250629   6.200   0.046  16.013 -0.2659 -0.0735 -0.3367
 9713TIP3    H150630   6.238  -0.023  16.066 -1.6619 -2.2197 -2.0426
 9713TIP3    H250631   6.155   0.000  15.942 -1.8963  2.5606 -1.0792
 9714TIP3   OH250632   2.008   5.935   2.364  0.5048 -0.6339  0.5325
 9714TIP3    H150633   2.094   5.896   2.381  1.1532  0.8608  0.7084
 9714TIP3    H250634   2.026   6.008   2.306 -0.4288  0.7514  1.9460
 9715TIP3   OH250635   6.058   2.220   4.605 -0.0714  0.3467  0.9307
 9715TIP3    H150636   6.067   2.266   4.689 -1.5656  0.6463  0.9387
 9715TIP3    H250637   6.132   2.251   4.553  0.7868  0.2759  2.0892
 9716TIP3   OH250638   2.451   1.292   4.618 -0.1035  0.1185  0.7662
 9716TIP3    H150639   2.429   1.329   4.704  0.2947  0.7554  0.5884
 9716TIP3    H250640   2.479   1.202   4.638  1.2822  0.6901  1.4527
 9717TIP3   OH250641   4.828   5.960   3.420  0.0577  0.6720 -0.5609
 9717TIP3    H150642   4.924   5.952   3.416  0.2797  2.3720  0.4739
 9717TIP3    H250643   4.809   5.967   3.514 -1.1395 -0.2487 -0.7338
 9718TIP3   OH250644   5.338   3.046   0.048  0.6437 -0.0334  0.1802
 9718TIP3    H150645   5.432   3.031   0.061  0.6067  0.2079  0.7570
 9718TIP3    H250646   5.298   3.011   0.128  0.1876 -0.7258 -0.3540
 9719TIP3   OH250647   5.378   2.421  16.990  0.1499  0.2787 -0.1718
 9719TIP3    H150648   5.397   2.359  16.919 -1.0795  2.3600 -2.3981
 9719TIP3    H250649   5.443   2.400  17.057  0.5199 -2.6275 -1.3369
 9720TIP3   OH250650   6.043   5.415   6.529  0.1962  0.0363 -0.0453
 9720TIP3    H150651   5.960   5.379   6.561  0.3611  0.5520  0.9992
 9720TIP3    H250652   6.084   5.343   6.481  0.8841 -1.4945  2.6725
 9721TIP3   OH250653   4.780   0.616   4.762  0.9731 -0.0862  0.0944
 9721TIP3    H150654   4.709   0.554   4.746 -0.7168  2.0203 -0.7552
 9721TIP3    H250655   4.849   0.590   4.701 -0.4384 -0.0216 -1.5467
 9722TIP3   OH250656   0.462   5.468  11.850  0.8525 -0.0959 -0.2514
 9722TIP3    H150657   0.430   5.504  11.933 -0.2271 -0.7161 -0.3919
 9722TIP3    H250658   0.438   5.534  11.785  0.5559 -0.2021 -0.2489
 9723TIP3   OH250659   0.842   0.644   2.089  0.0778 -0.7709 -0.3387
 9723TIP3    H150660   0.903   0.647   2.163 -0.0886 -1.3650 -0.1704
 9723TIP3    H250661   0.887   0.591   2.023  0.1591 -0.3741 -0.6047
 9724TIP3   OH250662   2.443   6.646  13.775 -0.7447 -0.2967 -0.0974
 9724TIP3    H150663   2.382   6.581  13.742  0.8870 -1.2290 -1.3607
 9724TIP3    H250664   2.506   6.659  13.704  0.7976  0.2691  1.3118
 9725TIP3   OH250665   2.766   0.711  14.321 -0.2958  0.8296 -0.3817
 9725TIP3    H150666   2.778   0.684  14.230 -0.4051 -0.3964 -0.0467
 9725TIP3    H250667   2.700   0.780  14.317 -0.6297  0.4723 -1.1876
 9726TIP3   OH250668   4.142   6.739   5.792  0.0075 -0.2298  0.7891
 9726TIP3    H150669   4.092   6.714   5.714  1.5470  1.0359 -0.6537
 9726TIP3    H250670   4.207   6.802   5.759  0.9472  0.0155  3.0357
 9727TIP3   OH250671   3.303   0.307   0.441 -0.0760  0.3498 -0.7065
 9727TIP3    H150672   3.266   0.272   0.361 -0.6304 -0.0333 -0.2860
 9727TIP3    H250673   3.307   0.401   0.427  0.1692  0.2461 -1.3236
 9728TIP3   OH250674   1.518   2.810  12.431  0.1085  0.8915  0.2295
 9728TIP3    H150675   1.594   2.831  12.485  0.2111 -1.3514  0.9719
 9728TIP3    H250676   1.463   2.756  12.486 -1.0371  0.7422 -1.0339
 9729TIP3   OH250677   4.965   1.640   0.259 -0.0659  0.0439  0.4106
 9729TIP3    H150678   5.023   1.568   0.282 -0.8590 -0.5818  0.4969
 9729TIP3    H250679   4.877   1.605   0.273 -0.4631  0.9790  0.3050
 9730TIP3   OH250680   4.046   2.690  11.972 -0.6833 -0.8490  0.2028
 9730TIP3    H150681   4.000   2.761  12.015 -0.2705  0.9165 -2.1775
 9730TIP3    H250682   4.139   2.713  11.979 -0.6092 -0.4984 -1.6085
 9731TIP3   OH250683   3.689   3.017  14.314  0.2280  0.5472 -0.0493
 9731TIP3    H150684   3.737   2.954  14.260 -0.7295  0.0843 -0.3812
 9731TIP3    H250685   3.706   3.101  14.272  1.8477  0.5815  0.6334
 9732TIP3   OH250686   5.441   2.556   4.112 -0.5022 -0.5213 -0.1638
 9732TIP3    H150687   5.356   2.584   4.147  0.0869 -0.3389  1.1537
 9732TIP3    H250688   5.493   2.536   4.190  1.6709  2.2758 -0.7998
 9733TIP3   OH250689   4.378   5.548  17.171  0.0204 -0.0504 -1.0737
 9733TIP3    H150690   4.374   5.604  17.249  0.0335 -0.1162 -1.0264
 9733TIP3    H250691   4.308   5.581  17.115 -1.1031 -1.0969 -0.3053
 9734TIP3   OH250692   6.458   3.593   5.685 -0.0543  0.2287  0.3990
 9734TIP3    H150693   6.418   3.669   5.643  0.7024  1.3210  1.6180
 9734TIP3    H250694   6.439   3.520   5.626 -1.5346  1.2002 -0.3510
 9735TIP3   OH250695   6.335   0.771  11.202 -0.0642  0.0863  0.0215
 9735TIP3    H150696   6.349   0.852  11.153 -0.6673  0.1350 -0.0832
 9735TIP3    H250697   6.293   0.713  11.139 -1.0036  0.2069  0.5251
 9736TIP3   OH250698   0.965   2.147  12.248 -0.6929 -0.0186 -0.2360
 9736TIP3    H150699   0.977   2.180  12.159 -1.9875  0.6207 -0.1937
 9736TIP3    H250700   1.031   2.078  12.258 -1.1813 -0.7788 -2.0418
 9737TIP3   OH250701   3.222   5.137  12.632 -0.2727  0.1612 -0.2070
 9737TIP3    H150702   3.253   5.227  12.635  0.8454 -0.2419  0.3583
 9737TIP3    H250703   3.270   5.092  12.701 -0.5481 -0.9590 -0.7349
 9738TIP3   OH250704   5.840   5.397  14.455 -0.3150  0.0246 -0.1492
 9738TIP3    H150705   5.900   5.368  14.386 -0.6080  2.1399 -1.3281
 9738TIP3    H250706   5.893   5.452  14.511 -0.1076 -1.6123  1.3021
 9739TIP3   OH250707   1.640   6.301   3.144 -0.0656 -0.5508  0.5148
 9739TIP3    H150708   1.668   6.263   3.228  2.6648  1.1840  0.4430
 9739TIP3    H250709   1.646   6.396   3.158  0.8505 -0.2442 -1.7679
 9740TIP3   OH250710   4.196   5.900   2.539 -0.3591  0.5711  0.1200
 9740TIP3    H150711   4.148   5.968   2.587  1.3184  1.1318  1.0163
 9740TIP3    H250712   4.284   5.901   2.577 -0.0805 -1.5446 -0.4260
 9741TIP3   OH250713   4.702   2.428   2.740  0.5709  0.1145 -0.2896
 9741TIP3    H150714   4.770   2.364   2.757 -0.7615 -1.0239  0.8311
 9741TIP3    H250715   4.625   2.396   2.787 -0.1331  2.5121  0.2746
 9742TIP3   OH250716   3.507   2.428  15.034 -0.0959 -0.1476  0.3030
 9742TIP3    H150717   3.598   2.448  15.057  0.5665 -0.8774 -1.6192
 9742TIP3    H250718   3.500   2.449  14.941 -2.0520  0.3951  0.5417
 9743TIP3   OH250719   4.232   0.572  15.938 -0.3375 -0.7684 -0.6318
 9743TIP3    H150720   4.142   0.582  15.909 -0.8317 -2.9118  0.0591
 9743TIP3    H250721   4.269   0.660  15.933 -2.4868  0.1552 -0.8215
 9744TIP3   OH250722   3.028   3.864  16.670  0.2236  0.0401  0.2616
 9744TIP3    H150723   3.046   3.832  16.582  0.8490  1.2242 -0.0632
 9744TIP3    H250724   2.995   3.788  16.718  0.3423 -0.7248 -0.8559
 9745TIP3   OH250725   2.904   5.289   0.595  0.1463  0.0989 -0.0875
 9745TIP3    H150726   2.832   5.231   0.571 -1.1924  1.2260  1.1169
 9745TIP3    H250727   2.983   5.236   0.583 -0.9811 -1.6280  0.0157
 9746TIP3   OH250728   1.684   0.072  11.577  0.3127  0.5943 -0.8170
 9746TIP3    H150729   1.717  -0.007  11.534  0.4800 -0.8909  1.9079
 9746TIP3    H250730   1.754   0.096  11.639 -0.7080  1.5086 -0.0055
 9747TIP3   OH250731   5.507   2.226  16.120  0.0332 -0.7913  0.9030
 9747TIP3    H150732   5.544   2.266  16.041  0.8968 -0.1621  1.6173
 9747TIP3    H250733   5.550   2.140  16.126 -0.7776 -1.2668  0.1519
 9748TIP3   OH250734   2.920   2.232  15.559 -0.0882 -0.0047 -0.5186
 9748TIP3    H150735   2.857   2.160  15.559 -0.3186  0.1603  1.5808
 9748TIP3    H250736   2.889   2.291  15.491 -0.0563 -1.7493 -2.0781
 9749TIP3   OH250737   2.160   3.197   4.369 -0.1164 -0.1811 -0.7050
 9749TIP3    H150738   2.078   3.245   4.363 -1.2518 -1.7341  1.3960
 9749TIP3    H250739   2.214   3.249   4.428  0.2823  0.6471 -1.7854
 9750TIP3   OH250740   3.832   3.089  11.114  0.2923 -0.5991 -0.4577
 9750TIP3    H150741   3.835   3.129  11.027 -0.5964 -0.0578 -0.2386
 9750TIP3    H250742   3.893   3.140  11.166 -0.1753 -0.0931 -0.4109
 9751TIP3   OH250743   3.492   3.393   1.427 -0.1153  0.5423 -0.2269
 9751TIP3    H150744   3.497   3.335   1.351  1.1645 -0.0507  0.3077
 9751TIP3    H250745   3.448   3.472   1.393 -1.2830 -0.4513 -1.1150
 9752TIP3   OH250746   1.076   3.242   3.056  0.3176  0.0105  0.1755
 9752TIP3    H150747   1.163   3.280   3.068  0.1195  1.3167 -2.2356
 9752TIP3    H250748   1.071   3.222   2.962 -2.0660  0.2498  0.2145
 9753TIP3   OH250749   2.151   6.639  15.579 -0.0007  0.2876  0.6392
 9753TIP3    H150750   2.075   6.653  15.524  0.9007 -0.3710 -0.8085
 9753TIP3    H250751   2.222   6.686  15.534  0.7414 -0.2330  1.2509
 9754TIP3   OH250752   2.808   6.405  15.135 -0.4636  0.4702 -0.2376
 9754TIP3    H150753   2.845   6.328  15.177 -1.9922 -0.7866 -1.1438
 9754TIP3    H250754   2.827   6.477  15.195  0.4968 -0.6954  0.8740
 9755TIP3   OH250755   0.639   1.233   5.884 -0.1391  0.8242  0.1634
 9755TIP3    H150756   0.662   1.228   5.977  1.7012 -0.4512 -0.3506
 9755TIP3    H250757   0.721   1.220   5.838 -1.4501 -1.1812 -1.6907
 9756TIP3   OH250758   3.654   2.062  12.979 -0.2302  0.0868  0.1590
 9756TIP3    H150759   3.600   2.059  13.059 -1.9641 -1.1882 -1.0151
 9756TIP3    H250760   3.740   2.032  13.008 -0.6271  0.3441  1.6962
 9757TIP3   OH250761   5.691   3.200   4.679  0.8666  0.1378  0.6546
 9757TIP3    H150762   5.621   3.241   4.629  0.8787  0.5015  0.9330
 9757TIP3    H250763   5.769   3.251   4.657  0.6959  0.9031  1.7754
 9758TIP3   OH250764   4.099   6.223  13.934  0.1368 -0.6608 -0.3687
 9758TIP3    H150765   4.072   6.260  13.850  0.6457 -0.9538 -0.6717
 9758TIP3    H250766   4.161   6.153  13.910 -0.4078 -1.3541  0.2053
 9759TIP3   OH250767   1.896   6.093  10.458  0.1149  0.5918  0.1007
 9759TIP3    H150768   1.964   6.046  10.410 -2.4538 -1.8879 -1.3081
 9759TIP3    H250769   1.859   6.154  10.394 -0.2132  0.5683  0.2646
 9760TIP3   OH250770   6.462   0.037  14.632  0.0485  0.2454  0.1198
 9760TIP3    H150771   6.394   0.103  14.632  1.1463  1.4004  0.1338
 9760TIP3    H250772   6.445  -0.017  14.709 -0.9520  0.4069  0.0091
 9761TIP3   OH250773   6.558   3.867  13.652 -0.0309  0.2060 -0.5105
 9761TIP3    H150774   6.621   3.819  13.707  0.4868 -0.0623 -1.3248
 9761TIP3    H250775   6.601   3.950  13.633 -0.7988  0.8725  0.6395
 9762TIP3   OH250776   5.120   3.535   5.208  0.1341 -0.2687 -0.3202
 9762TIP3    H150777   5.114   3.440   5.203  0.9126 -0.2452 -2.5409
 9762TIP3    H250778   5.174   3.559   5.132  0.3476  1.8977  0.4885
 9763TIP3   OH250779   3.561   1.840  14.537  0.3863 -0.1914  0.1963
 9763TIP3    H150780   3.620   1.915  14.525  1.3233 -0.8938  0.3410
 9763TIP3    H250781   3.476   1.880  14.557  0.7095  0.8420 -0.4202
 9764TIP3   OH250782   3.704   3.224   4.049  0.2920 -0.0738 -0.1917
 9764TIP3    H150783   3.622   3.231   4.099  0.5250 -0.0258  0.1820
 9764TIP3    H250784   3.691   3.148   3.992  0.1230 -0.2771  0.1192
 9765TIP3   OH250785   6.480   5.390  16.603  0.0537 -0.5740  0.2608
 9765TIP3    H150786   6.487   5.418  16.511  1.9078  2.3588  1.2202
 9765TIP3    H250787   6.563   5.345  16.620 -0.4730 -1.5098  0.3968
 9766TIP3   OH250788   6.473   2.558  17.251  0.0540  0.2149  0.5486
 9766TIP3    H150789   6.494   2.608  17.172 -0.1546 -1.2314 -0.4599
 9766TIP3    H250790   6.481   2.621  17.323  1.7313  1.2021 -0.4621
 9767TIP3   OH250791   4.780   0.973  11.653 -0.1053 -0.2307 -0.1102
 9767TIP3    H150792   4.767   0.881  11.676 -3.9920 -0.0461 -1.1523
 9767TIP3    H250793   4.821   0.971  11.567 -1.2661 -1.0633 -0.6707
 9768TIP3   OH250794   3.371   5.478   2.528  0.4784 -0.6997 -0.4981
 9768TIP3    H150795   3.405   5.497   2.441  0.3671 -1.3572 -0.6836
 9768TIP3    H250796   3.276   5.487   2.520  0.5522  0.6464 -0.0978
 9769TIP3   OH250797   1.527   3.778   4.469  0.1752  0.1649  0.3083
 9769TIP3    H150798   1.530   3.834   4.547  0.4102 -0.7891  0.9886
 9769TIP3    H250799   1.568   3.830   4.401  2.2770  0.0301  1.4436
 9770TIP3   OH250800   2.848   3.116  14.466  0.0608 -0.0730  0.7977
 9770TIP3    H150801   2.881   3.068  14.542 -3.3207  0.0251  2.4059
 9770TIP3    H250802   2.761   3.145  14.492 -0.6939  1.0182 -2.7107
 9771TIP3   OH250803   6.561   1.685   0.963  0.3306 -0.4498  0.2461
 9771TIP3    H150804   6.586   1.694   1.055 -0.8115 -0.7095  0.5983
 9771TIP3    H250805   6.609   1.608   0.933  0.4948 -0.5305  0.7084
 9772TIP3   OH250806   0.436   1.741  13.731 -0.2019 -0.1008 -0.1090
 9772TIP3    H150807   0.410   1.757  13.822 -1.6705  0.5423 -0.6221
 9772TIP3    H250808   0.455   1.647  13.727  0.1947 -0.0699  0.9402
 9773TIP3   OH250809   1.607   5.686   0.281 -0.4170  0.1825  0.5918
 9773TIP3    H150810   1.688   5.735   0.296  0.0860 -0.6553  0.6388
 9773TIP3    H250811   1.548   5.750   0.241  1.2200  0.0832 -2.1245
 9774TIP3   OH250812   5.847   3.594   3.542  0.1174 -0.2462  0.0912
 9774TIP3    H150813   5.823   3.676   3.584  1.6938  0.1414  0.2679
 9774TIP3    H250814   5.858   3.532   3.615 -0.7487 -0.5363 -0.0191
 9775TIP3   OH250815   4.132   5.317  13.769  0.6854 -0.1825 -0.5557
 9775TIP3    H150816   4.132   5.333  13.674  1.1950 -0.0218 -0.5334
 9775TIP3    H250817   4.219   5.344  13.797  0.1510  0.8291  0.1384
 9776TIP3   OH250818   1.519   6.574   1.858  0.1324 -0.4659  0.5060
 9776TIP3    H150819   1.546   6.666   1.862 -0.0687 -0.3646 -0.5035
 9776TIP3    H250820   1.431   6.573   1.895  0.5694 -0.4304  1.5682
 9777TIP3   OH250821   5.163   4.647   4.153  0.5903 -0.4158  0.1438
 9777TIP3    H150822   5.115   4.702   4.091 -0.0406  0.2418  1.1910
 9777TIP3    H250823   5.253   4.646   4.120  0.5198  0.8960 -0.1305
 9778TIP3   OH250824   4.940   0.632   1.517  0.3584 -0.0589 -0.0103
 9778TIP3    H150825   4.974   0.693   1.582  1.2691 -0.6319  0.0590
 9778TIP3    H250826   5.017   0.589   1.481 -0.1140  0.5474 -1.7770
 9779TIP3   OH250827   2.626   4.050  13.747  0.7684  0.0986 -0.4700
 9779TIP3    H150828   2.538   4.041  13.784  0.5818 -0.6548 -1.0713
 9779TIP3    H250829   2.685   4.038  13.821  0.3694  0.1839 -0.1373
 9780TIP3   OH250830   1.810   5.411   4.044 -0.3012  0.3995  0.0652
 9780TIP3    H150831   1.845   5.349   3.979  1.3787 -0.1304  1.4379
 9780TIP3    H250832   1.886   5.460   4.074 -1.4018  2.1587  0.0626
 9781TIP3   OH250833   1.647   0.458  15.824  0.1267  0.8343 -0.4461
 9781TIP3    H150834   1.736   0.435  15.797 -0.6907 -1.6129 -1.2420
 9781TIP3    H250835   1.598   0.465  15.742 -1.3149 -2.0084  0.1050
 9782TIP3   OH250836   5.887   5.994   4.650  0.0961  0.0496 -0.3055
 9782TIP3    H150837   5.806   5.963   4.609  1.0786 -2.4783 -0.4194
 9782TIP3    H250838   5.858   6.059   4.714 -2.1092 -1.5321  0.3484
 9783TIP3   OH250839   1.559   2.823   3.468  0.3815 -0.1586  0.0726
 9783TIP3    H150840   1.547   2.868   3.384  2.1459  0.3214  0.0490
 9783TIP3    H250841   1.470   2.801   3.497 -0.3308  0.9253 -1.2372
 9784TIP3   OH250842   6.805   1.011  17.150  0.0649 -0.2173  0.0166
 9784TIP3    H150843   6.831   1.066  17.077  2.6791 -0.7630  0.4911
 9784TIP3    H250844   6.795   0.924  17.111 -1.3638  0.0287 -0.2043
 9785TIP3   OH250845   6.577   2.812  10.528 -0.3586 -0.7289 -0.8856
 9785TIP3    H150846   6.510   2.748  10.508 -0.0711 -0.8214 -1.5638
 9785TIP3    H250847   6.567   2.880  10.461 -0.9489  0.1571  0.0854
 9786TIP3   OH250848   5.632   3.866   2.119 -0.3282  0.7929  0.8001
 9786TIP3    H150849   5.674   3.941   2.078  2.1379  0.4153  2.4849
 9786TIP3    H250850   5.642   3.882   2.213 -1.3152 -0.7889  1.1901
 9787TIP3   OH250851   5.569   2.724  13.032 -0.1852 -0.0434  0.5577
 9787TIP3    H150852   5.647   2.779  13.035 -0.5883  0.5611  0.2012
 9787TIP3    H250853   5.557   2.706  12.938  0.1474 -1.0413  0.6999
 9788TIP3   OH250854   6.791   0.402  12.746  1.1075  0.2154 -0.0512
 9788TIP3    H150855   6.748   0.424  12.663  0.9571 -0.6392 -0.2031
 9788TIP3    H250856   6.755   0.316  12.770  1.1510  0.4557  0.8958
 9789TIP3   OH250857   1.389   6.151  14.924  0.1287 -0.0015  0.0247
 9789TIP3    H150858   1.449   6.217  14.889 -1.3082  0.8195 -0.9454
 9789TIP3    H250859   1.353   6.107  14.847 -2.1419  0.9901  0.4806
 9790TIP3   OH250860   2.880   2.899   3.795 -0.4011 -0.5665  0.3256
 9790TIP3    H150861   2.902   2.828   3.856  2.0685  1.6246  2.1338
 9790TIP3    H250862   2.904   2.866   3.709  0.8981 -1.8627  1.1697
 9791TIP3   OH250863   6.536   2.211  15.561  0.1145  0.4701 -0.5213
 9791TIP3    H150864   6.631   2.207  15.548  0.4543  0.7795  1.6273
 9791TIP3    H250865   6.521   2.160  15.641 -1.6840 -0.5490 -1.4760
 9792TIP3   OH250866   5.637   6.486   3.827 -0.7860  0.1003  0.0114
 9792TIP3    H150867   5.699   6.531   3.769 -0.1004 -0.7487  0.0641
 9792TIP3    H250868   5.624   6.545   3.900  1.4054 -0.4768  0.9042
 9793TIP3   OH250869   1.328   2.340   2.751  0.3710  0.2170  0.4291
 9793TIP3    H150870   1.321   2.314   2.660  0.4435 -1.4780  0.8949
 9793TIP3    H250871   1.303   2.433   2.752 -0.6642 -0.0371 -1.1482
 9794TIP3   OH250872   0.320   0.667  16.173  0.2554 -0.2581  0.0181
 9794TIP3    H150873   0.328   0.700  16.084  1.6183  0.5780  0.4353
 9794TIP3    H250874   0.366   0.583  16.173  0.3011 -0.2323 -0.0475
 9795TIP3   OH250875   4.866   2.471  12.535  0.1088  0.1740  0.0792
 9795TIP3    H150876   4.935   2.436  12.591  0.4247  0.1166 -0.3354
 9795TIP3    H250877   4.914   2.511  12.462 -0.2758  0.7705  0.1543
 9796TIP3   OH250878   1.272   4.907   1.497  0.3860  0.5103  0.3660
 9796TIP3    H150879   1.209   4.951   1.441 -1.0774 -0.7040  1.0070
 9796TIP3    H250880   1.320   4.849   1.438 -1.0647 -0.6745  0.3213
 9797TIP3   OH250881   0.100   6.505  11.482  0.0539  0.3150 -0.2337
 9797TIP3    H150882   0.036   6.486  11.551  2.1285 -2.6639  0.9515
 9797TIP3    H250883   0.082   6.440  11.415  1.3559 -0.0467 -0.2361
 9798TIP3   OH250884   6.169   4.931   4.913  0.1255  0.1927  0.3736
 9798TIP3    H150885   6.148   4.979   4.993 -1.1212  0.8469 -0.3276
 9798TIP3    H250886   6.108   4.966   4.848 -0.3705 -1.8731 -0.3088
 9799TIP3   OH250887   6.406   2.635   5.847 -0.2718  0.2297  0.1798
 9799TIP3    H150888   6.381   2.727   5.835  2.1804  0.8805 -0.2501
 9799TIP3    H250889   6.405   2.623   5.942  0.4671  1.0294  0.2952
 9800TIP3   OH250890   0.699   0.192   0.581  0.7135 -0.5918 -0.3759
 9800TIP3    H150891   0.668   0.150   0.501  0.1929  1.4222 -1.2561
 9800TIP3    H250892   0.710   0.284   0.558  1.5753 -0.1627  1.5843
 9801TIP3   OH250893   4.289   1.914  14.256  0.0989 -0.6986  0.0336
 9801TIP3    H150894   4.269   1.928  14.163 -1.5535  0.7377  0.5990
 9801TIP3    H250895   4.214   1.949  14.303  2.1833  1.2319  2.0605
 9802TIP3   OH250896   1.198   0.820   6.011  0.4689 -0.2741 -0.2365
 9802TIP3    H150897   1.279   0.801   5.963  0.1756 -1.8285 -0.1509
 9802TIP3    H250898   1.223   0.811   6.103  0.4288  0.1560 -0.1866
 9803TIP3   OH250899   5.556   1.910   2.218 -0.1491  0.1087  0.2558
 9803TIP3    H150900   5.605   1.835   2.253 -1.1557 -0.9359 -0.5139
 9803TIP3    H250901   5.568   1.903   2.123  0.5829  1.5319  0.2224
 9804TIP3   OH250902   6.511   2.970   5.452  0.0466 -0.0590  0.1161
 9804TIP3    H150903   6.534   3.000   5.540  2.2824 -1.1052 -0.0816
 9804TIP3    H250904   6.424   2.931   5.462 -0.2404  0.9340  1.6027
 9805TIP3   OH250905   4.339   5.497  12.477  0.5223 -0.3281  0.2954
 9805TIP3    H150906   4.432   5.499  12.499 -0.1364 -0.4890  3.4019
 9805TIP3    H250907   4.295   5.488  12.562 -2.2436 -2.1771 -1.2482
 9806TIP3   OH250908   6.625   3.994   0.542  0.2653  0.3517  0.4195
 9806TIP3    H150909   6.706   4.040   0.523 -0.4416  1.2236 -0.5322
 9806TIP3    H250910   6.564   4.023   0.474 -0.5743 -0.9857  0.5811
 9807TIP3   OH250911   4.105   5.429   3.973 -0.9436  0.0346  0.3392
 9807TIP3    H150912   4.070   5.517   3.962  1.4345  1.1416  1.1337
 9807TIP3    H250913   4.141   5.406   3.887  1.1430  1.1162  0.8909
 9808TIP3   OH250914   5.720   5.852  13.363  0.1011  0.1122  0.6162
 9808TIP3    H150915   5.812   5.830  13.348  0.8214  2.1710  1.8306
 9808TIP3    H250916   5.691   5.892  13.280  1.0693  1.8609  1.0997
 9809TIP3   OH250917   4.609   5.748  13.810  0.1123 -0.8716 -0.2099
 9809TIP3    H150918   4.635   5.656  13.803 -0.5698 -1.0963  0.1990
 9809TIP3    H250919   4.673   5.795  13.756  1.2120 -1.4412  0.5792
 9810TIP3   OH250920   6.687   1.942   4.326 -0.2171 -0.3944 -0.3751
 9810TIP3    H150921   6.694   1.847   4.316 -0.3333 -0.8072  2.9391
 9810TIP3    H250922   6.595   1.962   4.310 -0.2849 -0.8906 -0.5900
 9811TIP3   OH250923   6.007   6.527  15.114  0.1250 -0.5858  0.0421
 9811TIP3    H150924   6.078   6.522  15.050  0.4659 -1.0966  0.4544
 9811TIP3    H250925   5.946   6.458  15.089 -1.1889  1.0797 -1.4477
 9812TIP3   OH250926   4.047   2.649   2.822 -0.4430  0.0807 -0.1148
 9812TIP3    H150927   4.142   2.646   2.833 -0.4629 -0.9102 -0.1849
 9812TIP3    H250928   4.012   2.665   2.909 -0.3045 -1.4936  0.2341
 9813TIP3   OH250929   0.440   1.336  15.261 -0.3560 -0.1377  0.2295
 9813TIP3    H150930   0.403   1.404  15.317 -0.5676  0.4280 -0.5862
 9813TIP3    H250931   0.513   1.379  15.216 -1.0790 -0.1694 -0.9976
 9814TIP3   OH250932   6.425   1.627   5.615  0.4127  0.6264  0.1712
 9814TIP3    H150933   6.348   1.603   5.666  1.4658 -0.6450  1.2027
 9814TIP3    H250934   6.494   1.640   5.680  0.5266  4.0097 -0.5599
 9815TIP3   OH250935   0.393   5.208   5.417  0.1573  0.3266  0.0561
 9815TIP3    H150936   0.299   5.209   5.433  0.2254  2.7487  0.5389
 9815TIP3    H250937   0.415   5.116   5.406 -2.0718 -0.3623  1.1212
 9816TIP3   OH250938   3.043   5.949  15.765  0.0370 -0.8325  0.1665
 9816TIP3    H150939   3.020   6.013  15.832  0.3564 -1.7162  1.1171
 9816TIP3    H250940   3.130   5.976  15.734 -0.4702  0.0738 -0.5135
 9817TIP3   OH250941   2.486   4.573   4.701  0.5325 -0.0029 -0.2436
 9817TIP3    H150942   2.523   4.485   4.689 -0.9798 -0.6698 -0.1313
 9817TIP3    H250943   2.548   4.617   4.759  1.4249 -0.9181 -0.4865
 9818TIP3   OH250944   4.042   0.145   2.876  0.0529  0.1055 -0.0461
 9818TIP3    H150945   3.959   0.194   2.877  0.5179  0.8759  1.3201
 9818TIP3    H250946   4.044   0.100   2.960  1.6281  1.1105  0.4613
 9819TIP3   OH250947   1.713   5.082  17.137  0.0034  0.2012  0.3977
 9819TIP3    H150948   1.775   5.154  17.146  0.7712 -0.3150 -0.7338
 9819TIP3    H250949   1.761   5.005  17.166 -0.1808 -0.1638 -0.2666
 9820TIP3   OH250950   6.112   2.547   4.606  0.5635 -0.4180  0.0331
 9820TIP3    H150951   6.132   2.591   4.688 -0.2126 -1.1142  0.6051
 9820TIP3    H250952   6.189   2.564   4.550  0.1624  1.8762  0.1270
 9821TIP3   OH250953   4.048   4.331   3.453 -0.9801  0.8105  0.0471
 9821TIP3    H150954   3.957   4.358   3.457 -1.6164 -0.9638 -1.3991
 9821TIP3    H250955   4.045   4.235   3.463  0.7534  0.7784  0.4777
 9822TIP3   OH250956   6.437   3.962   3.313 -0.2095 -0.3350  0.7209
 9822TIP3    H150957   6.498   3.919   3.254  0.4396  1.2860  0.1884
 9822TIP3    H250958   6.351   3.949   3.273  0.3792  2.0540 -1.3950
 9823TIP3   OH250959   4.923   6.058  17.035 -0.0974 -0.1811  0.5577
 9823TIP3    H150960   4.945   5.978  16.987  2.8003  1.2202 -0.6079
 9823TIP3    H250961   4.965   6.046  17.120 -0.3698 -0.2508  0.6812
 9824TIP3   OH250962   3.760   3.938   2.599 -0.7347 -0.3901  0.0817
 9824TIP3    H150963   3.693   3.994   2.637 -1.3489 -2.1464  1.6896
 9824TIP3    H250964   3.835   3.996   2.584 -3.0079  1.8936 -3.0551
 9825TIP3   OH250965   1.474   5.886   5.779 -0.0132 -0.5395 -0.3066
 9825TIP3    H150966   1.424   5.932   5.847 -0.3449 -1.5634  0.1414
 9825TIP3    H250967   1.440   5.797   5.780  0.1669 -0.6361 -1.6387
 9826TIP3   OH250968   0.318   5.674  14.755  0.1905  0.3223  0.1664
 9826TIP3    H150969   0.410   5.660  14.776 -0.2716  0.1049  2.0942
 9826TIP3    H250970   0.292   5.594  14.707  0.8472  0.1426  0.1093
 9827TIP3   OH250971   6.784   1.426   1.451  0.3122 -0.0914  0.3446
 9827TIP3    H150972   6.862   1.437   1.396 -1.8521  0.8690 -2.6613
 9827TIP3    H250973   6.735   1.355   1.409 -1.5091  0.8205  0.8709
 9828TIP3   OH250974   5.808   3.668   4.184 -0.1251 -0.1272 -0.4976
 9828TIP3    H150975   5.857   3.681   4.103  0.1744 -0.0008 -0.2946
 9828TIP3    H250976   5.757   3.588   4.168  0.5898 -0.5874 -0.4850
 9829TIP3   OH250977   2.345   3.978  15.101  0.3856  0.2138 -0.1847
 9829TIP3    H150978   2.388   4.063  15.099 -0.9101  0.8841 -3.2595
 9829TIP3    H250979   2.252   3.998  15.104  0.0596 -1.0641 -1.3286
 9830TIP3   OH250980   5.224   1.973   2.340  0.1444 -0.7528  0.6724
 9830TIP3    H150981   5.207   1.919   2.263 -2.7141 -0.2179  0.8480
 9830TIP3    H250982   5.244   1.911   2.410 -0.1732 -1.4104  0.1784
 9831TIP3   OH250983   3.229   5.641  12.235 -0.1182  0.0923  0.0070
 9831TIP3    H150984   3.135   5.647  12.248 -0.5652  1.9161 -3.3776
 9831TIP3    H250985   3.264   5.724  12.268  0.2702 -0.4272  0.9148
 9832TIP3   OH250986   5.888   3.559   5.448  0.2644  0.2349  0.2109
 9832TIP3    H150987   5.858   3.508   5.522 -0.3791 -0.8025 -0.7418
 9832TIP3    H250988   5.969   3.514   5.420  0.0941  0.1680 -0.1760
 9833TIP3   OH250989   5.860   1.575  17.260 -0.4081  0.7093  0.1723
 9833TIP3    H150990   5.806   1.546  17.334  0.3664 -0.2315  0.3814
 9833TIP3    H250991   5.947   1.541  17.280 -0.7231 -1.8337 -2.4748
 9834TIP3   OH250992   4.362   6.151   4.154 -0.4626  0.7398  0.4356
 9834TIP3    H150993   4.394   6.075   4.203 -1.1572 -1.2933 -2.1884
 9834TIP3    H250994   4.440   6.188   4.113 -0.4587  0.0620 -0.1648
 9835TIP3   OH250995   0.183   4.025   4.862  0.9232 -0.0663 -0.7470
 9835TIP3    H150996   0.262   4.034   4.915 -0.2120  0.0430  0.9608
 9835TIP3    H250997   0.137   4.108   4.873 -1.6915 -1.7961  2.0476
 9836TIP3   OH250998   6.807   5.280  10.974  0.2515  0.0544 -0.4642
 9836TIP3    H150999   6.870   5.221  10.933  2.1575  0.4247  1.8430
 9836TIP3    H251000   6.812   5.260  11.067 -1.9616  1.1484 -0.0730
 9837TIP3   OH251001   4.992   1.049  17.251 -0.0138  0.4620 -0.0679
 9837TIP3    H151002   4.900   1.066  17.231 -0.3227  1.7018  2.2670
 9837TIP3    H251003   4.991   1.008  17.337  1.7613  3.0819  1.2634
 9838TIP3   OH251004   0.974   2.960  14.029 -0.3312 -0.6044  0.1943
 9838TIP3    H151005   1.024   2.962  13.948 -0.8448  0.4398 -0.1067
 9838TIP3    H251006   0.949   2.868  14.040 -2.3270 -0.3975 -2.1149
 9839TIP3   OH251007   5.180   3.156  13.454 -0.4412 -0.8471  0.5640
 9839TIP3    H151008   5.272   3.144  13.478  0.1947  0.9623 -0.8551
 9839TIP3    H251009   5.147   3.219  13.517  0.2168  1.0380 -0.9314
 9840TIP3   OH251010   6.401   2.921  16.847  0.0514 -0.5356 -0.2773
 9840TIP3    H151011   6.331   2.875  16.892  0.1925 -0.3783  0.1095
 9840TIP3    H251012   6.361   3.002  16.816 -0.1203 -0.7781 -0.6954
 9841TIP3   OH251013   0.645   1.314   4.402 -0.0606  0.3640 -0.5540
 9841TIP3    H151014   0.596   1.235   4.422  0.0126  0.1652 -1.1559
 9841TIP3    H251015   0.589   1.385   4.433 -1.0858  0.1725 -1.9345
 9842TIP3   OH251016   6.325   5.754  14.806 -0.1184  0.2175  0.0686
 9842TIP3    H151017   6.285   5.751  14.719 -2.8897  0.8301  1.2516
 9842TIP3    H251018   6.260   5.712  14.864  0.6727  1.7486  2.1558
 9843TIP3   OH251019   0.892   4.216   5.138 -0.0469 -0.1271  0.3087
 9843TIP3    H151020   0.851   4.302   5.129 -2.7895 -1.4901 -0.8841
 9843TIP3    H251021   0.856   4.181   5.220 -0.9265 -1.1113 -0.4723
 9844TIP3   OH251022   5.822   0.420  10.740 -0.9696  0.2361 -0.3101
 9844TIP3    H151023   5.764   0.346  10.757 -1.5296  1.0968  1.6795
 9844TIP3    H251024   5.771   0.497  10.766  0.4458  1.1319 -0.1367
 9845TIP3   OH251025   5.097   3.500   4.912 -0.3588 -0.1773  0.4661
 9845TIP3    H151026   5.169   3.439   4.928  1.3428  1.5765 -0.2312
 9845TIP3    H251027   5.080   3.493   4.818 -0.7002 -0.1974  0.5323
 9846TIP3   OH251028   3.535   0.787   2.876 -0.1541 -0.7827  0.5576
 9846TIP3    H151029   3.597   0.726   2.917  0.9027  0.1626  0.3678
 9846TIP3    H251030   3.502   0.840   2.949 -1.1424 -1.6217  0.7363
 9847TIP3   OH251031   3.433   6.747   1.746  0.2535  0.1382 -0.0353
 9847TIP3    H151032   3.419   6.840   1.765 -0.3563  0.4965 -2.1282
 9847TIP3    H251033   3.496   6.719   1.813  0.6206  2.1004  0.4967
 9848TIP3   OH251034   0.589   6.041   4.542 -0.5431 -0.7101  0.1504
 9848TIP3    H151035   0.650   5.986   4.592  1.9444  2.4894  0.8352
 9848TIP3    H251036   0.524   6.070   4.606  0.6561  0.6077  0.7993
 9849TIP3   OH251037   4.298   0.137   0.596 -0.3955 -0.2344  0.1054
 9849TIP3    H151038   4.282   0.203   0.529 -1.0861 -2.6437 -2.1764
 9849TIP3    H251039   4.392   0.120   0.591 -0.8954 -2.6036 -2.4583
 9850TIP3   OH251040   5.801   2.461  13.086 -0.0520 -0.3053  0.1412
 9850TIP3    H151041   5.825   2.538  13.138 -0.0675 -0.8474  0.9521
 9850TIP3    H251042   5.824   2.485  12.996  2.4613 -0.3693  0.7406
 9851TIP3   OH251043   1.124   5.140   0.609  0.4638 -0.5016 -0.5370
 9851TIP3    H151044   1.116   5.229   0.575  0.8526 -1.2062 -2.5571
 9851TIP3    H251045   1.035   5.117   0.636  0.0804  0.0093 -1.3222
 9852TIP3   OH251046   6.178   5.002  17.192 -0.1592  0.1821  0.0278
 9852TIP3    H151047   6.116   5.035  17.127  0.1079  2.7359  1.0062
 9852TIP3    H251048   6.249   5.066  17.192  1.0885 -1.1632  1.0054
 9853TIP3   OH251049   6.299   6.190   4.355 -0.6005 -0.5032  0.1670
 9853TIP3    H151050   6.350   6.109   4.357 -0.2697 -0.3866 -1.8363
 9853TIP3    H251051   6.209   6.161   4.341 -1.0267 -0.6760  3.0280
 9854TIP3   OH251052   3.211   4.665   1.810  0.1768 -0.9287 -0.5322
 9854TIP3    H151053   3.215   4.712   1.893 -1.4468 -0.1356 -0.8861
 9854TIP3    H251054   3.148   4.595   1.826 -2.0479  0.7205 -1.7967
 9855TIP3   OH251055   1.490   6.737  14.143 -0.6285  0.0773  0.0246
 9855TIP3    H151056   1.431   6.673  14.183  0.5368 -0.2726  1.1972
 9855TIP3    H251057   1.559   6.750  14.208  1.6531 -0.9745 -2.0914
 9856TIP3   OH251058   6.359   1.613  13.337  0.0153  0.0415 -0.0231
 9856TIP3    H151059   6.363   1.620  13.432 -1.8826 -1.2098  0.2032
 9856TIP3    H251060   6.328   1.523  13.321 -3.9675  1.5503 -1.6365
 9857TIP3   OH251061   5.223   4.387  16.009 -0.0765  0.0697  0.2300
 9857TIP3    H151062   5.216   4.439  16.089  0.6943  0.3498  0.1223
 9857TIP3    H251063   5.181   4.441  15.942  2.5685  1.5422 -0.3259
 9858TIP3   OH251064   2.739   1.088  17.026  0.3154  0.6568  0.2275
 9858TIP3    H151065   2.775   1.012  16.981  2.3717  1.0376  1.1702
 9858TIP3    H251066   2.739   1.157  16.960  2.0208  0.8414  0.3965
 9859TIP3   OH251067   0.862   6.686  13.942 -0.1324  0.3064 -0.5475
 9859TIP3    H151068   0.830   6.681  13.852  1.3388 -2.6699 -0.9660
 9859TIP3    H251069   0.854   6.597  13.976  1.0462  0.9996  1.6679
 9860TIP3   OH251070   4.316   0.475   1.808  0.2955 -0.3515  0.2846
 9860TIP3    H151071   4.408   0.487   1.787 -0.0834  1.1148 -0.6382
 9860TIP3    H251072   4.269   0.528   1.743 -1.0782  1.0202  2.3011
 9861TIP3   OH251073   2.086   6.005   5.134  0.3864 -0.2312 -0.0967
 9861TIP3    H151074   2.039   6.043   5.208  0.1979 -2.0078  0.7188
 9861TIP3    H251075   2.101   5.914   5.159  1.6547 -0.4671 -1.6059
 9862TIP3   OH251076   0.275   4.659   4.295  0.0927  0.1100  0.0679
 9862TIP3    H151077   0.339   4.589   4.297  0.9581  0.8902 -0.0550
 9862TIP3    H251078   0.293   4.706   4.213 -0.5252  0.4292  0.1102
 9863TIP3   OH251079   4.833   1.044   3.525  0.1999 -0.1146  0.7073
 9863TIP3    H151080   4.778   0.988   3.580 -0.6171 -0.0581 -0.0421
 9863TIP3    H251081   4.776   1.118   3.502  0.4227 -0.3263 -0.5124
 9864TIP3   OH251082   6.013   4.322  14.909 -0.3167 -0.1170  0.0861
 9864TIP3    H151083   5.983   4.285  14.991  2.1431 -0.7921  0.7134
 9864TIP3    H251084   6.064   4.399  14.934  1.4818 -1.0155 -0.6950
 9865TIP3   OH251085   2.696   4.722   1.322 -1.5021 -0.0741  0.6457
 9865TIP3    H151086   2.730   4.811   1.309  1.0581 -0.9267  1.2901
 9865TIP3    H251087   2.651   4.725   1.406  0.8785 -0.0192  1.9525
 9866TIP3   OH251088   2.503   3.381   5.028  0.3641 -0.1739  0.2339
 9866TIP3    H151089   2.470   3.293   5.049 -0.7814 -0.4468 -2.4669
 9866TIP3    H251090   2.449   3.440   5.082 -0.8097 -0.9621 -0.0641
 9867TIP3   OH251091   3.257   1.923   0.910  0.0388  0.1799  0.3448
 9867TIP3    H151092   3.241   2.009   0.949  0.7905 -0.0922  1.2857
 9867TIP3    H251093   3.246   1.937   0.816 -1.7214  0.8758  0.6315
 9868TIP3   OH251094   3.608   2.774   0.004  0.1851  0.1760 -0.2820
 9868TIP3    H151095   3.571   2.798  -0.081 -1.4810 -0.6777  0.1611
 9868TIP3    H251096   3.551   2.703   0.035  1.6749 -0.5341  0.8694
 9869TIP3   OH251097   4.290   3.719  13.845  0.0158  0.3111  0.3548
 9869TIP3    H151098   4.300   3.732  13.751  3.1336  0.2141  0.6165
 9869TIP3    H251099   4.358   3.774  13.884  1.1870 -2.4394  2.3409
 9870TIP3   OH251100   3.970   5.040  13.160 -0.3438  0.1346 -0.0062
 9870TIP3    H151101   4.051   4.995  13.138 -1.6553 -1.9400 -0.8175
 9870TIP3    H251102   3.996   5.129  13.181  2.3940 -1.1065  2.0587
 9871TIP3   OH251103   5.019   2.685  15.046  0.1624 -0.1716 -0.2354
 9871TIP3    H151104   5.030   2.777  15.070  0.3242 -0.7588  2.0300
 9871TIP3    H251105   4.945   2.685  14.985 -2.2735  1.0967  2.5593
 9872TIP3   OH251106   6.148   4.980  16.135  0.3367  0.6342 -0.2097
 9872TIP3    H151107   6.139   4.885  16.134 -1.3919  0.7013  2.4679
 9872TIP3    H251108   6.096   5.011  16.061 -1.5413 -0.3629  0.6713
 9873TIP3   OH251109   1.671   4.541  13.205 -0.3395 -0.0165 -0.5693
 9873TIP3    H151110   1.603   4.575  13.264  0.2063  0.5390 -0.2549
 9873TIP3    H251111   1.643   4.452  13.185 -1.6079  0.4917 -1.1116
 9874TIP3   OH251112   1.432   1.480   3.969  0.2778 -0.0186 -0.0341
 9874TIP3    H151113   1.371   1.482   3.896  0.6242 -0.4925 -0.3423
 9874TIP3    H251114   1.505   1.535   3.940  1.0727 -1.3725 -0.6458
 9875TIP3   OH251115   6.049   1.719   6.984  0.1291 -0.0205 -0.2671
 9875TIP3    H151116   6.118   1.785   6.980  0.4751 -0.5206 -3.3942
 9875TIP3    H251117   5.970   1.765   6.956 -0.1632 -0.2736  0.1340
 9876TIP3   OH251118   3.316   2.816   3.178  0.1198 -0.6992 -0.8839
 9876TIP3    H151119   3.251   2.846   3.114  0.6464  0.2028 -0.9913
 9876TIP3    H251120   3.400   2.839   3.140  0.4159  0.5469  0.4896
 9877TIP3   OH251121   1.385   3.164   5.818 -0.7681  0.0735  0.0729
 9877TIP3    H151122   1.386   3.093   5.754  0.6202 -0.3138  0.5074
 9877TIP3    H251123   1.398   3.121   5.902 -1.4661  0.6954  0.5050
 9878TIP3   OH251124   5.518   6.601   1.505 -0.2294  0.5299  0.0171
 9878TIP3    H151125   5.510   6.510   1.534 -0.0011  0.4549 -0.1518
 9878TIP3    H251126   5.564   6.595   1.421  1.0155  0.9054  0.6613
 9879TIP3   OH251127   4.794   1.694  15.352  0.9606  0.2565  0.2221
 9879TIP3    H151128   4.784   1.789  15.360  0.6909  0.1704  0.9093
 9879TIP3    H251129   4.826   1.666  15.437 -2.0423 -0.6824  1.0793
 9880TIP3   OH251130   2.709   5.850   3.888 -0.0346  0.3716 -0.2405
 9880TIP3    H151131   2.742   5.760   3.878  0.3649  0.5126 -0.1728
 9880TIP3    H251132   2.616   5.838   3.906 -0.0180 -0.0275 -0.3881
 9881TIP3   OH251133   5.689   5.859  11.784 -0.0496 -0.2754 -0.2236
 9881TIP3    H151134   5.781   5.872  11.762  0.0887 -0.8554  0.0152
 9881TIP3    H251135   5.682   5.767  11.807 -0.1172  0.3868  2.5654
 9882TIP3   OH251136   4.629   0.020   1.663 -0.0317 -0.6716 -0.2650
 9882TIP3    H151137   4.689  -0.040   1.708 -0.1933 -1.4171 -1.0387
 9882TIP3    H251138   4.621   0.094   1.723 -0.4227 -1.7502  1.0471
 9883TIP3   OH251139   1.267   4.100  13.878 -0.1174 -0.3231 -0.5731
 9883TIP3    H151140   1.268   4.170  13.813  0.8918 -1.4817 -1.8491
 9883TIP3    H251141   1.207   4.131  13.946 -0.1952  1.4742 -1.4263
 9884TIP3   OH251142   0.640   0.555   0.103  0.0086  0.4585  0.1663
 9884TIP3    H151143   0.673   0.626   0.047  0.7174  0.0847  0.0935
 9884TIP3    H251144   0.699   0.482   0.084 -0.9069 -0.2480  0.0029
 9885TIP3   OH251145   1.563   6.315  16.146  0.6026 -0.5180  0.2106
 9885TIP3    H151146   1.550   6.407  16.124  0.3905 -0.7485 -0.6644
 9885TIP3    H251147   1.479   6.286  16.181  1.2826  0.1530  2.4802
 9886TIP3   OH251148   6.309   4.173  16.825  0.2192  0.3316  0.2074
 9886TIP3    H151149   6.216   4.193  16.809  0.4180  2.1357  1.2267
 9886TIP3    H251150   6.333   4.228  16.899  1.8952 -0.7677  0.5024
 9887TIP3   OH251151   1.674   4.450  15.046  0.3070  0.3789  0.6660
 9887TIP3    H151152   1.705   4.438  15.136  0.8379 -0.1017  0.4262
 9887TIP3    H251153   1.625   4.370  15.028  2.7356 -0.9196 -0.4859
 9888TIP3   OH251154   6.151   4.001   1.277 -0.2320 -0.2499 -0.1724
 9888TIP3    H151155   6.215   4.050   1.330  0.3382 -0.6346 -0.5051
 9888TIP3    H251156   6.180   3.910   1.282  0.5543 -0.1483 -2.1346
 9889TIP3   OH251157   3.524   6.150   6.102  0.2889  0.6847  0.4575
 9889TIP3    H151158   3.514   6.104   6.019  1.1141  1.4487 -0.0797
 9889TIP3    H251159   3.442   6.134   6.149 -0.3923  0.6728 -0.7266
 9890TIP3   OH251160   4.392   3.875   1.335  0.1241 -0.5937  0.4206
 9890TIP3    H151161   4.449   3.949   1.358 -0.8307  0.4245 -0.4203
 9890TIP3    H251162   4.361   3.895   1.247 -0.8290 -1.5727  0.5203
 9891TIP3   OH251163   6.623   6.530   5.782  0.4199  0.1232 -0.3300
 9891TIP3    H151164   6.540   6.491   5.755 -0.0012 -0.7500  2.1238
 9891TIP3    H251165   6.685   6.503   5.714 -1.1355  0.2836 -1.8661
 9892TIP3   OH251166   5.656   4.025   3.084  0.0894  0.5294  0.4912
 9892TIP3    H151167   5.613   4.077   3.017  0.8659  0.3994 -0.1145
 9892TIP3    H251168   5.701   3.956   3.036 -0.6219 -0.4856  1.2676
 9893TIP3   OH251169   2.110   1.532   2.893 -0.1415 -0.1645  0.1231
 9893TIP3    H151170   2.129   1.556   2.803 -1.0260 -1.1403 -0.3289
 9893TIP3    H251171   2.016   1.550   2.904 -0.1922 -0.6956  0.6326
 9894TIP3   OH251172   2.934   4.614  13.805 -0.3442  0.2651  0.2380
 9894TIP3    H151173   2.874   4.634  13.877  0.8428 -4.2579  2.6390
 9894TIP3    H251174   3.018   4.650  13.832 -0.4178  0.6424 -0.0235
 9895TIP3   OH251175   0.490   6.583  13.350  0.3421 -0.0531  0.0953
 9895TIP3    H151176   0.445   6.500  13.333  0.1811  0.1866 -0.6458
 9895TIP3    H251177   0.484   6.631  13.268  2.2037 -0.1214 -0.0983
 9896TIP3   OH251178   1.736   6.357  14.567 -0.7901  0.2986  0.1883
 9896TIP3    H151179   1.700   6.280  14.521  1.2524 -0.4352 -0.2375
 9896TIP3    H251180   1.749   6.422  14.498  0.0766  0.0286  0.0885
 9897TIP3   OH251181   5.182   0.125   2.439 -0.1366  0.7736  0.1230
 9897TIP3    H151182   5.235   0.142   2.362 -1.0217  0.3561 -0.5925
 9897TIP3    H251183   5.235   0.066   2.493  0.3316  0.7764 -0.3347
 9898TIP3   OH251184   3.001   0.494  14.018  0.3467 -0.4887  0.7024
 9898TIP3    H151185   2.981   0.443  13.939  0.7723  1.1660 -0.4959
 9898TIP3    H251186   3.014   0.428  14.086 -0.1257 -1.9423 -0.5824
 9899TIP3   OH251187   5.676   1.324  11.941 -0.7010 -0.0027 -0.7721
 9899TIP3    H151188   5.614   1.377  11.991  0.3157 -0.8628  1.4538
 9899TIP3    H251189   5.747   1.384  11.918 -0.7611  0.1992 -0.4299
 9900TIP3   OH251190   4.862   5.831  11.171  0.4042 -0.5863 -0.5094
 9900TIP3    H151191   4.902   5.747  11.149 -0.4132 -1.0932 -0.0638
 9900TIP3    H251192   4.786   5.837  11.113  0.2996 -0.2777 -0.3412
 9901TIP3   OH251193   0.292   1.727  15.780  0.1984 -0.1651 -0.0441
 9901TIP3    H151194   0.330   1.701  15.864 -0.7792 -1.3797  0.0431
 9901TIP3    H251195   0.366   1.729  15.720  1.0690  1.6704  1.0464
 9902TIP3   OH251196   5.229   4.119   4.749  0.2180  0.5624 -0.2912
 9902TIP3    H151197   5.257   4.211   4.745 -1.9925  1.2559 -0.6138
 9902TIP3    H251198   5.261   4.081   4.667 -0.3259  1.4948 -0.9421
 9903TIP3   OH251199   2.560   6.753  16.101  0.5902 -0.5762  0.0989
 9903TIP3    H151200   2.480   6.790  16.064 -0.0175 -0.3629  1.5859
 9903TIP3    H251201   2.531   6.674  16.147  0.5137  1.7191  4.2332
 9904TIP3   OH251202   1.462   2.787  13.853 -0.1645  0.0349 -0.5658
 9904TIP3    H151203   1.439   2.877  13.831 -1.0283 -0.3939 -1.4559
 9904TIP3    H251204   1.427   2.735  13.781 -1.4816 -1.2236  0.9544
 9905TIP3   OH251205   3.510   6.653   2.388 -0.2588  0.0197  0.3475
 9905TIP3    H151206   3.443   6.700   2.438 -0.7646 -0.0184 -0.2803
 9905TIP3    H251207   3.586   6.651   2.445  0.5301  3.5510 -0.4616
 9906TIP3   OH251208   3.165   1.105   3.323  0.3111  0.0141  0.1565
 9906TIP3    H151209   3.150   1.036   3.387  0.5758 -0.2408 -0.0524
 9906TIP3    H251210   3.257   1.127   3.332  0.4058 -0.1856 -0.2919
 9907TIP3   OH251211   1.427   4.048   2.297 -0.7472  0.1779  0.7980
 9907TIP3    H151212   1.464   4.132   2.324  0.8775 -0.4425  0.5115
 9907TIP3    H251213   1.339   4.070   2.265  0.4314  2.0502 -1.2376
 9908TIP3   OH251214   2.612   5.750   5.745  0.0377 -0.0076  0.7711
 9908TIP3    H151215   2.572   5.665   5.762 -0.2118 -0.3526 -1.3668
 9908TIP3    H251216   2.706   5.732   5.740  0.0512 -0.0227  1.0639
 9909TIP3   OH251217   2.240   0.208   0.642  0.0518 -0.3051 -1.0117
 9909TIP3    H151218   2.304   0.255   0.588  0.0664 -0.2487 -0.9460
 9909TIP3    H251219   2.259   0.236   0.732  0.0597 -0.4373 -0.9725
 9910TIP3   OH251220   4.082   5.755  13.802  0.3237  0.1819 -0.1173
 9910TIP3    H151221   4.032   5.803  13.867 -0.5739 -2.5327  1.2905
 9910TIP3    H251222   4.069   5.663  13.825  3.5012 -0.7149 -1.5349
 9911TIP3   OH251223   3.001   3.376  13.783 -0.3093  0.6018  0.4751
 9911TIP3    H151224   3.064   3.319  13.737 -1.5199  0.1508 -0.6506
 9911TIP3    H251225   2.928   3.318  13.804 -1.1833  1.5604  0.0841
 9912TIP3   OH251226   4.339   1.939  10.782 -0.4951  0.0135  0.0045
 9912TIP3    H151227   4.398   1.995  10.831 -0.7274  2.2196 -2.1200
 9912TIP3    H251228   4.374   1.940  10.692 -2.3488 -0.5787 -0.7544
 9913TIP3   OH251229   3.367   6.806   0.908 -0.6784 -0.0581 -0.2443
 9913TIP3    H151230   3.457   6.835   0.921  0.0096 -2.2020  0.0582
 9913TIP3    H251231   3.344   6.836   0.820 -0.0028  1.2870  0.0232
 9914TIP3   OH251232   5.957   2.310   1.219  0.4663 -0.3315  0.1146
 9914TIP3    H151233   5.895   2.292   1.289  1.1481 -3.1482  0.0634
 9914TIP3    H251234   5.929   2.253   1.147  3.1830 -1.7945  0.1569
 9915TIP3   OH251235   4.716   4.904  14.773 -0.0893 -0.5726  0.4970
 9915TIP3    H151236   4.739   4.965  14.703 -1.5752  0.2459  0.7022
 9915TIP3    H251237   4.799   4.886  14.817  0.2209  2.1425  1.0986
 9916TIP3   OH251238   5.137   2.561  11.489  0.0870 -0.0047  1.2666
 9916TIP3    H151239   5.190   2.621  11.436 -0.3903 -0.1585  0.6209
 9916TIP3    H251240   5.047   2.580  11.464 -0.1053 -0.4702  1.6105
 9917TIP3   OH251241   3.746   2.008  15.469  0.3542  1.1172 -0.9424
 9917TIP3    H151242   3.787   1.933  15.427 -1.9886  0.0134 -1.3434
 9917TIP3    H251243   3.818   2.058  15.507  1.9986 -0.9215 -1.3588
 9918TIP3   OH251244   6.392   4.912   3.508 -0.2933  0.1401 -0.3662
 9918TIP3    H151245   6.459   4.979   3.496 -1.6657  1.3925 -1.1437
 9918TIP3    H251246   6.438   4.840   3.552  1.4246  1.1840 -0.4100
 9919TIP3   OH251247   0.463   5.388   1.471 -0.1237 -0.1378  0.2010
 9919TIP3    H151248   0.459   5.459   1.408  1.5208 -0.2358 -0.0326
 9919TIP3    H251249   0.426   5.313   1.425  0.3404 -0.0130 -0.3732
 9920TIP3   OH251250   5.575   2.920   1.227 -0.1935  0.1152  0.1584
 9920TIP3    H151251   5.597   3.013   1.218  1.6151 -0.4166 -1.1796
 9920TIP3    H251252   5.549   2.911   1.318  0.9977  1.6859  0.6872
 9921TIP3   OH251253   3.842   1.448   5.246 -0.3986 -0.0557 -0.2030
 9921TIP3    H151254   3.888   1.465   5.163  2.0136 -1.2962  0.8231
 9921TIP3    H251255   3.888   1.372   5.283 -0.1066  1.7088  3.2215
 9922TIP3   OH251256   5.654   5.429  13.451  0.4239  0.5016 -0.6184
 9922TIP3    H151257   5.712   5.480  13.508 -0.6401  0.0695  0.8792
 9922TIP3    H251258   5.627   5.491  13.383  0.9943  1.2791 -0.1421
 9923TIP3   OH251259   0.499   0.679  14.813  0.9003  0.4686  0.7787
 9923TIP3    H151260   0.433   0.638  14.756  0.1710  1.7455  0.6844
 9923TIP3    H251261   0.581   0.638  14.787  0.4120  0.2210 -0.4424
 9924TIP3   OH251262   0.021   4.210   2.625 -0.5527 -0.6298 -0.1556
 9924TIP3    H151263  -0.058   4.258   2.599 -0.6022 -1.2940 -1.2526
 9924TIP3    H251264   0.093   4.271   2.610 -0.7474 -0.4156 -0.2163
 9925TIP3   OH251265   1.116   5.281  12.383  0.0890  0.3188  0.0462
 9925TIP3    H151266   1.165   5.207  12.417 -0.6720  0.2737  1.0474
 9925TIP3    H251267   1.167   5.311  12.307  0.2390 -1.3923 -0.5308
 9926TIP3   OH251268   1.085   5.956   4.650  0.4818 -0.7780  0.1874
 9926TIP3    H151269   1.069   5.877   4.598 -0.2750 -0.8151  0.4688
 9926TIP3    H251270   1.178   5.973   4.640  0.1322 -0.1339 -2.1100
 9927TIP3   OH251271   0.589   0.896  14.347 -0.3409 -0.0927 -0.0364
 9927TIP3    H151272   0.602   0.804  14.324  0.6860  0.5154 -2.0240
 9927TIP3    H251273   0.590   0.897  14.443  4.4460 -1.5398  0.0868
 9928TIP3   OH251274   2.921   3.693   0.937 -0.2292 -0.0195  0.8097
 9928TIP3    H151275   2.907   3.648   0.854  1.6889 -0.8640  0.9196
 9928TIP3    H251276   2.929   3.786   0.914  2.8074 -0.5031 -0.3044
 9929TIP3   OH251277   3.537   6.118  13.627 -0.2689 -0.4736 -0.1420
 9929TIP3    H151278   3.580   6.137  13.710 -0.0211  1.5480 -0.7106
 9929TIP3    H251279   3.456   6.075  13.651  0.1901 -0.6593  1.1093
 9930TIP3   OH251280   6.395   3.146   1.436  0.3586  0.1999  0.1086
 9930TIP3    H151281   6.333   3.177   1.370 -1.6849  2.5442  3.0307
 9930TIP3    H251282   6.348   3.078   1.484  1.7448 -1.3182 -0.6499
 9931TIP3   OH251283   4.657   3.006  11.977 -0.1974  0.4585  0.1203
 9931TIP3    H151284   4.677   3.092  12.013 -0.5139 -0.0112  1.4603
 9931TIP3    H251285   4.570   3.016  11.937  0.7503  1.3450 -1.7975
 9932TIP3   OH251286   2.132   6.035   4.390 -0.1914  0.3521 -0.2217
 9932TIP3    H151287   2.202   6.010   4.451 -0.5600  2.5929  1.1537
 9932TIP3    H251288   2.171   6.023   4.303  2.0345  1.8481  0.5288
 9933TIP3   OH251289   5.559   4.801  14.075 -0.3695  0.4093 -0.2644
 9933TIP3    H151290   5.502   4.756  14.014  0.2517 -0.6204 -0.1041
 9933TIP3    H251291   5.500   4.849  14.133 -0.9734  1.0134 -1.3755
 9934TIP3   OH251292   0.163   2.411   2.320 -0.2358  0.4412  0.2405
 9934TIP3    H151293   0.252   2.399   2.355 -0.4528 -0.8616  0.3351
 9934TIP3    H251294   0.126   2.323   2.316 -1.9222  1.0806  1.2076
 9935TIP3   OH251295   0.733   2.878  10.747  0.0235 -0.3305  0.1096
 9935TIP3    H151296   0.812   2.918  10.783  0.6055 -0.6620 -0.7985
 9935TIP3    H251297   0.677   2.862  10.823  1.3462 -1.2407  0.9071
 9936TIP3   OH251298   2.861   0.470  14.794  0.3418  0.3234  0.0392
 9936TIP3    H151299   2.946   0.450  14.755  0.7809  0.8532  0.7130
 9936TIP3    H251300   2.856   0.566  14.794 -0.6264  0.2843 -0.7858
 9937TIP3   OH251301   3.763   2.064  11.807 -0.0027 -0.2156  0.1334
 9937TIP3    H151302   3.733   2.051  11.897  0.1547  1.9048  0.5104
 9937TIP3    H251303   3.794   2.154  11.805 -1.7890  0.3999 -2.5306
 9938TIP3   OH251304   1.910   0.607  11.050 -0.2228  0.5124  0.3554
 9938TIP3    H151305   1.824   0.637  11.020 -1.0227 -0.6911  1.3793
 9938TIP3    H251306   1.927   0.529  10.998 -0.4020 -0.0577  1.1449
 9939TIP3   OH251307   4.937   3.939   0.434  0.3136 -0.7768 -0.3285
 9939TIP3    H151308   4.996   3.989   0.378 -0.0748 -2.6552 -2.5050
 9939TIP3    H251309   4.995   3.880   0.483  0.5140 -0.3469 -0.0491
 9940TIP3   OH251310   3.089   1.411   0.097 -0.2120 -0.1765  0.7924
 9940TIP3    H151311   3.041   1.450   0.170 -0.0874  0.0201  0.7688
 9940TIP3    H251312   3.024   1.406   0.026  0.2784  1.7729  0.1746
 9941TIP3   OH251313   6.184   0.615   4.666 -0.1437  0.0436 -0.3684
 9941TIP3    H151314   6.138   0.699   4.669  0.5845  0.4389  0.0597
 9941TIP3    H251315   6.137   0.563   4.602  0.0604  1.1786 -1.4555
 9942TIP3   OH251316   6.596   2.780   3.181 -0.5317  0.1950 -0.4559
 9942TIP3    H151317   6.535   2.735   3.122  1.0215 -2.1948 -0.3192
 9942TIP3    H251318   6.607   2.867   3.143 -3.9051  0.6374 -0.5357
 9943TIP3   OH251319   2.969   2.923  12.119 -0.5482 -0.1730 -1.1178
 9943TIP3    H151320   2.983   2.835  12.085  1.1001  0.5239 -2.3764
 9943TIP3    H251321   2.934   2.911  12.207  0.9203 -2.0937 -0.7745
 9944TIP3   OH251322   3.556   4.776   5.260  0.8248 -0.0241  0.3749
 9944TIP3    H151323   3.489   4.822   5.309  1.8060  2.9299 -0.9391
 9944TIP3    H251324   3.594   4.715   5.323 -3.0158 -1.7569  1.1277
 9945TIP3   OH251325   1.351   1.937   3.046 -0.0507 -0.0143  0.0572
 9945TIP3    H151326   1.298   1.913   3.122 -0.7067 -0.4622 -0.5316
 9945TIP3    H251327   1.441   1.926   3.075 -0.2025  2.8578  1.7570
 9946TIP3   OH251328   2.130   2.911  15.757  0.1358  0.0924  0.4213
 9946TIP3    H151329   2.136   2.816  15.767 -1.7912  0.0687  1.5960
 9946TIP3    H251330   2.078   2.924  15.678 -1.8215  0.1059  1.6600
 9947TIP3   OH251331   4.176   0.034  17.023  0.6037 -0.2051 -0.0865
 9947TIP3    H151332   4.134   0.070  16.945  3.2699 -1.6814 -2.3034
 9947TIP3    H251333   4.248   0.095  17.040 -0.8604  0.9433  2.1736
 9948TIP3   OH251334   0.832   4.536  15.544 -0.1668  0.3885  0.0152
 9948TIP3    H151335   0.904   4.490  15.501 -0.6354  0.1741 -0.5485
 9948TIP3    H251336   0.800   4.474  15.610  0.6490  0.7754  0.7907
 9949TIP3   OH251337   5.166   6.592  12.833 -0.0655  0.5173  0.3187
 9949TIP3    H151338   5.192   6.681  12.857  1.8615 -0.0676  0.4299
 9949TIP3    H251339   5.088   6.575  12.886 -0.6746  2.2614  0.0320
 9950TIP3   OH251340   1.594   5.551   1.529 -0.1851  0.0818 -0.2081
 9950TIP3    H151341   1.522   5.614   1.528  0.1489  0.4652 -0.3824
 9950TIP3    H251342   1.621   5.544   1.437 -0.6140 -0.7735 -0.2769
 9951TIP3   OH251343   4.856   3.800   6.371  0.3022 -0.2766  0.1338
 9951TIP3    H151344   4.786   3.864   6.366 -0.4475 -0.9720  1.3182
 9951TIP3    H251345   4.929   3.847   6.411  1.0140  0.8446 -2.3981
 9952TIP3   OH251346   0.834   1.856   2.105 -0.3036 -0.4046  0.3634
 9952TIP3    H151347   0.909   1.838   2.161 -0.0651  0.4539  0.3287
 9952TIP3    H251348   0.842   1.794   2.032 -0.0329 -0.8043  0.7327
 9953TIP3   OH251349   2.703   5.021   2.674 -0.3588 -0.5920 -0.1958
 9953TIP3    H151350   2.623   4.977   2.646 -0.3444  0.2191 -1.5652
 9953TIP3    H251351   2.710   5.098   2.617  1.1443 -0.3922  0.2221
 9954TIP3   OH251352   0.613   2.897  13.454 -0.4748 -0.0536 -0.4052
 9954TIP3    H151353   0.547   2.898  13.385  2.3685  0.6731 -3.2650
 9954TIP3    H251354   0.630   2.989  13.473 -2.1106 -0.2312  2.2577
 9955TIP3   OH251355   5.969   2.935   5.460 -0.0282  0.0161 -0.1822
 9955TIP3    H151356   5.989   3.024   5.432  0.0094  0.3283  0.7866
 9955TIP3    H251357   5.877   2.922   5.436  0.4165 -0.2535 -1.7341
 9956TIP3   OH251358   4.089   2.696  16.079  0.7457 -0.5681 -0.1017
 9956TIP3    H151359   4.113   2.762  16.013 -0.0008 -0.0782  0.1166
 9956TIP3    H251360   4.125   2.731  16.161 -0.6296  0.1424  0.2169
 9957TIP3   OH251361   1.966   6.125   5.358 -0.4125 -0.0664 -0.4992
 9957TIP3    H151362   1.878   6.158   5.342 -0.9616 -0.5729  1.3746
 9957TIP3    H251363   1.958   6.071   5.437  1.7690  0.7355  0.3204
 9958TIP3   OH251364   1.363   6.631  14.412  0.3033  0.0218  0.0121
 9958TIP3    H151365   1.279   6.677  14.404  1.2861  1.6629 -1.2648
 9958TIP3    H251366   1.341   6.539  14.400 -1.4743  0.3149  0.8323
 9959TIP3   OH251367   1.512   6.293  11.858 -0.3633  0.1246  0.2843
 9959TIP3    H151368   1.577   6.229  11.830 -1.6388 -0.0464 -2.5094
 9959TIP3    H251369   1.563   6.371  11.880  0.9160 -0.5893 -0.1140
 9960TIP3   OH251370   1.400   3.342  14.500  0.3219 -0.1012 -0.1877
 9960TIP3    H151371   1.314   3.343  14.459 -0.2085 -1.8024  0.8121
 9960TIP3    H251372   1.459   3.312  14.432 -0.1406 -0.4754 -0.4288
 9961TIP3   OH251373   1.340   0.454  17.195  0.4760 -0.0492 -0.6687
 9961TIP3    H151374   1.319   0.368  17.232 -1.7859  0.9269  0.4373
 9961TIP3    H251375   1.415   0.484  17.245 -0.4562 -0.2051  0.8745
 9962TIP3   OH251376   0.436   4.447   3.523  0.0192 -0.5967  0.1372
 9962TIP3    H151377   0.354   4.408   3.553  1.1181 -1.6595  1.9003
 9962TIP3    H251378   0.451   4.409   3.436 -0.6341 -1.4985  0.4157
 9963TIP3   OH251379   5.772   3.241  11.063 -0.1535  0.8876  0.1891
 9963TIP3    H151380   5.813   3.272  11.144  0.0728  0.0007  0.4189
 9963TIP3    H251381   5.765   3.319  11.008  0.0760  1.4137  0.9000
 9964TIP3   OH251382   2.501   0.936   0.063  0.3483  0.5276  0.1264
 9964TIP3    H151383   2.551   1.017   0.053  0.5549  0.4505  0.5127
 9964TIP3    H251384   2.536   0.896   0.142 -0.5880  0.6535  0.6128
 9965TIP3   OH251385   4.446   4.482   4.884  0.1678  0.2341  0.3595
 9965TIP3    H151386   4.430   4.481   4.790 -2.1052  0.4948  0.7074
 9965TIP3    H251387   4.532   4.441   4.894  0.8216  1.0044 -1.8795
 9966TIP3   OH251388   1.892   0.349  15.448  0.7534 -0.0209 -0.6021
 9966TIP3    H151389   1.957   0.393  15.393 -1.1120  0.8980 -2.1243
 9966TIP3    H251390   1.847   0.289  15.389  0.1991 -0.6324  0.4257
 9967TIP3   OH251391   6.749   3.898  10.984 -0.0026  0.0253 -0.1661
 9967TIP3    H151392   6.669   3.871  10.940 -0.5374  0.3691  0.5839
 9967TIP3    H251393   6.789   3.817  11.016 -0.0005 -0.1531 -0.6203
 9968TIP3   OH251394   5.571   4.317   2.847  0.5840  0.1137  0.2036
 9968TIP3    H151395   5.652   4.365   2.833  0.1981  1.1072  1.2218
 9968TIP3    H251396   5.559   4.317   2.943 -0.6412  0.0440  0.0661
 9969TIP3   OH251397   0.782   1.873  15.983  0.1538 -0.3769 -0.0343
 9969TIP3    H151398   0.788   1.968  15.997 -2.5193 -0.2057  0.3241
 9969TIP3    H251399   0.771   1.837  16.071  2.4684 -1.1666 -0.0562
 9970TIP3   OH251400   1.554   2.423  11.800 -0.2004 -1.0043 -0.0077
 9970TIP3    H151401   1.521   2.511  11.783  3.6959  0.3062 -1.5379
 9970TIP3    H251402   1.637   2.438  11.846  0.1812 -3.8940  0.2995
 9971TIP3   OH251403   3.588   3.153   1.296 -0.2427  0.2026 -0.7385
 9971TIP3    H151404   3.674   3.142   1.337 -0.5094 -1.4931 -0.5927
 9971TIP3    H251405   3.526   3.121   1.362 -0.8520 -0.2565 -1.5255
 9972TIP3   OH251406   2.049   2.596  10.882  0.1801 -0.1805 -0.5022
 9972TIP3    H151407   2.100   2.522  10.914  0.2910  0.5370  1.0249
 9972TIP3    H251408   1.961   2.560  10.868 -0.1014 -0.3251  1.4763
 9973TIP3   OH251409   2.105   6.734   1.463  0.1510  0.1917  0.0569
 9973TIP3    H151410   2.155   6.809   1.431  0.6733  0.0791  0.6114
 9973TIP3    H251411   2.015   6.751   1.435  0.1570  1.3246  0.7249
 9974TIP3   OH251412   6.124   5.779  11.504  0.6012 -0.2709  0.1260
 9974TIP3    H151413   6.137   5.690  11.536 -2.5669 -1.4475 -1.5791
 9974TIP3    H251414   6.029   5.789  11.501  0.8830  2.2347 -2.1908
 9975TIP3   OH251415   0.162   4.991   3.477 -0.0088 -0.1073 -0.2737
 9975TIP3    H151416   0.187   4.907   3.439  1.3825 -0.7865  2.0186
 9975TIP3    H251417   0.213   4.996   3.558  0.2001  3.1009 -0.5437
 9976TIP3   OH251418   5.504   6.690   3.348 -0.0398 -0.5043 -0.3478
 9976TIP3    H151419   5.493   6.608   3.300 -2.5799  1.6209 -3.5890
 9976TIP3    H251420   5.535   6.752   3.282  1.1736  1.3509  1.8975
 9977TIP3   OH251421   3.895   3.330   3.731 -0.8492 -0.0057 -0.0629
 9977TIP3    H151422   3.887   3.361   3.641 -2.0529  0.6129  0.2383
 9977TIP3    H251423   3.805   3.328   3.764 -0.2957  1.3491  1.6365
 9978TIP3   OH251424   1.631   1.469  16.770 -0.9462  0.6176  0.8918
 9978TIP3    H151425   1.560   1.489  16.830 -1.9578  0.0639 -0.1053
 9978TIP3    H251426   1.601   1.393  16.720 -0.0732  0.9737 -0.2243
 9979TIP3   OH251427   2.960   3.990   4.384  0.0298 -0.5146 -0.5580
 9979TIP3    H151428   2.891   4.051   4.358  0.0387 -1.0470 -1.8681
 9979TIP3    H251429   2.952   3.983   4.479 -1.9160 -0.7906 -0.7211
 9980TIP3   OH251430   0.109   3.365   0.874 -0.0204 -0.1365 -0.4827
 9980TIP3    H151431   0.101   3.389   0.967 -0.1831  1.7547 -0.9526
 9980TIP3    H251432   0.136   3.447   0.831  1.3732 -1.3298 -1.9169
 9981TIP3   OH251433   2.034   6.326  12.062 -0.3420  0.1990  0.1751
 9981TIP3    H151434   1.965   6.266  12.091  0.6311 -1.2654 -0.5207
 9981TIP3    H251435   2.057   6.375  12.141 -1.5463  0.0862  0.6173
 9982TIP3   OH251436   5.946   5.259   2.310  0.3933  0.2595 -0.0398
 9982TIP3    H151437   5.930   5.201   2.235  2.1884 -0.3421  0.0140
 9982TIP3    H251438   5.866   5.253   2.363 -0.6212  0.1557 -1.5462
 9983TIP3   OH251439   2.926   6.468  13.209  0.2738  0.0281  0.4632
 9983TIP3    H151440   2.969   6.533  13.154 -1.3634 -0.1583 -1.0786
 9983TIP3    H251441   2.962   6.483  13.297  1.4894  1.6006 -0.2838
 9984TIP3   OH251442   2.626   5.809   0.294 -0.0812 -0.3919  0.0111
 9984TIP3    H151443   2.652   5.817   0.385  1.5495 -1.2472 -0.3581
 9984TIP3    H251444   2.574   5.728   0.290 -1.3015  0.3476  0.4019
 9985TIP3   OH251445   1.072   5.846   1.532  0.4706 -0.1401 -0.7284
 9985TIP3    H151446   1.126   5.831   1.610  1.4232 -0.8576 -1.5262
 9985TIP3    H251447   1.073   5.763   1.485 -1.0318 -0.0559 -0.9513
 9986TIP3   OH251448   1.403   1.319   4.903  0.6124  0.0389 -0.0933
 9986TIP3    H151449   1.342   1.283   4.967  0.5467 -3.1122 -1.8541
 9986TIP3    H251450   1.349   1.335   4.825  1.1439  1.6998 -0.1541
 9987TIP3   OH251451   4.565   3.081   5.391 -0.0761 -0.1345 -0.3146
 9987TIP3    H151452   4.604   3.027   5.460 -0.1188 -0.4289 -0.5164
 9987TIP3    H251453   4.480   3.108   5.427  2.0732  4.1603  1.9046
 9988TIP3   OH251454   2.113   3.736  16.533 -0.1338 -0.8542 -0.0387
 9988TIP3    H151455   2.163   3.747  16.614 -1.3581 -0.5129  0.6836
 9988TIP3    H251456   2.105   3.642  16.522 -1.2670 -0.9120  1.0755
 9989TIP3   OH251457   1.446   0.659   0.988  0.3127  0.4951 -0.1249
 9989TIP3    H151458   1.519   0.683   1.046 -0.9552  1.1868  1.2273
 9989TIP3    H251459   1.411   0.578   1.027  0.5197  0.0119 -0.9299
 9990TIP3   OH251460   6.067   6.252   5.676  0.0940  0.0622  0.3766
 9990TIP3    H151461   6.110   6.288   5.599  1.2157  2.5048  2.1062
 9990TIP3    H251462   5.975   6.278   5.666 -0.0889 -0.9540 -0.8514
 9991TIP3   OH251463   6.322   3.940   6.426  0.1037 -0.3937  0.7581
 9991TIP3    H151464   6.259   3.868   6.424 -0.0945 -0.2053 -0.0605
 9991TIP3    H251465   6.405   3.898   6.449  0.4871 -1.2803 -2.0658
 9992TIP3   OH251466   5.604   5.036   0.129 -0.1235  0.2509  0.5202
 9992TIP3    H151467   5.653   5.118   0.139  0.9901 -0.5723  1.8756
 9992TIP3    H251468   5.514   5.060   0.146 -0.0172  1.4864 -0.5436
 9993TIP3   OH251469   1.072   2.169  15.848  1.1607  0.3075 -0.0846
 9993TIP3    H151470   1.125   2.187  15.770  2.0751  0.5579  0.5847
 9993TIP3    H251471   0.982   2.187  15.821  1.3084 -1.0403 -1.5148
 9994TIP3   OH251472   4.250   4.264   5.321 -0.4209 -0.0212  0.3313
 9994TIP3    H151473   4.233   4.190   5.263  0.5987  0.4514 -0.5746
 9994TIP3    H251474   4.287   4.223   5.400 -2.3356 -0.7122  0.8852
 9995TIP3   OH251475   4.501   0.494  16.470  0.0908  0.6700  0.0211
 9995TIP3    H151476   4.472   0.418  16.521 -1.4332  0.9863 -0.3667
 9995TIP3    H251477   4.577   0.526  16.518  0.7650 -1.0961  0.1900
 9996TIP3   OH251478   0.075   0.607   0.270 -0.2318  0.1319  0.3585
 9996TIP3    H151479   0.162   0.599   0.230 -0.6323  0.4982 -0.5846
 9996TIP3    H251480   0.033   0.524   0.252 -1.5267  1.3743 -2.6610
 9997TIP3   OH251481   0.022   5.418  16.598 -0.1787  0.1917 -0.2858
 9997TIP3    H151482   0.092   5.477  16.624  0.2113 -0.6166  0.5535
 9997TIP3    H251483  -0.010   5.453  16.515 -0.5391  2.0603  0.6177
 9998TIP3   OH251484   4.225   6.641  12.954  0.0766 -0.1565 -0.4113
 9998TIP3    H151485   4.153   6.604  13.006 -0.4996 -0.1349 -1.1691
 9998TIP3    H251486   4.182   6.705  12.897  0.8310  0.4876 -0.2642
 9999TIP3   OH251487   5.672   6.449  14.300  0.2875  0.7380 -0.4485
 9999TIP3    H151488   5.624   6.460  14.218 -0.0592  0.3313 -0.3078
 9999TIP3    H251489   5.652   6.359  14.327 -1.3962  1.5629  1.2044
10000TIP3   OH251490   2.308   1.608  12.990  0.0783  0.2632  0.1139
10000TIP3    H151491   2.316   1.645  13.078 -0.4562  2.6593 -0.8082
10000TIP3    H251492   2.215   1.621  12.968  0.6855  1.7229 -1.6577
10001TIP3   OH251493   6.562   6.013  14.123  0.3734 -0.1111 -0.1131
10001TIP3    H151494   6.566   5.949  14.194 -1.8827  1.3990  1.4501
10001TIP3    H251495   6.646   6.058  14.125  0.3524 -0.1376  1.5833
10002TIP3   OH251496   0.528   6.322   2.794  0.1302 -0.2406  0.0771
10002TIP3    H151497   0.466   6.251   2.807 -0.7758  0.5913  0.3233
10002TIP3    H251498   0.488   6.378   2.728  0.0153  0.9714  1.1406
10003TIP3   OH251499   2.324   2.800  13.457 -0.1095 -0.1959 -0.0420
10003TIP3    H151500   2.414   2.767  13.450 -0.4012 -1.2475  0.9100
10003TIP3    H251501   2.312   2.815  13.551 -1.2589 -1.0462 -0.0415
10004TIP3   OH251502   2.981   3.029   4.069  0.1558  0.3701 -0.6417
10004TIP3    H151503   2.946   3.048   4.156  0.8209 -2.7216  0.3478
10004TIP3    H251504   2.930   3.085   4.010 -0.0815  2.7432  1.7240
10005TIP3   OH251505   3.618   5.765  11.763 -0.2105 -0.1693  0.5079
10005TIP3    H151506   3.614   5.790  11.671  1.2083 -0.6798  0.2935
10005TIP3    H251507   3.534   5.720  11.779  0.3210 -1.7915 -1.0589
10006TIP3   OH251508   5.373   1.908   0.136 -0.1695 -0.9061  0.0639
10006TIP3    H151509   5.280   1.933   0.138 -0.1506 -0.9621  3.5879
10006TIP3    H251510   5.420   1.987   0.160  0.6605 -1.1522 -0.7262
10007TIP3   OH251511   6.525   1.298  13.588 -0.0354  0.1426  0.4456
10007TIP3    H151512   6.562   1.307  13.676  2.2340  0.3084 -0.4951
10007TIP3    H251513   6.541   1.382  13.546 -0.5086 -0.1574 -0.3462
10008TIP3   OH251514   0.070   0.411  11.457 -0.5811 -0.0652  0.0828
10008TIP3    H151515   0.115   0.370  11.383 -0.2084 -0.1579  0.3616
10008TIP3    H251516   0.021   0.339  11.498 -2.0415  0.2884 -1.0025
10009TIP3   OH251517   4.296   3.384  14.293 -0.4796 -0.2312  0.0892
10009TIP3    H151518   4.347   3.421  14.365 -1.0899 -0.8735  0.8614
10009TIP3    H251519   4.301   3.289  14.306 -2.1563 -0.3030  0.3913
10010TIP3   OH251520   4.673   3.194   5.957 -0.1509 -0.6965  0.4183
10010TIP3    H151521   4.758   3.180   5.999 -0.0283  0.7432  0.7045
10010TIP3    H251522   4.694   3.243   5.878 -0.7060 -0.3326  0.4928
10011TIP3   OH251523   6.806   3.348   1.155 -0.2768  0.0471  0.0539
10011TIP3    H151524   6.742   3.288   1.192  1.2518 -0.2064  2.3767
10011TIP3    H251525   6.877   3.292   1.125  0.2746  0.5444  0.4271
10012TIP3   OH251526   0.175   1.189   2.951  0.3605 -0.3493 -0.2409
10012TIP3    H151527   0.224   1.124   3.002 -0.7787 -0.2798  0.9556
10012TIP3    H251528   0.222   1.271   2.965 -0.0146 -0.3077  0.7968
10013TIP3   OH251529   6.225   6.322  15.345  0.0225  0.1923 -0.0606
10013TIP3    H151530   6.188   6.370  15.272  0.3613  1.0301  0.3174
10013TIP3    H251531   6.157   6.258  15.368 -1.0710  1.4982  0.4162
10014TIP3   OH251532   4.120   1.849   2.464  0.0854 -0.2238 -0.2403
10014TIP3    H151533   4.049   1.791   2.439  0.6928 -0.4361 -1.5723
10014TIP3    H251534   4.200   1.800   2.443  0.6192  0.1871  0.7946
10015TIP3   OH251535   0.114   2.281   6.104  0.3806 -0.0368 -0.2356
10015TIP3    H151536   0.198   2.236   6.115 -0.3394 -1.3965 -0.0804
10015TIP3    H251537   0.117   2.353   6.167  0.3582 -1.7358  1.8051
10016TIP3   OH251538   0.973   5.862  14.023 -0.5361 -1.0269  0.0398
10016TIP3    H151539   1.046   5.875  14.083  0.0047  0.5080 -0.9393
10016TIP3    H251540   0.895   5.874  14.077 -0.0626 -0.6890  0.6493
10017TIP3   OH251541   5.068   3.249   5.198 -0.2725  0.3209  0.4092
10017TIP3    H151542   5.050   3.238   5.105 -2.2812  1.1031  0.6753
10017TIP3    H251543   4.987   3.284   5.234  1.0666  1.7482  2.1520
10018TIP3   OH251544   0.239   2.915  13.829 -0.7196 -0.2331 -0.0741
10018TIP3    H151545   0.227   2.945  13.919 -1.4259  0.2650 -0.3235
10018TIP3    H251546   0.310   2.969  13.795  0.2165 -1.0929  0.4757
10019TIP3   OH251547   4.721   5.614  12.738  0.1609 -0.0191  0.0474
10019TIP3    H151548   4.659   5.560  12.788  2.0142 -0.2701  2.1966
10019TIP3    H251549   4.711   5.702  12.774  1.7742 -0.2762  1.1792
10020TIP3   OH251550   2.480   5.608   1.958  0.8077 -0.2076  0.5660
10020TIP3    H151551   2.510   5.693   1.927 -1.5032  0.3171 -0.3334
10020TIP3    H251552   2.462   5.558   1.878 -1.0556 -0.3537  1.0379
10021TIP3   OH251553   5.386   5.168   2.077  0.4107  0.2093 -0.5316
10021TIP3    H151554   5.378   5.249   2.128 -0.0724 -0.9912  1.3662
10021TIP3    H251555   5.464   5.125   2.113  1.8134  0.7224 -2.8610
10022TIP3   OH251556   3.779   6.546   3.963 -0.1319  0.6179 -0.0411
10022TIP3    H151557   3.801   6.506   3.879 -1.1835  0.1145 -0.0744
10022TIP3    H251558   3.725   6.481   4.008 -1.6840  1.8991 -0.0115
10023TIP3   OH251559   3.706   3.235   6.456 -0.3511  0.2066 -0.6248
10023TIP3    H151560   3.638   3.178   6.420 -1.0039  1.9646 -2.3105
10023TIP3    H251561   3.757   3.262   6.379  2.1148 -0.8707  0.5925
10024TIP3   OH251562   3.360   6.167   6.409 -0.2401  0.0004  0.3733
10024TIP3    H151563   3.346   6.077   6.377 -0.9491  1.0111 -2.2942
10024TIP3    H251564   3.275   6.192   6.446  0.0111 -0.4717  1.2921
10025TIP3   OH251565   0.183   4.189  14.581  0.3861  0.1007  0.0721
10025TIP3    H151566   0.202   4.116  14.523  2.1734  0.1127  0.5990
10025TIP3    H251567   0.192   4.267  14.526  1.9558  0.1037  0.2949
10026TIP3   OH251568   4.970   2.907  11.363  0.4316  0.8162 -0.0414
10026TIP3    H151569   4.905   2.944  11.303 -1.1300  1.4689  1.9983
10026TIP3    H251570   4.926   2.832  11.403  0.7758  1.4707  1.6288
10027TIP3   OH251571   2.904   4.366   4.795 -0.0477 -0.2232  0.1572
10027TIP3    H151572   2.951   4.447   4.777  0.6156 -0.6497 -0.0508
10027TIP3    H251573   2.816   4.380   4.759  0.2301  0.1997 -0.3535
10028TIP3   OH251574   4.576   2.137   4.247  0.1030 -0.3804  0.3053
10028TIP3    H151575   4.622   2.220   4.249 -0.6676  0.0472  0.3404
10028TIP3    H251576   4.636   2.078   4.201  1.4733 -0.3280  1.9471
10029TIP3   OH251577   4.558   2.631   1.443  0.5761 -0.1683  0.1149
10029TIP3    H151578   4.498   2.597   1.509  0.3902  0.2598  0.1644
10029TIP3    H251579   4.595   2.553   1.402  0.0122 -0.4274  0.1053
10030TIP3   OH251580   1.770   0.148  15.322  0.5944  0.2183  0.6336
10030TIP3    H151581   1.797   0.057  15.332  0.3301  0.2497  1.6700
10030TIP3    H251582   1.733   0.153  15.234  1.2754 -0.5009  0.3013
10031TIP3   OH251583   0.851   1.691   4.939 -0.4189  0.1494  0.3205
10031TIP3    H151584   0.856   1.780   4.974  0.9412  0.7703 -1.3952
10031TIP3    H251585   0.812   1.701   4.852  1.5083 -0.6591 -0.6856
10032TIP3   OH251586   1.741   1.770   1.353 -1.2316  0.3269 -0.6820
10032TIP3    H151587   1.695   1.842   1.397 -1.2514  1.4336 -2.4748
10032TIP3    H251588   1.748   1.798   1.262  2.3799 -0.1318 -0.6139
10033TIP3   OH251589   3.161   5.105   5.635  0.4014  0.0626 -0.2423
10033TIP3    H151590   3.250   5.104   5.602  0.0181  4.4134 -1.7425
10033TIP3    H251591   3.170   5.117   5.729  1.4392  1.6676 -0.5243
10034TIP3   OH251592   4.444   2.016   2.646  0.1399 -0.2187 -0.2451
10034TIP3    H151593   4.507   2.045   2.712  0.3418 -0.4325 -0.3442
10034TIP3    H251594   4.498   1.990   2.571 -0.0604 -0.4904 -0.2947
10035TIP3   OH251595   2.125   6.038  10.306 -0.0093  0.8571 -0.5888
10035TIP3    H151596   2.206   6.087  10.323 -0.1039  0.1673  1.9512
10035TIP3    H251597   2.151   5.947  10.312 -0.7156  0.6192 -1.0990
10036TIP3   OH251598   6.223   4.567  13.537  0.0265  0.3633  0.1799
10036TIP3    H151599   6.309   4.603  13.514 -0.9128  3.0537  0.7134
10036TIP3    H251600   6.162   4.615  13.482 -1.3407 -0.1121  1.2625
10037TIP3   OH251601   5.881   2.146   5.706 -0.3369 -0.4419  0.2920
10037TIP3    H151602   5.848   2.056   5.705 -0.7269 -0.3022  0.4035
10037TIP3    H251603   5.921   2.159   5.620  1.0970 -1.2299  0.8166
10038TIP3   OH251604   6.771   3.197   2.714 -0.4041  0.6088 -0.0957
10038TIP3    H151605   6.794   3.191   2.621 -1.6780 -1.4655 -0.3111
10038TIP3    H251606   6.729   3.283   2.723  0.1157  1.0016 -1.3316
10039TIP3   OH251607   2.268   4.471  14.671  0.1017  0.2506 -0.4571
10039TIP3    H151608   2.296   4.402  14.611  0.3970 -0.0338  0.0069
10039TIP3    H251609   2.308   4.551  14.637  0.0080  0.1410 -0.8213
10040TIP3   OH251610   4.296   0.449   4.601  0.0757 -0.5143  0.0078
10040TIP3    H151611   4.381   0.411   4.622  0.6493  0.1364 -1.0572
10040TIP3    H251612   4.280   0.424   4.510 -1.6704 -2.0500  0.6888
10041TIP3   OH251613   2.067   4.788  16.387 -0.0582 -0.2438 -0.0079
10041TIP3    H151614   1.983   4.789  16.432  0.5239  1.4197  1.0907
10041TIP3    H251615   2.103   4.701  16.405 -0.2708  0.0509  1.9176
10042TIP3   OH251616   1.921   3.083  12.867 -0.2564 -0.0805 -0.6062
10042TIP3    H151617   1.992   3.070  12.804 -1.2912  0.5453 -1.9349
10042TIP3    H251618   1.954   3.047  12.949  1.5627  0.1265 -1.2271
10043TIP3   OH251619   3.514   3.419   5.320  0.2430  0.1974  0.1820
10043TIP3    H151620   3.426   3.431   5.284  0.1696  1.6663  0.8061
10043TIP3    H251621   3.536   3.329   5.299 -0.9137  0.1894 -1.0815
10044TIP3   OH251622   3.788   4.285  11.727 -0.3326 -0.2909  0.9239
10044TIP3    H151623   3.718   4.328  11.678 -1.2260 -2.0742  0.5670
10044TIP3    H251624   3.828   4.224  11.664  0.7664 -0.1388  1.4589
10045TIP3   OH251625   6.274   5.245  16.430 -0.5601 -0.0557 -0.1108
10045TIP3    H151626   6.351   5.251  16.373  1.3219  1.9505  2.5390
10045TIP3    H251627   6.309   5.245  16.519 -3.5782 -0.3592  1.1571
10046TIP3   OH251628   2.901   4.176  11.949  0.3299  0.1713 -0.2477
10046TIP3    H151629   2.811   4.180  11.918  0.5595 -0.2919 -0.9970
10046TIP3    H251630   2.925   4.083  11.941  0.8448  0.2799  0.0154
10047TIP3   OH251631   4.438   5.714  15.689 -0.5990  0.1482 -0.0903
10047TIP3    H151632   4.491   5.782  15.730 -0.5809  0.0328  0.0809
10047TIP3    H251633   4.359   5.759  15.658 -0.7859  0.1707  0.4104
10048TIP3   OH251634   3.734   3.308   5.768 -0.0353  0.0403 -0.2763
10048TIP3    H151635   3.776   3.388   5.801 -2.0384  0.6069  0.9908
10048TIP3    H251636   3.747   3.312   5.673  1.0911  1.1600 -0.0973
10049TIP3   OH251637   1.499   1.494   5.143 -0.0859 -0.3211 -0.1263
10049TIP3    H151638   1.474   1.517   5.053 -0.3185 -0.6832 -0.1582
10049TIP3    H251639   1.418   1.507   5.194  0.0780  0.0017  0.0532
10050TIP3   OH251640   1.410   0.673  11.415  0.4594 -0.0090  0.5987
10050TIP3    H151641   1.388   0.761  11.384  0.4934  0.3050  1.4549
10050TIP3    H251642   1.499   0.658  11.383  0.3070  0.1146  0.1203
10051TIP3   OH251643   5.316   3.289  14.796  0.4599  0.4425 -0.4364
10051TIP3    H151644   5.320   3.215  14.736  0.6799 -0.3642  0.5494
10051TIP3    H251645   5.261   3.354  14.752 -2.9908 -1.8408  0.3191
10052TIP3   OH251646   2.810   2.706   1.421 -0.6909  0.0490 -0.2159
10052TIP3    H151647   2.905   2.693   1.420 -0.6251 -0.0786  3.1413
10052TIP3    H251648   2.778   2.657   1.345  1.8622 -0.3074 -1.0912
10053TIP3   OH251649   3.835   3.874   5.020 -0.3911  0.2368 -0.1803
10053TIP3    H151650   3.892   3.854   5.095 -2.9101  1.5393  2.1579
10053TIP3    H251651   3.866   3.959   4.989  0.1810  0.0384 -0.1687
10054TIP3   OH251652   1.987   3.021   0.174 -0.4085  0.0349 -0.3618
10054TIP3    H151653   1.997   2.928   0.195 -0.8424  0.0137 -0.2445
10054TIP3    H251654   1.909   3.049   0.223  0.2198  0.6718  0.3025
10055TIP3   OH251655   5.435   0.286   5.190  0.3637 -0.2767  0.0152
10055TIP3    H151656   5.432   0.244   5.104 -1.5182 -0.2130  0.0224
10055TIP3    H251657   5.489   0.228   5.243 -0.7857 -1.7960 -0.4472
10056TIP3   OH251658   5.300   6.439   0.136  0.7922 -0.2157  0.1046
10056TIP3    H151659   5.294   6.366   0.198  3.7051  1.7353  2.9187
10056TIP3    H251660   5.352   6.405   0.064 -0.7496 -1.8877 -0.2513
10057TIP3   OH251661   4.167   3.341   0.373 -0.1910 -0.2379 -0.6365
10057TIP3    H151662   4.224   3.417   0.380  0.4026 -0.8160  0.8810
10057TIP3    H251663   4.196   3.297   0.293  1.8659 -0.8369  0.4255
10058TIP3   OH251664   2.595   2.533  14.980  0.2974 -0.1540  0.0706
10058TIP3    H151665   2.520   2.573  15.023 -0.4933 -0.7688 -0.7139
10058TIP3    H251666   2.590   2.562  14.889  0.9875 -0.2371  0.0004
10059TIP3   OH251667   4.290   0.488  13.634  0.3187 -0.4575  0.5810
10059TIP3    H151668   4.282   0.460  13.725  0.4995  0.9302  1.0246
10059TIP3    H251669   4.212   0.451  13.591 -0.8386  0.6090  1.7285
10060TIP3   OH251670   3.953   3.483  12.839  0.1057  0.2607 -0.5734
10060TIP3    H151671   4.032   3.498  12.788 -0.1866  0.7647 -0.8781
10060TIP3    H251672   3.908   3.413  12.793  1.8420 -2.1848  1.2727
10061TIP3   OH251673   6.273   1.620  14.588 -0.4407  0.1689  0.5480
10061TIP3    H151674   6.270   1.711  14.618 -1.2315 -0.0772  1.2255
10061TIP3    H251675   6.295   1.569  14.666  1.5716 -0.0832 -0.1483
10062TIP3   OH251676   5.388   6.049   4.619  0.5968  0.5508 -0.4172
10062TIP3    H151677   5.318   6.063   4.556  0.3415  0.4301 -0.1583
10062TIP3    H251678   5.357   6.090   4.700 -0.1388 -1.4712  0.3422
10063TIP3   OH251679   1.703   5.527   5.984  0.0653 -0.1125  0.4828
10063TIP3    H151680   1.793   5.538   5.952  0.9974 -0.3702  2.9214
10063TIP3    H251681   1.712   5.480   6.066 -2.4717 -1.6904 -0.0922
10064TIP3   OH251682   3.700   4.559  13.543  0.1367  0.0165 -0.3768
10064TIP3    H151683   3.654   4.643  13.548 -0.9180 -0.6594  1.8654
10064TIP3    H251684   3.731   4.543  13.632  1.8829 -1.1400 -1.1481
10065TIP3   OH251685   5.237   3.125   4.421 -0.0441  0.0408  0.3928
10065TIP3    H151686   5.191   3.169   4.349  1.0342  1.3524  0.4683
10065TIP3    H251687   5.172   3.067   4.460 -0.4764 -1.1831 -2.0444
10066TIP3   OH251688   2.728   1.266  16.836 -0.1802  0.3030 -0.1810
10066TIP3    H151689   2.702   1.354  16.812  0.8446  0.7634  0.3615
10066TIP3    H251690   2.673   1.209  16.783  0.0377  1.2779 -1.4762
10067TIP3   OH251691   3.225   2.766   5.884 -0.0916  0.2802 -0.0647
10067TIP3    H151692   3.141   2.813   5.886 -0.1775  0.1360 -0.3192
10067TIP3    H251693   3.201   2.674   5.892  0.1139  0.3150  1.1023
10068TIP3   OH251694   3.343   5.330   1.020 -0.3502 -0.5814 -0.0505
10068TIP3    H151695   3.415   5.267   1.017 -2.2276 -2.7251 -1.8506
10068TIP3    H251696   3.381   5.412   0.988  1.5906 -1.3297  0.2915
10069TIP3   OH251697   2.782   1.133  16.086  0.0939  0.2444 -0.3734
10069TIP3    H151698   2.816   1.089  16.164 -1.1046 -0.6903 -0.3670
10069TIP3    H251699   2.697   1.168  16.113 -1.0597 -1.4791 -1.7031
10070TIP3   OH251700   6.182   1.987  14.925  0.5546  0.1897 -0.2738
10070TIP3    H151701   6.093   1.955  14.913  1.3663 -1.4647 -2.1747
10070TIP3    H251702   6.196   1.987  15.019 -1.1524 -0.3674 -0.0162
10071TIP3   OH251703   3.569   0.795   3.574  0.5732  0.1499 -0.9006
10071TIP3    H151704   3.546   0.709   3.538 -1.5582  0.9071 -1.4521
10071TIP3    H251705   3.493   0.819   3.628  1.5086  1.3291 -0.0649
10072TIP3   OH251706   0.677   3.401  14.852 -0.1617 -0.5844 -0.2837
10072TIP3    H151707   0.754   3.380  14.800 -0.3068  1.2879 -1.3221
10072TIP3    H251708   0.709   3.460  14.920 -0.9128  1.5655 -1.7354
10073TIP3   OH251709   4.343   6.223  11.738 -0.1983 -0.1607 -0.3808
10073TIP3    H151710   4.391   6.147  11.770  0.1938 -0.3692 -1.4337
10073TIP3    H251711   4.411   6.287  11.717 -0.4085 -0.2293 -1.2960
10074TIP3   OH251712   5.239   4.718   4.870 -0.3321 -0.1470  0.3053
10074TIP3    H151713   5.179   4.785   4.902  0.7013  0.6741  0.5718
10074TIP3    H251714   5.233   4.725   4.774 -0.2000  0.3540  0.3324
10075TIP3   OH251715   5.325   5.751  13.171 -0.0638 -0.1327  0.4505
10075TIP3    H151716   5.334   5.693  13.096  0.4278  0.2670  0.1981
10075TIP3    H251717   5.236   5.785  13.165  0.4845  1.1312 -0.8555
10076TIP3   OH251718   2.346   3.677  15.077 -0.1393 -0.7620 -0.0430
10076TIP3    H151719   2.300   3.733  15.139  1.2859  1.3275 -0.8295
10076TIP3    H251720   2.287   3.670  15.002  0.0816  0.5330 -0.3517
10077TIP3   OH251721   4.305   1.125  13.512 -0.3639 -0.1847 -0.2125
10077TIP3    H151722   4.276   1.164  13.429  0.5793  0.7808 -0.0907
10077TIP3    H251723   4.231   1.139  13.572  0.0663  1.6993 -0.0839
10078TIP3   OH251724   4.689   3.594  12.685 -0.1980 -0.0241  0.6426
10078TIP3    H151725   4.684   3.631  12.773  0.6979 -0.7670  1.0195
10078TIP3    H251726   4.748   3.519  12.695  1.2696  0.9006 -0.9382
10079TIP3   OH251727   2.673   5.103  15.565  0.2270 -0.3664 -0.4025
10079TIP3    H151728   2.695   5.186  15.521  0.7081 -0.1591  0.2161
10079TIP3    H251729   2.594   5.073  15.521 -1.5094  1.7751  1.1332
10080TIP3   OH251730   2.891   5.942  10.988 -0.4678  0.6815  0.0301
10080TIP3    H151731   2.938   5.859  11.001 -0.7102  0.8755  2.1970
10080TIP3    H251732   2.878   5.947  10.893  1.1080 -0.9049 -0.2950
10081TIP3   OH251733   3.231   4.983   1.079 -0.5339 -0.4491  0.3662
10081TIP3    H151734   3.265   5.040   1.148  1.5269 -1.1630 -0.0121
10081TIP3    H251735   3.187   4.913   1.127 -1.5539  0.5398  0.8783
10082TIP3   OH251736   3.413   3.234  15.309  0.2473 -0.7355  0.1871
10082TIP3    H151737   3.372   3.229  15.395 -0.0182  0.5636  0.1495
10082TIP3    H251738   3.343   3.215  15.247  0.0584 -0.0548  0.1896
10083TIP3   OH251739   5.630   4.118   4.158 -0.0497 -0.1538 -0.5188
10083TIP3    H151740   5.620   4.212   4.175  2.0342 -0.2720  1.4951
10083TIP3    H251741   5.643   4.112   4.063  1.3907  1.7559 -0.4628
10084TIP3   OH251742   1.752   2.204  15.026 -0.0231 -0.2035  0.1378
10084TIP3    H151743   1.676   2.189  14.969 -0.5001 -2.7735  1.3363
10084TIP3    H251744   1.716   2.197  15.115  1.3438  0.1711  0.7274
10085TIP3   OH251745   6.781   1.395   0.179  0.4661 -0.0296  0.2893
10085TIP3    H151746   6.794   1.303   0.157  0.8761  0.6396 -2.4367
10085TIP3    H251747   6.686   1.405   0.186  0.5323 -1.2925  3.6555
10086TIP3   OH251748   6.382   5.447   5.546  0.8255 -0.6252  0.2373
10086TIP3    H151749   6.321   5.520   5.535 -0.4120 -1.6632  0.0618
10086TIP3    H251750   6.329   5.369   5.532  2.2435 -1.5540 -0.1125
10087TIP3   OH251751   5.558   5.975   1.155 -0.1072  0.0107 -0.0923
10087TIP3    H151752   5.544   5.952   1.247  0.2249  0.9896  0.2026
10087TIP3    H251753   5.650   6.001   1.150 -0.1642  0.1091 -0.6697
10088TIP3   OH251754   0.055   3.729   5.362  0.6233  0.0703  0.6280
10088TIP3    H151755   0.106   3.742   5.442 -0.2862  1.3726  1.0145
10088TIP3    H251756   0.002   3.808   5.354  2.6391  1.1554 -2.7054
10089TIP3   OH251757   5.594   2.909  14.763 -0.2256 -0.0855  0.0056
10089TIP3    H151758   5.531   2.963  14.811  0.2691  0.3219  0.2118
10089TIP3    H251759   5.610   2.835  14.821  0.8069  0.6968  0.7448
10090TIP3   OH251760   5.345   5.030   1.632  0.0240  0.0676 -0.6595
10090TIP3    H151761   5.438   5.028   1.610  0.0308  1.7178 -0.8536
10090TIP3    H251762   5.306   5.084   1.562 -0.9342  0.0820 -0.1134
10091TIP3   OH251763   3.803   2.579   1.861 -0.0230 -0.0596  0.6638
10091TIP3    H151764   3.777   2.671   1.866  0.7197  0.2029 -0.1817
10091TIP3    H251765   3.899   2.581   1.860 -0.0093 -0.7113 -1.1971
10092TIP3   OH251766   6.158   2.775  11.994 -0.2173  0.9215 -0.1008
10092TIP3    H151767   6.238   2.821  12.019  0.1991  1.3639 -2.1310
10092TIP3    H251768   6.172   2.750  11.903 -1.5925 -0.7695  0.1099
10093TIP3   OH251769   3.041   1.978   5.688 -0.2829  1.2956 -0.3004
10093TIP3    H151770   2.976   1.944   5.749 -1.0442 -0.9759 -2.2939
10093TIP3    H251771   3.124   1.941   5.719 -0.3587  1.8030  0.5252
10094TIP3   OH251772   6.286   3.165  17.013 -0.6257 -0.0096  0.1000
10094TIP3    H151773   6.267   3.209  16.930  1.6160  0.7011 -0.0626
10094TIP3    H251774   6.200   3.137  17.046 -1.7432  1.5750 -1.4180
10095TIP3   OH251775   5.286   2.982  14.696 -0.0704  0.1185 -0.2948
10095TIP3    H151776   5.256   2.905  14.743 -1.2773  0.8128  0.0840
10095TIP3    H251777   5.216   3.046  14.706  0.5425  0.9801 -1.3173
10096TIP3   OH251778   4.648   4.124   0.093  0.1552 -0.8002  0.4116
10096TIP3    H151779   4.739   4.152   0.082  0.4897 -1.0932  2.1712
10096TIP3    H251780   4.597   4.203   0.077  0.6506 -0.8282 -1.4274
10097TIP3   OH251781   5.650   3.023   4.419  0.2680  0.2970 -0.1532
10097TIP3    H151782   5.645   3.113   4.451 -1.0888  0.0118  0.4703
10097TIP3    H251783   5.699   2.976   4.486  0.0709  0.3402  0.0180
10098TIP3   OH251784   1.344   5.021  14.220 -0.0843 -0.1703  0.2001
10098TIP3    H151785   1.382   4.940  14.254 -0.0025 -0.5340 -0.7326
10098TIP3    H251786   1.398   5.043  14.145 -0.9590 -0.0278 -0.4025
10099TIP3   OH251787   3.234   3.969  14.192 -1.2505  0.1160  0.6186
10099TIP3    H151788   3.176   4.011  14.129  0.4399  1.8304  0.1277
10099TIP3    H251789   3.310   3.942  14.140 -1.1402 -1.1181  1.4196
10100TIP3   OH251790   4.397   3.550  15.681 -0.9936  0.1274 -0.3762
10100TIP3    H151791   4.336   3.510  15.619 -0.0068 -1.1670 -0.5034
10100TIP3    H251792   4.483   3.535  15.644 -0.5026  0.7886  0.4861
10101TIP3   OH251793   3.933   2.533  16.258  0.1913  0.8712 -0.2385
10101TIP3    H151794   3.928   2.564  16.349 -2.6982  0.8474 -0.3268
10101TIP3    H251795   4.015   2.485  16.254  1.1384  2.1873  1.9343
10102TIP3   OH251796   1.933   6.277  15.103  0.0407  0.0532  0.2955
10102TIP3    H151797   1.969   6.214  15.040 -0.1917 -2.2485  2.4055
10102TIP3    H251798   1.849   6.303  15.064 -0.4468 -1.9008 -0.0383
10103TIP3   OH251799   4.510   6.301  13.894  0.5342  0.3419  0.4389
10103TIP3    H151800   4.576   6.338  13.953 -0.6000  0.1251  1.8377
10103TIP3    H251801   4.447   6.372  13.880 -0.3303 -0.2824  1.1667
10104TIP3   OH251802   2.130   4.166   2.386  0.0703 -0.0819 -0.3230
10104TIP3    H151803   2.124   4.123   2.471  3.3388 -0.1756 -0.0782
10104TIP3    H251804   2.077   4.111   2.328 -0.8074 -0.9519  1.2559
10105TIP3   OH251805   1.713   6.164   1.541  0.0262  0.0079  0.2140
10105TIP3    H151806   1.710   6.240   1.484  0.7862 -1.2617 -1.5518
10105TIP3    H251807   1.666   6.096   1.494 -1.1883 -0.4698  2.0523
10106TIP3   OH251808   2.877   5.009   2.090  0.1688  0.0455  0.6043
10106TIP3    H151809   2.882   5.062   2.010  3.7998  0.6554  1.1430
10106TIP3    H251810   2.934   4.934   2.073 -0.1325 -0.5584  2.1220
10107TIP3   OH251811   2.633   0.589   1.800 -0.1021  0.3912  0.0361
10107TIP3    H151812   2.626   0.663   1.860  0.5332  0.7967 -0.3938
10107TIP3    H251813   2.561   0.601   1.737 -0.6301  0.0854  0.5726
10108TIP3   OH251814   5.497   1.041  15.397 -0.0285 -0.0736 -0.4455
10108TIP3    H151815   5.585   1.013  15.422 -0.1878  0.6319  0.9143
10108TIP3    H251816   5.444   0.961  15.404  0.3163 -0.3019 -0.4022
10109TIP3   OH251817   3.512   3.871  14.971  0.1908  0.2966  0.7504
10109TIP3    H151818   3.542   3.895  15.058  1.5867  0.4349  0.2436
10109TIP3    H251819   3.457   3.794  14.985  0.8579 -0.0119  1.6872
10110TIP3   OH251820   6.035   3.795   1.087  0.6116  0.6713  0.5890
10110TIP3    H151821   6.066   3.881   1.116 -0.5562  1.1058  0.5477
10110TIP3    H251822   6.047   3.739   1.163 -1.0141  1.4590  1.4412
10111TIP3   OH251823   5.866   0.020   5.648 -0.1733  0.3995 -0.8898
10111TIP3    H151824   5.912   0.099   5.620  0.4526  0.3643 -0.0013
10111TIP3    H251825   5.777   0.049   5.669  0.4822  1.1813  0.9459
10112TIP3   OH251826   1.176   5.412  11.302  0.0517  0.2551 -0.2259
10112TIP3    H151827   1.253   5.369  11.338  1.0216 -1.2108 -3.7956
10112TIP3    H251828   1.103   5.377  11.353  1.2926 -2.0315  0.0341
10113TIP3   OH251829   2.270   5.639  12.449  0.1642 -0.2720  1.1084
10113TIP3    H151830   2.330   5.668  12.380  0.5963 -1.5616  0.9215
10113TIP3    H251831   2.284   5.702  12.520 -0.2499  1.0355  0.0522
10114TIP3   OH251832   1.347   5.462   1.493  0.0232  1.0662  0.1147
10114TIP3    H151833   1.374   5.485   1.582  1.5840 -1.2645  0.2886
10114TIP3    H251834   1.276   5.400   1.506 -0.0438  1.0633 -0.2796
10115TIP3   OH251835   1.287   5.768   2.586  0.3574  0.1772 -0.7305
10115TIP3    H151836   1.203   5.791   2.626  0.5939  0.1289 -0.1952
10115TIP3    H251837   1.348   5.767   2.660  0.3555 -2.2150 -0.7097
10116TIP3   OH251838   5.098   6.545  12.091  0.2913 -0.5673 -0.0690
10116TIP3    H151839   5.178   6.586  12.058 -0.4191  1.4213  0.6013
10116TIP3    H251840   5.028   6.585  12.040 -0.5676  0.3911  1.8074
10117TIP3   OH251841   4.757   3.679   2.394 -0.1199  0.3692 -0.0240
10117TIP3    H151842   4.779   3.628   2.472  2.3148  2.4290  0.7087
10117TIP3    H251843   4.831   3.666   2.335 -0.5144  1.2763 -0.7307
10118TIP3   OH251844   0.595   3.323   2.986 -1.0246 -0.0062  0.0264
10118TIP3    H151845   0.509   3.364   2.992 -0.4120  1.3945 -0.6356
10118TIP3    H251846   0.654   3.393   2.959  0.1812 -1.1488 -0.3892
10119TIP3   OH251847   0.840   0.161  12.800 -0.2178  0.6479  0.2946
10119TIP3    H151848   0.805   0.080  12.840 -1.4893 -0.4198 -2.8386
10119TIP3    H251849   0.768   0.224  12.809 -0.9138  0.0964 -1.1389
10120TIP3   OH251850   2.223   2.496   5.196 -0.2392 -0.7441 -0.3295
10120TIP3    H151851   2.250   2.408   5.222 -1.2763 -0.7379  0.8262
10120TIP3    H251852   2.160   2.523   5.263  0.4768  1.0978 -0.3655
10121TIP3   OH251853   3.355   0.691  13.919  0.4978  0.0601 -0.3937
10121TIP3    H151854   3.384   0.601  13.936  0.7969  0.2903  0.3558
10121TIP3    H251855   3.300   0.712  13.995  0.2794  0.4439 -0.6603
10122TIP3   OH251856   6.380   5.626  15.617  0.1827  0.0957 -0.4926
10122TIP3    H151857   6.315   5.680  15.661 -0.2328 -2.2517  1.8835
10122TIP3    H251858   6.464   5.663  15.645 -0.0965 -0.2986  0.8918
10123TIP3   OH251859   4.599   4.112  13.298 -0.5768 -0.1769  0.6999
10123TIP3    H151860   4.519   4.099  13.248 -0.2106  0.3521 -0.0455
10123TIP3    H251861   4.569   4.140  13.384 -1.2228 -1.4153  0.8894
10124TIP3   OH251862   3.398   5.067   4.774 -0.3610 -0.0069 -0.2416
10124TIP3    H151863   3.412   5.082   4.868  1.2632 -0.1023 -0.4556
10124TIP3    H251864   3.465   5.119   4.731 -0.5349 -0.6647 -1.3272
10125TIP3   OH251865   4.625   0.391  12.581  1.0763 -0.4370  0.4989
10125TIP3    H151866   4.554   0.439  12.538  2.3978  1.5969  0.5324
10125TIP3    H251867   4.685   0.367  12.511  0.3250 -2.2871  0.4509
10126TIP3   OH251868   4.234   5.617   5.016  0.3100 -0.0145 -0.0828
10126TIP3    H151869   4.190   5.669   5.083 -3.1394  0.0591 -2.2717
10126TIP3    H251870   4.259   5.536   5.061  1.5894  1.6141  2.2006
10127TIP3   OH251871   4.298   0.461  12.942  0.5734  0.0692 -1.1588
10127TIP3    H151872   4.250   0.380  12.932 -0.4078  0.4599  0.2904
10127TIP3    H251873   4.231   0.529  12.945  1.2422  0.7000  0.0507
10128TIP3   OH251874   0.179   5.590  17.121  0.0701  0.2563  0.3422
10128TIP3    H151875   0.229   5.598  17.040  1.4638 -0.5887  1.0980
10128TIP3    H251876   0.243   5.606  17.190 -0.6498 -0.9859  1.3297
10129TIP3   OH251877   4.969   6.366   4.260  0.4530 -0.3564  0.3574
10129TIP3    H151878   4.935   6.309   4.329  1.2781 -1.9129 -0.5059
10129TIP3    H251879   5.064   6.365   4.271  0.5754 -0.3676 -0.6154
10130TIP3   OH251880   5.107   3.060   3.965 -0.2246 -0.5411 -0.0253
10130TIP3    H151881   5.165   2.996   4.007  0.2875  0.1560  0.3500
10130TIP3    H251882   5.023   3.049   4.011  0.2042 -0.1006  0.8807
10131TIP3   OH251883   0.765   3.918   3.431  0.1369 -0.1128  0.0581
10131TIP3    H151884   0.844   3.865   3.425  0.2717 -0.0607  1.2388
10131TIP3    H251885   0.710   3.872   3.494 -0.2846  0.4686  0.1198
10132TIP3   OH251886   6.558   3.706  12.439 -0.2085 -0.5702 -0.2107
10132TIP3    H151887   6.584   3.616  12.419  0.2789  0.0317 -2.5327
10132TIP3    H251888   6.583   3.720  12.530 -0.9935 -3.0193  0.4138
10133TIP3   OH251889   5.835   6.147   5.470  0.7629  0.1777  0.1303
10133TIP3    H151890   5.855   6.230   5.427  0.3712  0.1054 -0.1993
10133TIP3    H251891   5.739   6.145   5.475  0.7326 -0.5695 -0.5004
10134TIP3   OH251892   5.389   4.686  11.107  0.0124  0.0181  0.4759
10134TIP3    H151893   5.371   4.646  11.021  1.7714 -0.1625  0.1744
10134TIP3    H251894   5.420   4.613  11.161  0.6489  0.4592  0.7191
10135TIP3   OH251895   5.658   5.393  11.333 -0.0723 -0.2257  0.0711
10135TIP3    H151896   5.631   5.308  11.367  0.2904 -0.5321 -0.4149
10135TIP3    H251897   5.682   5.377  11.242  0.1306  0.3676  0.0157
10136TIP3   OH251898   2.493   5.395  12.006  0.0995  0.1557 -0.1121
10136TIP3    H151899   2.401   5.416  12.021  0.6049  2.8237 -0.4059
10136TIP3    H251900   2.519   5.342  12.081 -1.8810 -1.3513 -0.4527
10137TIP3   OH251901   5.496   4.460  16.700 -0.3968  0.1939  0.3757
10137TIP3    H151902   5.474   4.453  16.607  1.0603 -0.3200  0.0537
10137TIP3    H251903   5.425   4.511  16.738 -1.1807  0.1135 -0.9597
10138TIP3   OH251904   0.715   4.335  10.387  0.4011 -0.1014  0.6282
10138TIP3    H151905   0.794   4.284  10.404  0.9894  0.6605  0.2089
10138TIP3    H251906   0.658   4.275  10.339  1.2702 -0.2373 -0.2568
10139TIP3   OH251907   4.603   0.085  13.029  0.1652  0.4395 -0.2398
10139TIP3    H151908   4.612   0.082  12.934 -1.6580 -0.5858 -0.4002
10139TIP3    H251909   4.534   0.149  13.045  1.1908  1.3914  0.4616
10140TIP3   OH251910   4.217   0.329   4.939 -0.1449  0.2249 -0.6553
10140TIP3    H151911   4.191   0.391   4.871 -1.7893  0.5770  0.2744
10140TIP3    H251912   4.313   0.329   4.936 -0.1929 -0.1310 -3.2816
10141TIP3   OH251913   1.917   1.346  15.176  0.0220  0.0293 -0.0429
10141TIP3    H151914   1.870   1.280  15.126  1.4090 -1.1295  0.1690
10141TIP3    H251915   2.009   1.333  15.154  0.4920  0.6195  1.4778
10142TIP3   OH251916   4.423   0.670  14.118  0.5201  0.3587 -0.0890
10142TIP3    H151917   4.413   0.762  14.094  0.9956  0.5617  0.4648
10142TIP3    H251918   4.346   0.626  14.081 -0.5433  1.2584  1.0113
10143TIP3   OH251919   0.351   4.119   3.331 -0.0369  0.0018  0.2746
10143TIP3    H151920   0.300   4.198   3.314 -0.3614 -0.2616  0.0313
10143TIP3    H251921   0.435   4.152   3.364  0.0965  0.4734 -0.5259
10144TIP3   OH251922   2.082   5.164   2.583 -0.3472  0.4028 -0.4491
10144TIP3    H151923   2.117   5.250   2.604  1.7736 -0.5914  0.2231
10144TIP3    H251924   2.059   5.168   2.491  1.7373  1.0538 -0.9651
10145TIP3   OH251925   6.757   3.614  14.039 -0.3219  0.2205 -0.1304
10145TIP3    H151926   6.825   3.554  14.067 -0.2473 -0.3603 -1.5191
10145TIP3    H251927   6.678   3.561  14.034 -1.0061  0.9788  1.8858
10146TIP3   OH251928   5.293   2.713  11.960 -0.7816 -0.1666 -0.1501
10146TIP3    H151929   5.295   2.617  11.956 -1.6856 -0.2290  0.6281
10146TIP3    H251930   5.258   2.739  11.874 -1.1581 -0.5631 -0.1205
10147TIP3   OH251931   3.105   3.473  13.297 -0.2815 -0.0467  0.3999
10147TIP3    H151932   3.073   3.392  13.257 -1.5820  0.9336 -0.5445
10147TIP3    H251933   3.153   3.443  13.374 -0.4718 -1.7465 -0.1168
10148TIP3   OH251934   3.370   4.569   4.456 -0.2526  0.4652  0.2535
10148TIP3    H151935   3.391   4.576   4.549 -0.2630  1.3661  0.1919
10148TIP3    H251936   3.424   4.637   4.414  0.2720 -0.3881 -0.4795
10149TIP3   OH251937   4.879   6.219   0.628  0.1699 -0.1705  0.1824
10149TIP3    H151938   4.950   6.172   0.672  0.5223  1.4833  1.4158
10149TIP3    H251939   4.877   6.181   0.540 -0.4986 -3.4730  1.5303
10150TIP3   OH251940   2.976   6.663   5.412  0.1278  0.3570  0.2167
10150TIP3    H151941   2.915   6.620   5.472  0.7715  0.9443  1.3150
10150TIP3    H251942   3.035   6.593   5.383 -0.0292  0.1152  0.4763
10151TIP3   OH251943   3.761   6.615  17.272 -1.0359  0.0306  0.0293
10151TIP3    H151944   3.812   6.638  17.194  1.3161  2.2810  2.1355
10151TIP3    H251945   3.729   6.699  17.306 -1.5398 -0.8583  1.8176
10152TIP3   OH251946   6.675   4.253   0.236 -0.0683 -0.2866  0.2772
10152TIP3    H151947   6.599   4.206   0.271 -1.3528  0.8213 -0.9622
10152TIP3    H251948   6.690   4.213   0.150 -0.4685  0.7788 -0.3028
10153TIP3   OH251949   6.762   4.642   4.354 -0.1507 -0.3319  0.3345
10153TIP3    H151950   6.819   4.709   4.317  0.6364 -0.6269  0.9780
10153TIP3    H251951   6.722   4.599   4.278  0.0591  0.2495 -0.1029
10154TIP3   OH251952   1.476   2.554   3.129  0.0768 -0.0723  0.0712
10154TIP3    H151953   1.485   2.580   3.221 -2.3876 -0.8544  0.5712
10154TIP3    H251954   1.472   2.636   3.081 -1.0248  0.3737  0.9135
10155TIP3   OH251955   0.694   0.321  14.993  0.1677 -0.2383  0.3318
10155TIP3    H151956   0.763   0.263  14.959 -0.2661  0.2257 -1.4249
10155TIP3    H251957   0.615   0.289  14.950 -0.1501  1.3641 -0.2821
10156TIP3   OH251958   3.964   1.565  11.951  0.0863 -0.0191 -0.1911
10156TIP3    H151959   4.033   1.562  11.885  1.1327  0.2243  0.8765
10156TIP3    H251960   3.936   1.474  11.961  1.3274 -0.3410  0.4680
10157TIP3   OH251961   4.719   1.317  15.882  0.8077 -0.1427 -0.7118
10157TIP3    H151962   4.789   1.253  15.893  1.6073  0.7955 -0.3821
10157TIP3    H251963   4.712   1.329  15.788 -0.3389 -1.8078 -0.8649
10158TIP3   OH251964   2.067   2.951  13.471 -0.5824 -0.1563 -0.0206
10158TIP3    H151965   2.036   2.869  13.431  1.5976 -1.0047 -0.0434
10158TIP3    H251966   2.149   2.927  13.513  0.1767  2.0868 -0.1919
10159TIP3   OH251967   4.027   1.214  17.138 -0.3027  0.2866 -0.4597
10159TIP3    H151968   4.065   1.167  17.064 -1.0706  1.4639 -1.6298
10159TIP3    H251969   3.941   1.243  17.107 -1.5381 -1.0128  1.6232
10160TIP3   OH251970   6.216   5.929  12.055 -0.6485  0.0617  0.4527
10160TIP3    H151971   6.151   5.998  12.039 -0.1175  0.4978  0.1730
10160TIP3    H251972   6.250   5.947  12.142 -2.1794 -1.2161  1.3596
10161TIP3   OH251973   5.304   3.954  10.824  0.3639  0.1206 -0.5044
10161TIP3    H151974   5.386   3.966  10.777  0.1232  1.6371 -0.5757
10161TIP3    H251975   5.330   3.948  10.916  0.4830  1.5953 -0.4347
10162TIP3   OH251976   5.761   0.760   3.325  0.2693  0.2595 -0.3215
10162TIP3    H151977   5.715   0.687   3.284 -0.4966  1.1534 -1.0575
10162TIP3    H251978   5.783   0.728   3.413  2.6872 -2.0054 -1.6432
10163TIP3   OH251979   5.798   4.726   3.448  0.2667 -0.3454 -0.1640
10163TIP3    H151980   5.852   4.676   3.509 -1.3051  0.2989  1.8061
10163TIP3    H251981   5.726   4.760   3.501 -0.6840  0.9632 -2.2053
10164TIP3   OH251982   4.461   1.593  11.613  0.2952 -0.1196 -0.5240
10164TIP3    H151983   4.524   1.574  11.683  1.7101  0.7953 -1.5171
10164TIP3    H251984   4.379   1.552  11.642  1.4097 -1.5338  0.6719
10165TIP3   OH251985   2.042   1.528  13.958  0.3396  0.4665 -0.5513
10165TIP3    H151986   2.080   1.502  14.042 -1.1382  1.1818  0.3608
10165TIP3    H251987   2.099   1.599  13.928 -0.1934  1.4753  0.7646
10166TIP3   OH251988   1.836   6.390   0.478  0.1327 -0.3695 -0.3567
10166TIP3    H151989   1.902   6.458   0.484  0.0175 -0.1399 -1.4972
10166TIP3    H251990   1.885   6.309   0.462  0.1514 -0.1941 -1.2344
10167TIP3   OH251991   1.685   4.266   6.627 -0.0007  0.2117 -0.4419
10167TIP3    H151992   1.742   4.321   6.573  0.7745 -0.3449 -0.1812
10167TIP3    H251993   1.628   4.222   6.564  1.1626 -0.7303 -0.8312
10168TIP3   OH251994   1.073   1.560   6.097 -0.1107  0.0183  0.1348
10168TIP3    H151995   1.108   1.602   6.018 -0.1500  0.4221  0.3329
10168TIP3    H251996   1.146   1.558   6.158 -0.3018  0.4507  0.3847
10169TIP3   OH251997   6.203   5.233  12.526  0.1591 -0.2277  0.9048
10169TIP3    H151998   6.272   5.188  12.477  0.2167  0.0336  0.7467
10169TIP3    H251999   6.126   5.177  12.517  0.1173 -0.0801  0.3556
10170TIP3   OH252000   0.309   1.619  10.891  0.1172  0.2090 -0.2220
10170TIP3    H152001   0.284   1.652  10.805 -0.3082 -1.0411 -0.5842
10170TIP3    H252002   0.244   1.552  10.911  1.3785 -0.9113  0.1966
10171TIP3   OH252003   1.013   1.226   5.026 -0.1478  0.5008  0.3207
10171TIP3    H152004   1.100   1.195   4.999  1.3432  2.5370  2.6495
10171TIP3    H252005   0.980   1.273   4.949  1.8637  1.8247  0.2317
10172TIP3   OH252006   6.529   6.139  15.235  0.3930  0.3636 -0.0767
10172TIP3    H152007   6.547   6.047  15.216 -2.0998 -0.0058 -0.7635
10172TIP3    H252008   6.510   6.141  15.329 -4.2446 -0.6732 -0.8874
10173TIP3   OH252009   5.777   6.021   0.390 -0.6887 -0.8112  0.1659
10173TIP3    H152010   5.708   6.068   0.436 -1.1851 -2.1722  0.8241
10173TIP3    H252011   5.820   5.969   0.457  0.2588 -0.8279 -0.4462
10174TIP3   OH252012   1.935   4.402  11.486 -0.3204 -0.0936  0.0293
10174TIP3    H152013   1.926   4.315  11.525 -0.0008  0.0072  0.3274
10174TIP3    H252014   1.858   4.411  11.430 -0.4557 -0.4914  0.1485
10175TIP3   OH252015   4.387   1.578   4.656  0.1754  0.4025 -0.2586
10175TIP3    H152016   4.442   1.605   4.729 -1.1969  2.1985  0.1410
10175TIP3    H252017   4.353   1.660   4.619 -0.5302 -0.5633 -1.8126
10176TIP3   OH252018   3.419   2.166  11.024 -0.3484  0.3525  0.1009
10176TIP3    H152019   3.331   2.134  11.002 -0.6922  0.8430  0.7181
10176TIP3    H252020   3.478   2.097  10.994 -1.1568 -1.4771  2.5181
10177TIP3   OH252021   0.296   1.871   2.451 -0.4310 -0.3064 -0.0465
10177TIP3    H152022   0.371   1.926   2.470 -0.5179  0.3395 -1.5244
10177TIP3    H252023   0.291   1.868   2.355 -1.7414 -1.0750  0.0250
10178TIP3   OH252024   5.221   0.786  14.098 -0.1093  0.3179 -0.2168
10178TIP3    H152025   5.142   0.840  14.097 -1.5611 -1.7592 -1.6282
10178TIP3    H252026   5.238   0.770  14.190  1.1484  4.2650  0.3106
10179TIP3   OH252027   1.223   1.781   5.162 -0.4096  0.0466  0.9569
10179TIP3    H152028   1.280   1.745   5.231  0.4189  1.4328  0.9990
10179TIP3    H252029   1.168   1.844   5.208  1.2860  2.2177  0.0833
10180TIP3   OH252030   3.342   0.743   6.216  0.0078 -0.0211 -0.7813
10180TIP3    H152031   3.311   0.675   6.156  0.1757  0.8032 -1.8360
10180TIP3    H252032   3.272   0.809   6.215  0.1530  0.1371 -0.3209
10181TIP3   OH252033   3.676   4.606  12.174 -0.2046 -0.0918  0.3577
10181TIP3    H152034   3.595   4.652  12.199 -0.7404 -1.2003  0.6845
10181TIP3    H252035   3.683   4.621  12.080 -1.3833 -0.8880  0.1256
10182TIP3   OH252036   2.656   3.039   2.504 -0.6080  0.0875 -0.5214
10182TIP3    H152037   2.587   3.104   2.510 -0.7019 -0.0306 -0.3127
10182TIP3    H252038   2.707   3.051   2.584  0.5506  1.2371 -1.4139
10183TIP3   OH252039   1.189   1.449   5.113  0.1741  0.2189  0.7021
10183TIP3    H152040   1.206   1.523   5.055  0.9414 -0.2847  0.2941
10183TIP3    H252041   1.140   1.487   5.186 -1.7355  0.6757 -0.7663
10184TIP3   OH252042   3.072   4.540  12.845  0.3894  0.1493 -0.1006
10184TIP3    H152043   3.087   4.635  12.845  0.6841  0.1037  0.0995
10184TIP3    H252044   3.160   4.502  12.836  0.7226 -0.1815  3.7665
10185TIP3   OH252045   2.569   1.919  17.151  0.7550 -0.4525 -0.0811
10185TIP3    H152046   2.634   1.851  17.171 -0.0079 -1.4319 -0.8671
10185TIP3    H252047   2.494   1.899  17.208  0.8971  0.3150  0.3858
10186TIP3   OH252048   6.748   4.174  15.307 -0.2916  0.0754 -0.0687
10186TIP3    H152049   6.723   4.109  15.373  0.3090 -1.5245 -1.3841
10186TIP3    H252050   6.699   4.252  15.332 -0.7314 -0.7428  1.7825
10187TIP3   OH252051   3.990   4.462   4.636  1.0926  0.0422  0.2421
10187TIP3    H152052   4.074   4.433   4.601  2.0470  1.0260  1.7003
10187TIP3    H252053   3.972   4.402   4.708  0.2230 -0.5574 -0.4602
10188TIP3   OH252054   0.567   6.390  17.062 -0.1860 -0.2166  0.1120
10188TIP3    H152055   0.555   6.359  17.152  1.0825  0.7284  0.6339
10188TIP3    H252056   0.648   6.346  17.033  0.8321  1.4593  0.3634
10189TIP3   OH252057   5.444   3.111  13.534  0.6016  0.0334 -0.3504
10189TIP3    H152058   5.524   3.087  13.580  1.4649  0.5857 -1.5285
10189TIP3    H252059   5.468   3.111  13.441 -0.0540  2.7164 -0.5665
10190TIP3   OH252060   1.390   5.499  13.867 -0.0299 -0.6353  0.0087
10190TIP3    H152061   1.366   5.416  13.908  1.3635 -0.2380  1.7019
10190TIP3    H252062   1.315   5.557  13.883 -0.2269 -1.0100  0.4432
10191TIP3   OH252063   5.079   5.086   0.529  0.1026 -0.3625  0.5957
10191TIP3    H152064   5.054   5.134   0.608  0.7984 -0.0234  0.6156
10191TIP3    H252065   5.078   4.994   0.555 -1.5713 -0.4030  0.4701
10192TIP3   OH252066   2.201   0.599   0.243  0.8097  0.0223 -0.4702
10192TIP3    H152067   2.137   0.623   0.310  1.0626 -2.0940  0.5720
10192TIP3    H252068   2.168   0.517   0.207  2.4096 -0.5820 -0.6151
10193TIP3   OH252069   2.412   2.717   0.143  0.2082  0.5888 -0.7344
10193TIP3    H152070   2.435   2.626   0.131 -0.3123  0.4069 -0.4030
10193TIP3    H252071   2.442   2.761   0.064  2.3302  0.4968  0.0091
10194TIP3   OH252072   1.399   5.564   0.945  0.0423  0.0776  0.6848
10194TIP3    H152073   1.383   5.516   1.026  0.4516 -0.5214  0.4183
10194TIP3    H252074   1.492   5.587   0.949 -0.4176  1.8718  1.3502
10195TIP3   OH252075   2.435   3.614   1.473 -0.5951 -0.0622 -0.2352
10195TIP3    H152076   2.423   3.708   1.468 -1.2782 -0.1167  0.3273
10195TIP3    H252077   2.457   3.588   1.383 -1.0150  0.5429 -0.5171
10196TIP3   OH252078   1.016   1.539  15.276 -0.7056 -0.2794 -0.3085
10196TIP3    H152079   1.089   1.580  15.230 -0.6479  0.6833  0.6322
10196TIP3    H252080   0.939   1.587  15.245 -0.8045 -0.4742 -0.3637
10197TIP3   OH252081   6.450   6.002   6.155 -0.1687 -1.0920  0.2307
10197TIP3    H152082   6.449   6.080   6.210  1.5811 -0.4518 -0.5867
10197TIP3    H252083   6.371   5.954   6.179 -0.3635  0.0609  1.9861
10198TIP3   OH252084   1.945   5.647  14.523 -0.3949 -0.3749 -0.1017
10198TIP3    H152085   2.034   5.680  14.518 -0.5596  0.2158  0.7849
10198TIP3    H252086   1.929   5.608  14.437  0.3237  0.4996 -0.6390
10199TIP3   OH252087   1.740   4.024  14.806 -0.2856  0.0874 -0.5042
10199TIP3    H152088   1.732   4.071  14.723  1.9792 -0.2171 -0.9192
10199TIP3    H252089   1.720   4.090  14.873 -3.3235  0.0397 -1.2666
10200TIP3   OH252090   4.151   4.634  15.408  0.0706  0.0664  0.2959
10200TIP3    H152091   4.219   4.690  15.371  0.8553 -0.7052  0.5424
10200TIP3    H252092   4.123   4.680  15.487 -1.1657  1.4043 -0.8855
10201TIP3   OH252093   1.096   3.779  17.258  0.5602 -0.6729  0.3451
10201TIP3    H152094   1.142   3.863  17.267  3.4534 -2.0268 -1.2639
10201TIP3    H252095   1.078   3.772  17.164 -1.0411 -1.1850  0.6719
10202TIP3   OH252096   6.550   3.814   0.181 -0.5797  0.4457  0.0247
10202TIP3    H152097   6.531   3.721   0.185 -1.0126  0.6239  2.5640
10202TIP3    H252098   6.646   3.819   0.182 -0.5426  0.0131 -0.8881
10203TIP3   OH252099   4.471   6.154  16.823 -0.0365 -0.6239  0.1159
10203TIP3    H152100   4.450   6.237  16.781 -0.0850 -0.7249 -0.0557
10203TIP3    H252101   4.404   6.143  16.890  0.6205  0.0374  0.9093
10204TIP3   OH252102   3.392   3.139   1.863 -0.1344 -0.0089 -0.0517
10204TIP3    H152103   3.394   3.213   1.923 -0.4173  0.0713 -0.1401
10204TIP3    H252104   3.389   3.178   1.775 -1.2107 -0.1110 -0.0748
10205TIP3   OH252105   1.790   5.402   5.611 -0.5832  0.2568  0.4575
10205TIP3    H152106   1.785   5.352   5.693 -3.3676 -0.5875 -0.1715
10205TIP3    H252107   1.827   5.486   5.637 -0.8225 -0.2323  2.4799
10206TIP3   OH252108   4.592   6.668   1.947  0.4208 -0.2147  0.2193
10206TIP3    H152109   4.602   6.758   1.915 -0.9031  0.4571  1.6466
10206TIP3    H252110   4.674   6.625   1.922  1.6166  1.7408  0.6763
10207TIP3   OH252111   0.448   0.910   2.295  0.0279  0.3932  0.0633
10207TIP3    H152112   0.481   0.969   2.363  0.1519  1.4606 -0.9061
10207TIP3    H252113   0.402   0.967   2.233 -1.7922 -0.8072  0.2571
10208TIP3   OH252114   1.129   6.122  16.755  0.0769 -0.0146 -0.0210
10208TIP3    H152115   1.035   6.104  16.760  0.0681 -0.1353 -0.5919
10208TIP3    H252116   1.169   6.058  16.814 -0.3797  1.5355  2.0158
10209TIP3   OH252117   5.345   1.432   2.332 -0.1433  0.1750 -0.4261
10209TIP3    H152118   5.276   1.373   2.364 -0.7002  1.1683  0.2259
10209TIP3    H252119   5.416   1.421   2.396 -0.3331  0.3724 -0.1786
10210TIP3   OH252120   2.647   4.752  13.238 -0.2695 -0.6419  0.0221
10210TIP3    H152121   2.733   4.768  13.276 -0.1656 -0.9530 -0.0801
10210TIP3    H252122   2.628   4.830  13.186 -0.6432  0.0193  1.1347
10211TIP3   OH252123   1.450   3.472   0.863  0.3222  0.1108  0.5429
10211TIP3    H152124   1.438   3.566   0.879 -1.6785 -0.4890  2.8168
10211TIP3    H252125   1.541   3.455   0.887  0.8400  1.5492 -0.3358
10212TIP3   OH252126   1.938   6.691  10.574 -0.3566 -1.1096 -0.1009
10212TIP3    H152127   1.846   6.695  10.548  0.0165  0.7137 -1.2723
10212TIP3    H252128   1.985   6.670  10.494  0.5240  1.3951 -0.3153
10213TIP3   OH252129   2.280   2.627  10.154 -0.0031 -0.2089  0.2656
10213TIP3    H152130   2.248   2.541  10.183 -0.4440  0.2827  1.2392
10213TIP3    H252131   2.345   2.652  10.219  1.0011 -0.3248 -0.6629
10214TIP3   OH252132   2.180   1.255  15.148  0.1581  0.0298  0.3728
10214TIP3    H152133   2.153   1.166  15.126  0.7307 -0.0226 -0.1540
10214TIP3    H252134   2.224   1.287  15.069 -0.3782  0.9182  0.4212
10215TIP3   OH252135   4.921   3.250   4.691 -0.1793  0.2170 -0.3289
10215TIP3    H152136   4.963   3.167   4.670  0.0266  0.2577 -0.0757
10215TIP3    H252137   4.986   3.316   4.668 -0.2216  0.2937 -0.2261
10216TIP3   OH252138   3.813   3.692   2.710  0.0865  0.5685  0.4439
10216TIP3    H152139   3.819   3.776   2.666  0.2584  0.8984  1.0938
10216TIP3    H252140   3.750   3.706   2.781 -1.0768 -0.2743 -0.4106
10217TIP3   OH252141   3.313   4.214   3.616  0.6546  0.7415 -0.5396
10217TIP3    H152142   3.226   4.175   3.602  1.0829 -0.9971  1.4110
10217TIP3    H252143   3.358   4.152   3.673  2.6602  2.3709 -0.3002
10218TIP3   OH252144   4.985   6.484  15.659  0.0210 -0.0084  0.0404
10218TIP3    H152145   4.920   6.468  15.728 -0.6272  1.7194 -0.1506
10218TIP3    H252146   5.011   6.396  15.631  0.6176 -0.7628  2.7779
10219TIP3   OH252147   3.677   1.457   0.295  0.4279  0.2165  0.0731
10219TIP3    H152148   3.727   1.426   0.371  0.8719 -1.8752 -1.0416
10219TIP3    H252149   3.597   1.493   0.333  1.0817  0.1092  1.6106
10220TIP3   OH252150   5.685   6.420  14.584  0.1532  0.3694  0.3558
10220TIP3    H152151   5.763   6.386  14.628 -0.2548 -1.1732 -0.0872
10220TIP3    H252152   5.719   6.461  14.504  0.6811  1.3377  1.0660
10221TIP3   OH252153   2.035   2.241   5.855  0.8328  0.4184  0.1092
10221TIP3    H152154   2.016   2.148   5.859  0.8022  0.4102 -0.2008
10221TIP3    H252155   2.108   2.254   5.915 -0.3916  0.5068  1.6109
10222TIP3   OH252156   0.369   3.092   1.516  0.3130  0.2073  0.7887
10222TIP3    H152157   0.320   3.015   1.546  0.2204  0.6831  1.8781
10222TIP3    H252158   0.420   3.060   1.442  0.3214 -0.9245  1.2683
10223TIP3   OH252159   5.008   5.615  12.986  0.6242 -0.0716 -0.1968
10223TIP3    H152160   4.953   5.669  13.042 -2.8604  0.4493 -3.9175
10223TIP3    H252161   4.967   5.528  12.989  1.2375 -0.3879 -0.8365
10224TIP3   OH252162   0.533   6.250   0.022  0.0834  0.1348 -0.2520
10224TIP3    H152163   0.493   6.234   0.107 -1.2367  0.9475 -0.7066
10224TIP3    H252164   0.477   6.203  -0.040 -1.1244  2.5753 -1.0709
10225TIP3   OH252165   3.759   6.383   4.565 -0.6708 -0.0973  0.2754
10225TIP3    H152166   3.780   6.341   4.481 -1.1256  1.2276 -0.5200
10225TIP3    H252167   3.702   6.321   4.609 -2.0411  0.0345 -1.2541
10226TIP3   OH252168   3.818   1.453   4.167  0.0852  0.2076 -0.1421
10226TIP3    H152169   3.877   1.423   4.098  0.7648  1.2494 -0.0241
10226TIP3    H252170   3.742   1.395   4.161  0.2415  0.1518 -1.6064
10227TIP3   OH252171   0.965   3.157  11.040 -0.2831  0.0305  0.4655
10227TIP3    H152172   1.011   3.074  11.028 -0.6829 -0.2134  0.6260
10227TIP3    H252173   0.987   3.208  10.962 -1.8839 -1.0940 -0.7323
10228TIP3   OH252174   3.670   0.839   5.205 -0.1619  0.4761  0.0933
10228TIP3    H152175   3.603   0.906   5.199  0.4928  1.0657 -0.8218
10228TIP3    H252176   3.746   0.876   5.159 -0.3043 -1.5253 -1.8467
10229TIP3   OH252177   4.057   1.080  15.722  0.3140  0.2425  1.3571
10229TIP3    H152178   4.087   0.989  15.722  0.6403  0.2700 -1.7281
10229TIP3    H252179   4.137   1.132  15.735  0.5326  0.1309  0.5093
10230TIP3   OH252180   0.506   4.801  10.571  0.5393  0.3126  0.2511
10230TIP3    H152181   0.428   4.753  10.600  0.3632 -0.7645 -1.9424
10230TIP3    H252182   0.558   4.736  10.525  3.0862  0.8723  2.2119
10231TIP3   OH252183   2.873   0.822   1.745 -0.3814  0.6550  0.4049
10231TIP3    H152184   2.821   0.757   1.792  0.1873 -0.1296 -0.0566
10231TIP3    H252185   2.833   0.906   1.769 -1.0261  0.1517  1.1058
10232TIP3   OH252186   4.048   5.639  14.716 -0.3454  0.1317  0.5075
10232TIP3    H152187   4.107   5.704  14.754 -0.2151  0.9390 -1.0592
10232TIP3    H252188   4.048   5.657  14.622 -2.0504 -0.7015  0.3194
10233TIP3   OH252189   2.045   3.028  16.681  0.4553  0.1061 -0.7509
10233TIP3    H152190   1.967   3.061  16.637  0.0946 -1.8939 -1.6512
10233TIP3    H252191   2.097   2.986  16.612  0.8936 -1.2026  0.3355
10234TIP3   OH252192   6.082   4.715  16.146  0.0813  0.2359 -0.0121
10234TIP3    H152193   6.006   4.660  16.130 -0.2461  1.1948 -1.7539
10234TIP3    H252194   6.153   4.652  16.163 -0.7831 -0.6728  0.3038
10235TIP3   OH252195   0.339   3.885   1.900 -0.7428 -0.4149  0.6523
10235TIP3    H152196   0.348   3.793   1.926  0.6783 -0.5346 -0.1952
10235TIP3    H252197   0.245   3.898   1.889 -0.8969 -2.0375 -0.1278
10236TIP3   OH252198   4.417   3.375  16.378 -0.0211  0.0489  0.4473
10236TIP3    H152199   4.352   3.439  16.347  0.1493  0.7570  1.5268
10236TIP3    H252200   4.497   3.426  16.389  0.7986 -0.8616 -1.0551
10237TIP3   OH252201   5.580   6.447   6.422  0.2001  0.0688  0.2380
10237TIP3    H152202   5.549   6.386   6.489  0.4016 -1.1442 -0.7413
10237TIP3    H252203   5.521   6.434   6.348  0.9107  0.2659 -0.3753
10238TIP3   OH252204   4.837   5.570  16.137  0.1842  0.0940 -0.0660
10238TIP3    H152205   4.757   5.611  16.106 -0.5229 -1.3701 -0.2134
10238TIP3    H252206   4.880   5.536  16.058  0.4068 -0.0757  0.1220
10239TIP3   OH252207   4.380   0.535  12.545  0.5430  0.0165  0.4747
10239TIP3    H152208   4.297   0.560  12.585 -0.7550 -1.5057 -1.1369
10239TIP3    H252209   4.402   0.608  12.487  0.5873  0.6411  1.2781
10240TIP3   OH252210   3.986   4.406   5.401  0.0805 -0.4724  0.8161
10240TIP3    H152211   4.057   4.358   5.359  0.2762 -0.3102  0.9619
10240TIP3    H252212   4.020   4.431   5.486 -0.3002 -0.7555  1.0512
10241TIP3   OH252213   6.380   5.884  16.866 -0.2084 -0.0428 -0.1761
10241TIP3    H152214   6.428   5.897  16.784  1.2123 -1.8732  0.3497
10241TIP3    H252215   6.435   5.923  16.933  0.0647 -1.2218  0.2923
10242TIP3   OH252216   4.307   0.918  14.092 -0.5981  0.3003 -0.4773
10242TIP3    H152217   4.273   1.002  14.061 -2.2589 -1.0322 -2.3837
10242TIP3    H252218   4.235   0.881  14.143 -0.1211 -0.2643 -0.2154
10243TIP3   OH252219   6.023   0.721  16.912  0.1409 -0.6448 -0.5983
10243TIP3    H152220   5.931   0.733  16.886 -0.2688 -0.4534  0.9059
10243TIP3    H252221   6.072   0.773  16.848 -1.0813  2.5363  0.9317
10244TIP3   OH252222   1.556   4.495  12.724  0.6298  0.1813  0.4259
10244TIP3    H152223   1.565   4.589  12.715  1.2763  0.0596 -0.2805
10244TIP3    H252224   1.494   4.470  12.655  0.7955  0.0319  0.3311
10245TIP3   OH252225   3.764   3.101  11.528  0.5829 -0.3493  0.2025
10245TIP3    H152226   3.698   3.069  11.467 -1.1402  0.5638  1.5129
10245TIP3    H252227   3.786   3.025  11.582  0.3308 -0.5638  0.0034
10246TIP3   OH252228   6.804   5.909  12.217  0.0305  0.0268  0.2576
10246TIP3    H152229   6.885   5.857  12.216 -1.0839 -1.7400 -0.2815
10246TIP3    H252230   6.799   5.947  12.130  0.7646  0.9120  0.5980
10247TIP3   OH252231   3.767   2.432  14.179 -0.6330  0.6698  0.1576
10247TIP3    H152232   3.745   2.379  14.256 -1.0081 -0.4012 -0.6617
10247TIP3    H252233   3.720   2.389  14.107  1.7195  0.1606 -1.1128
10248TIP3   OH252234   6.615   0.546   0.334  0.3886  0.3649  0.0578
10248TIP3    H152235   6.651   0.460   0.313 -1.2480 -0.0713 -0.9934
10248TIP3    H252236   6.575   0.535   0.420  0.0900  0.0511 -0.1205
10249TIP3   OH252237   1.703   0.740  15.583 -0.2904  0.2344 -0.1672
10249TIP3    H152238   1.639   0.677  15.614 -0.0093 -0.1802 -0.4214
10249TIP3    H252239   1.658   0.824  15.585 -0.6079  0.0521  0.3483
10250TIP3   OH252240   4.634   0.968   5.010  0.0959  0.2037 -0.2677
10250TIP3    H152241   4.673   0.887   4.977  0.4128  0.3471 -0.2457
10250TIP3    H252242   4.675   1.037   4.958 -1.1245  0.2582 -1.1811
10251TIP3   OH252243   4.830   0.095   2.754 -0.5566 -0.0483  0.0284
10251TIP3    H152244   4.766   0.109   2.824  1.4745 -0.0770  1.9388
10251TIP3    H252245   4.857   0.183   2.728 -0.1859 -0.0763  0.3255
10252TIP3   OH252246   2.770   6.298   0.940 -0.7723  0.4526 -0.0938
10252TIP3    H152247   2.754   6.323   1.031 -2.8408 -2.2786  0.3875
10252TIP3    H252248   2.708   6.350   0.890  0.9753  2.6057 -0.0595
10253TIP3   OH252249   4.439   5.033   0.147  0.2915 -0.1374  0.0755
10253TIP3    H152250   4.415   5.123   0.128 -1.6353 -0.5620  0.4521
10253TIP3    H252251   4.514   5.015   0.089  1.8732  2.2575  1.2851
10254TIP3   OH252252   1.815   1.160  16.917  0.0686 -0.2140 -0.5689
10254TIP3    H152253   1.770   1.138  16.836  0.5114  2.2916 -1.5674
10254TIP3    H252254   1.840   1.252  16.905  1.1460 -0.1543  1.9440
10255TIP3   OH252255   2.174   2.914   5.205  0.5495 -0.2517 -0.5090
10255TIP3    H152256   2.173   3.004   5.174  1.8255 -0.1539 -0.2717
10255TIP3    H252257   2.220   2.917   5.289 -3.2153 -0.4541  1.6749
10256TIP3   OH252258   0.804   3.188  15.779  0.7772 -0.1430 -0.1988
10256TIP3    H152259   0.878   3.160  15.833 -0.5605 -3.8634 -0.1550
10256TIP3    H252260   0.833   3.173  15.689  0.7904  0.2337 -0.2559
10257TIP3   OH252261   5.292   3.864  16.642  0.3983  0.5313  0.0834
10257TIP3    H152262   5.277   3.837  16.551 -3.1909  0.1787  0.6903
10257TIP3    H252263   5.351   3.798  16.677 -0.3089 -0.8803 -1.2765
10258TIP3   OH252264   5.166   1.788  11.357 -0.5710 -0.4206  0.3668
10258TIP3    H152265   5.215   1.706  11.345  0.4746  0.1669  0.4970
10258TIP3    H252266   5.145   1.790  11.450 -0.5941 -0.5482  0.3630
10259TIP3   OH252267   1.565   4.206   0.185 -0.3139 -0.4298 -0.1726
10259TIP3    H152268   1.550   4.151   0.262  0.6214  0.6888  0.8043
10259TIP3    H252269   1.582   4.143   0.115  0.3492 -1.4072  0.8450
10260TIP3   OH252270   3.417   6.808  11.607  0.0360 -0.6276  0.6284
10260TIP3    H152271   3.420   6.792  11.702  0.7595  1.0678  0.9210
10260TIP3    H252272   3.338   6.861  11.595  0.3230 -0.2512  0.3939
10261TIP3   OH252273   6.330   0.450  12.056  0.0179 -0.4501 -0.3064
10261TIP3    H152274   6.414   0.481  12.021  0.8895  0.1216  2.1650
10261TIP3    H252275   6.349   0.361  12.087 -0.4916 -0.5800 -0.3613
10262TIP3   OH252276   1.271   1.874  12.446  0.3542  0.4754 -0.2439
10262TIP3    H152277   1.239   1.784  12.441 -1.2700  1.0563 -0.6401
10262TIP3    H252278   1.365   1.867  12.431  0.6865 -1.4470  2.3648
10263TIP3   OH252279   2.663   5.431  15.763  0.1028 -0.0801  0.2549
10263TIP3    H152280   2.620   5.346  15.770  0.7708 -0.5094 -0.6457
10263TIP3    H252281   2.594   5.492  15.737 -0.3851 -0.3454  0.9403
10264TIP3   OH252282   2.987   2.374  14.894  0.2679  0.1806  0.0604
10264TIP3    H152283   2.924   2.444  14.909  0.2701  0.5450 -1.5136
10264TIP3    H252284   3.014   2.385  14.803  2.2624 -0.2439  0.5713
10265TIP3   OH252285   0.053   2.940   1.267 -0.3201 -0.0664 -0.0728
10265TIP3    H152286   0.116   2.884   1.312 -1.4991 -0.1833  1.4967
10265TIP3    H252287  -0.023   2.942   1.326 -1.3973  0.8510 -1.4617
10266TIP3   OH252288   5.315   1.636   3.608  0.0502 -0.5114 -0.0223
10266TIP3    H152289   5.394   1.615   3.658  0.0951 -1.3484 -0.4423
10266TIP3    H252290   5.242   1.615   3.666  0.1134 -0.8230 -0.0570
10267TIP3   OH252291   3.014   2.030   4.192 -0.3180  0.0126 -0.7106
10267TIP3    H152292   2.938   2.057   4.244  0.2504 -0.0570  0.1575
10267TIP3    H252293   2.978   2.012   4.105 -1.1388  0.9328 -0.5703
10268TIP3   OH252294   5.903   2.300   0.740 -0.4013  0.3407 -0.2812
10268TIP3    H152295   5.819   2.281   0.780 -1.0432 -2.3357 -2.7263
10268TIP3    H252296   5.910   2.396   0.742 -2.3671  0.4676  2.1121
10269TIP3   OH252297   1.847   3.606   2.993 -0.4178  0.1290  0.3720
10269TIP3    H152298   1.765   3.612   3.042  0.1455  1.6833  1.1483
10269TIP3    H252299   1.841   3.523   2.946 -1.7525 -0.5112  1.6553
10270TIP3   OH252300   1.266   0.827  14.289  0.7283  0.4259 -0.1353
10270TIP3    H152301   1.261   0.907  14.342 -0.1330  0.6231 -0.5155
10270TIP3    H252302   1.190   0.776  14.315 -0.1616  0.8947 -1.7793
10271TIP3   OH252303   4.608   1.010   0.775  0.2040  0.1556  0.1250
10271TIP3    H152304   4.623   0.943   0.842 -1.6384  0.1586  0.5600
10271TIP3    H252305   4.671   1.079   0.796  0.8735 -0.6331  0.7658
10272TIP3   OH252306   1.927   2.809   0.846  0.2950  0.2856 -0.3499
10272TIP3    H152307   1.991   2.764   0.902  1.1684 -0.3348 -1.7863
10272TIP3    H252308   1.953   2.901   0.849 -0.1164  0.3596  0.8455
10273TIP3   OH252309   2.073   0.155  12.276 -0.0685 -0.2664 -0.5249
10273TIP3    H152310   1.986   0.194  12.287  0.0884  0.0045 -0.2383
10273TIP3    H252311   2.075   0.084  12.340 -0.3951 -0.8291 -1.1215
10274TIP3   OH252312   0.275   2.142  16.815 -0.3600  0.3907  0.4545
10274TIP3    H152313   0.316   2.168  16.732  0.4766 -0.1411  0.6946
10274TIP3    H252314   0.208   2.078  16.789  0.4795 -0.4264  0.2469
10275TIP3   OH252315   0.764   2.661  14.480  0.3763  0.1845 -0.1629
10275TIP3    H152316   0.685   2.650  14.427 -0.9622  0.6036  1.6606
10275TIP3    H252317   0.767   2.755  14.498  0.3344 -0.0478  1.1490
10276TIP3   OH252318   4.789   6.327  13.401 -0.0411  0.1566 -0.0621
10276TIP3    H152319   4.760   6.408  13.442  0.0130  0.1330  0.0222
10276TIP3    H252320   4.844   6.285  13.467  2.6961  1.6554 -1.3120
10277TIP3   OH252321   4.526   1.060  14.321 -0.0349  0.0882 -0.0960
10277TIP3    H152322   4.472   1.139  14.327 -0.7272 -0.3686 -0.2051
10277TIP3    H252323   4.508   1.012  14.402  0.1603 -0.0960 -0.1607
10278TIP3   OH252324   0.404   3.490   0.343  0.3315 -0.0754  0.4260
10278TIP3    H152325   0.341   3.418   0.342 -1.2063  1.2486  0.1743
10278TIP3    H252326   0.405   3.519   0.434  0.4599  0.0189  0.3941
10279TIP3   OH252327   3.877   4.999   2.764 -0.1189  0.0880  0.8640
10279TIP3    H152328   3.899   4.919   2.716 -0.3644 -0.7070  2.0557
10279TIP3    H252329   3.818   5.047   2.705 -1.2276 -1.3597  0.7657
10280TIP3   OH252330   5.513   4.120  14.545 -0.0914 -0.1929  0.2811
10280TIP3    H152331   5.459   4.173  14.487 -1.1972 -0.7255  0.8257
10280TIP3    H252332   5.494   4.154  14.633 -0.3670 -1.0983  0.5773
10281TIP3   OH252333   2.507   6.675   3.373 -0.4663  0.4356 -0.0971
10281TIP3    H152334   2.591   6.718   3.389  0.6066 -1.1512 -1.3348
10281TIP3    H252335   2.470   6.663   3.461  1.2971 -0.2196  0.5807
10282TIP3   OH252336   2.486   2.867  10.806  0.9431 -0.5427  0.0839
10282TIP3    H152337   2.423   2.799  10.782 -0.1837  0.2478  0.7968
10282TIP3    H252338   2.468   2.939  10.746  1.5878 -0.5449 -0.1178
10283TIP3   OH252339   2.600   4.945  14.159  0.0573  0.2354  0.6156
10283TIP3    H152340   2.533   5.002  14.196  1.3688  1.5862  0.9620
10283TIP3    H252341   2.570   4.856  14.178 -2.4952  0.7642 -0.7572
10284TIP3   OH252342   4.352   6.156  16.458  0.3280  0.5406 -0.4517
10284TIP3    H152343   4.374   6.241  16.495  1.4857  1.2347 -2.6284
10284TIP3    H252344   4.262   6.139  16.487 -0.1125  2.7577 -0.4555
10285TIP3   OH252345   1.325   1.059  11.945  0.3226  0.3288 -0.0659
10285TIP3    H152346   1.329   0.967  11.972 -1.7755  0.6689  1.5486
10285TIP3    H252347   1.416   1.087  11.941  0.9347 -1.4860  0.6838
10286TIP3   OH252348   4.500   2.648   0.757  0.5281  0.1761  0.6046
10286TIP3    H152349   4.591   2.622   0.741  0.0995 -0.6575 -0.5305
10286TIP3    H252350   4.472   2.686   0.674 -0.6471 -1.0054  0.4525
10287TIP3   OH252351   6.474   4.990   5.459 -0.3649 -0.1106 -0.1321
10287TIP3    H152352   6.551   5.045   5.473 -1.1504  0.5435  1.6933
10287TIP3    H252353   6.410   5.050   5.421 -0.1697 -0.5284 -1.1351
10288TIP3   OH252354   4.698   4.774   2.763 -0.2086 -0.0295  0.2958
10288TIP3    H152355   4.691   4.817   2.678 -2.2307 -0.6062  0.1365
10288TIP3    H252356   4.681   4.681   2.745  2.2553 -0.6222  0.9032
10289TIP3   OH252357   0.729   5.466   5.055  0.2035 -0.5379  0.3901
10289TIP3    H152358   0.655   5.426   5.010 -0.3371 -0.7060  1.4242
10289TIP3    H252359   0.788   5.492   4.985 -0.7024 -0.6615 -0.4285
10290TIP3   OH252360   6.258   1.816   2.369 -0.1137 -0.5024  0.3938
10290TIP3    H152361   6.349   1.816   2.338  0.0346 -1.3738  0.8310
10290TIP3    H252362   6.260   1.871   2.448 -0.3927  1.2858 -0.8088
10291TIP3   OH252363   2.970   1.755  17.138 -0.0484 -0.1540 -0.4043
10291TIP3    H152364   3.038   1.740  17.204  1.2676  2.0268 -1.2375
10291TIP3    H252365   2.889   1.764  17.189  0.6807 -0.2073  0.7876
10292TIP3   OH252366   6.438   2.224   1.735 -0.3162 -0.4082 -0.0387
10292TIP3    H152367   6.391   2.306   1.726  0.6183  0.5699  3.2243
10292TIP3    H252368   6.429   2.181   1.650 -1.2670  2.8073 -1.6204
10293TIP3   OH252369   0.312   5.741   3.398 -0.3370  0.7328  0.2026
10293TIP3    H152370   0.295   5.736   3.492 -1.1272  2.3138  0.1724
10293TIP3    H252371   0.225   5.738   3.358 -0.0071  0.0866 -0.4778
10294TIP3   OH252372   0.498   0.778  16.951 -0.0713 -0.1566 -0.3546
10294TIP3    H152373   0.554   0.814  16.883 -0.6123 -1.4527 -1.4830
10294TIP3    H252374   0.469   0.694  16.918 -2.0385  0.1250  0.5600
10295TIP3   OH252375   6.047   5.814   4.516  0.3780  0.5646 -0.4103
10295TIP3    H152376   6.006   5.883   4.568  0.4181  1.6462 -1.7526
10295TIP3    H252377   6.020   5.834   4.426 -1.3895 -2.4329 -0.6190
10296TIP3   OH252378   6.132   3.662  13.545 -0.7794 -0.9668  0.1432
10296TIP3    H152379   6.057   3.703  13.589 -1.4384 -0.5177 -1.3527
10296TIP3    H252380   6.135   3.704  13.459  0.3692 -1.9465 -0.3120
10297TIP3   OH252381   1.545   5.808  14.048  0.1803  0.5083 -0.0707
10297TIP3    H152382   1.617   5.835  13.991  2.3378 -0.5978  2.0276
10297TIP3    H252383   1.545   5.713  14.043 -0.1633  0.4431  1.0864
10298TIP3   OH252384   0.797   4.596  11.603 -0.5102  0.4342  0.1205
10298TIP3    H152385   0.862   4.621  11.667 -1.7919  2.0434  0.8463
10298TIP3    H252386   0.847   4.575  11.524  0.8846  1.4822  0.7114
10299TIP3   OH252387   3.585   5.119   1.922 -0.6309  0.4086  0.2607
10299TIP3    H152388   3.610   5.209   1.902 -0.2590  0.4676  0.9667
10299TIP3    H252389   3.668   5.075   1.943 -0.6667 -0.4059 -1.2419
10300TIP3   OH252390   4.315   2.697  15.743  0.0406  0.4478  0.0260
10300TIP3    H152391   4.234   2.645  15.748  0.1816  0.2161 -0.0819
10300TIP3    H252392   4.370   2.649  15.682  0.8582 -0.2022  1.2529
10301TIP3   OH252393   3.576   4.731  16.465 -0.1718 -0.1081  0.3592
10301TIP3    H152394   3.609   4.688  16.543  0.5074 -0.7119 -0.2474
10301TIP3    H252395   3.654   4.744  16.410 -0.6994 -0.0998 -0.4029
10302TIP3   OH252396   2.269   5.106   4.911 -0.2666  0.4260  0.2573
10302TIP3    H152397   2.257   5.190   4.956  0.4773  0.3002  0.7118
10302TIP3    H252398   2.319   5.128   4.833 -0.0574  0.4115  0.3848
10303TIP3   OH252399   5.501   0.587   2.617 -0.4308  0.0545  0.7201
10303TIP3    H152400   5.422   0.638   2.601 -1.0295 -0.1453  2.9240
10303TIP3    H252401   5.552   0.639   2.679  0.1050 -0.8525  1.0625
10304TIP3   OH252402   5.249   0.440  16.836 -0.8354 -0.1618  0.1896
10304TIP3    H152403   5.285   0.367  16.886 -0.8235  0.0744  0.5312
10304TIP3    H252404   5.206   0.494  16.902  0.3541  0.8650  0.1523
10305TIP3   OH252405   2.281   1.039   0.210 -0.4418 -0.1793 -0.2095
10305TIP3    H152406   2.296   0.947   0.188 -1.6557  0.4794 -4.1873
10305TIP3    H252407   2.359   1.084   0.179  0.8015  0.0704  3.0246
10306TIP3   OH252408   4.901   4.959   4.046  0.1168 -0.5680  0.0296
10306TIP3    H152409   4.871   5.026   4.107  2.3231 -1.2028  1.9033
10306TIP3    H252410   4.879   4.876   4.088 -0.3287 -1.0246 -1.0829
10307TIP3   OH252411   5.791   5.195  14.873 -0.8693  0.0747 -0.0734
10307TIP3    H152412   5.718   5.207  14.813 -1.8446 -1.3044  0.8064
10307TIP3    H252413   5.751   5.198  14.960  0.4725  1.6842  0.5059
10308TIP3   OH252414   5.934   2.205  13.022  0.2836  0.1094 -0.2099
10308TIP3    H152415   5.877   2.279  13.046 -0.1373 -0.0995 -0.5484
10308TIP3    H252416   5.907   2.135  13.081  1.2786  0.4844  0.6977
10309TIP3   OH252417   4.027   1.927  15.314  0.1699 -0.4198  0.0692
10309TIP3    H152418   4.059   1.952  15.227  1.7926 -1.2224  0.4242
10309TIP3    H252419   4.091   1.963  15.375 -1.2723  0.6457  0.9818
10310TIP3   OH252420   3.017   5.594   3.062 -0.3473  0.0217  0.2788
10310TIP3    H152421   2.981   5.680   3.039 -0.4396 -0.6631 -2.1757
10310TIP3    H252422   2.941   5.541   3.086 -0.3421  0.4167  1.2141
10311TIP3   OH252423   4.550   5.636   0.730  0.5215  0.7957 -0.4830
10311TIP3    H152424   4.561   5.552   0.774  2.8616  1.4756  0.2750
10311TIP3    H252425   4.482   5.620   0.664 -1.4296 -0.8121  1.8355
10312TIP3   OH252426   0.418   2.818  10.630 -0.0054 -0.2125  0.0981
10312TIP3    H152427   0.432   2.798  10.723  0.1986  2.5157  0.7151
10312TIP3    H252428   0.341   2.767  10.606 -0.9813  0.2009  2.1869
10313TIP3   OH252429   5.217   0.130   4.165 -0.0053 -0.6506  0.6731
10313TIP3    H152430   5.174   0.188   4.229 -1.7718 -1.7612  0.5272
10313TIP3    H252431   5.219   0.045   4.208 -0.7165 -1.2873 -0.5304
10314TIP3   OH252432   4.986   6.740  15.513 -0.0142  0.3264 -0.1906
10314TIP3    H152433   4.938   6.809  15.559  0.0859  0.7285 -0.6802
10314TIP3    H252434   5.010   6.678  15.581  0.2775  1.0020  0.3302
10315TIP3   OH252435   2.848   2.842   2.349 -0.2657  0.2215  0.3271
10315TIP3    H152436   2.783   2.890   2.401  1.3429  1.1083  1.5893
10315TIP3    H252437   2.905   2.911   2.314  1.3487 -0.6645  1.1404
10316TIP3   OH252438   6.420   6.155   5.629 -0.3778 -0.1556  0.1994
10316TIP3    H152439   6.331   6.120   5.635 -0.1345 -0.9194 -0.5621
10316TIP3    H252440   6.429   6.211   5.706 -1.4492 -0.2344  0.3850
10317TIP3   OH252441   0.629   3.122  12.423 -0.3675  0.0160  0.1272
10317TIP3    H152442   0.612   3.113  12.517  0.4228  0.0109  0.2730
10317TIP3    H252443   0.706   3.068  12.407 -0.2803  0.3043 -0.4549
10318TIP3   OH252444   4.171   2.908   3.010  0.1021  0.2919 -0.3977
10318TIP3    H152445   4.172   2.907   3.105  1.5873  2.1728 -0.3778
10318TIP3    H252446   4.138   2.995   2.987 -1.4058 -0.5749 -1.6183
10319TIP3   OH252447   3.993   1.362   3.973 -0.0903  0.1793  0.4402
10319TIP3    H152448   4.066   1.336   3.917 -1.3526  1.6867 -1.9751
10319TIP3    H252449   3.915   1.347   3.920 -1.5615 -0.9680  2.8076
10320TIP3   OH252450   5.124   0.631  13.476  0.2109  0.3038  0.7555
10320TIP3    H152451   5.044   0.679  13.496  0.6229  0.9838  0.7760
10320TIP3    H252452   5.178   0.693  13.426  0.8770 -0.0261  1.0519
10321TIP3   OH252453   2.551   1.493  13.034  0.0883 -0.7095  0.0513
10321TIP3    H152454   2.460   1.523  13.031 -0.0314 -0.7568  2.1672
10321TIP3    H252455   2.599   1.555  12.979 -1.3158 -1.0515 -1.5695
10322TIP3   OH252456   5.263   3.255  17.079 -0.3341 -0.0199 -0.2769
10322TIP3    H152457   5.290   3.269  16.988 -1.1653 -2.5917 -0.9529
10322TIP3    H252458   5.219   3.170  17.078 -1.3053  0.4179  2.3401
10323TIP3   OH252459   6.656   3.443   2.660  0.7315  0.1611 -0.0471
10323TIP3    H152460   6.712   3.518   2.679 -1.0495  1.2524  1.1769
10323TIP3    H252461   6.628   3.456   2.570 -0.6515  1.7692  0.5700
10324TIP3   OH252462   3.930   6.162   2.844  0.0665  0.7834  0.2650
10324TIP3    H152463   3.870   6.087   2.844 -0.2960  1.0343 -1.5298
10324TIP3    H252464   3.949   6.178   2.936 -0.7904 -0.7715  0.7323
10325TIP3   OH252465   4.476   3.922  13.904 -0.3884  0.7333  0.2082
10325TIP3    H152466   4.442   3.995  13.853  1.4043  1.7026  0.3701
10325TIP3    H252467   4.569   3.918  13.881 -0.4752 -1.5716  0.1143
10326TIP3   OH252468   0.845   0.150   4.731 -1.6736  0.4748  0.2194
10326TIP3    H152469   0.844   0.063   4.690 -1.3307  0.3390  0.4940
10326TIP3    H252470   0.920   0.194   4.690  1.3287 -1.1282  3.6833
10327TIP3   OH252471   6.281   2.301   3.970 -0.4231  0.4010  0.1602
10327TIP3    H152472   6.327   2.322   4.051  2.0843 -0.7069 -0.9005
10327TIP3    H252473   6.324   2.222   3.938 -0.3801  1.5908 -2.9332
10328TIP3   OH252474   3.006   1.028   0.034  0.0717 -0.2725  0.1637
10328TIP3    H152475   2.984   1.105  -0.018 -0.3339 -1.0263 -0.7746
10328TIP3    H252476   3.098   1.012   0.016 -0.0118 -0.4010 -0.1427
10329TIP3   OH252477   1.757   3.615  17.182  0.0129 -0.4678  0.4689
10329TIP3    H152478   1.827   3.584  17.123 -0.5660 -0.6723 -0.1152
10329TIP3    H252479   1.697   3.541  17.190 -1.2409  0.3937 -0.7161
10330TIP3   OH252480   5.964   4.999  13.162 -0.3016 -0.5973  0.0720
10330TIP3    H152481   5.890   5.012  13.103 -0.5406 -0.8199  0.3220
10330TIP3    H252482   6.024   4.942  13.114  0.3703  0.7520 -0.7009
10331TIP3   OH252483   4.258   0.934   0.988 -0.1699 -0.4362 -0.0314
10331TIP3    H152484   4.275   0.845   0.958 -0.7782 -0.2530 -0.9433
10331TIP3    H252485   4.209   0.923   1.069 -0.3513 -0.9362 -0.2089
10332TIP3   OH252486   1.229   1.238  12.181 -0.1960  0.0910 -0.0178
10332TIP3    H152487   1.248   1.270  12.270  2.4017  0.9579 -0.8182
10332TIP3    H252488   1.295   1.170  12.166  1.0579  1.7108 -2.1716
10333TIP3   OH252489   3.256   1.948  14.887 -0.0598 -0.0571  0.2620
10333TIP3    H152490   3.223   1.934  14.975  0.6779 -0.3315  0.5026
10333TIP3    H252491   3.220   1.875  14.836  1.2300 -1.1102  0.8170
10334TIP3   OH252492   5.731   4.868   3.055  0.0443 -0.0851  0.3095
10334TIP3    H152493   5.658   4.807   3.064  0.5514 -1.0337 -1.5966
10334TIP3    H252494   5.779   4.861   3.138 -1.1523 -0.6121  0.9713
10335TIP3   OH252495   1.237   6.241   5.898 -0.3875 -0.2689 -0.1864
10335TIP3    H152496   1.154   6.194   5.903  1.0084 -2.6829  1.3735
10335TIP3    H252497   1.222   6.322   5.947 -2.9770  1.2654 -3.3043
10336TIP3   OH252498   4.134   3.346   5.053 -0.2119 -0.0470  0.6323
10336TIP3    H152499   4.215   3.384   5.088  1.1833 -1.5909 -0.8701
10336TIP3    H252500   4.106   3.285   5.121  0.3987 -0.2028  0.7490
10337TIP3   OH252501   6.293   4.127  15.001  0.0743 -0.0011 -0.1425
10337TIP3    H152502   6.269   4.040  15.031  1.4004 -0.2459  0.2447
10337TIP3    H252503   6.319   4.173  15.081  0.3699  0.4140 -0.4725
10338TIP3   OH252504   2.595   4.203  16.341 -0.2553 -0.2721 -0.2859
10338TIP3    H152505   2.661   4.273  16.335 -1.3159  0.7035 -0.8657
10338TIP3    H252506   2.567   4.190  16.250 -1.3693 -0.1782  0.0407
10339TIP3   OH252507   2.959   5.388   6.162  0.2136 -0.7818 -0.0073
10339TIP3    H152508   3.001   5.372   6.077 -2.1504  2.2793 -1.8729
10339TIP3    H252509   3.010   5.459   6.201 -0.2261 -0.4364 -0.0518
10340TIP3   OH252510   0.982   5.353  11.506  0.3605  0.1789 -0.4749
10340TIP3    H152511   0.931   5.305  11.440 -0.6343  1.0386 -0.3458
10340TIP3    H252512   0.954   5.316  11.590  0.2189  0.3966 -0.4254
10341TIP3   OH252513   5.673   3.262  13.192 -0.3763 -0.7641 -0.0246
10341TIP3    H152514   5.633   3.344  13.221 -0.9701 -1.1649  0.3102
10341TIP3    H252515   5.623   3.238  13.114 -0.2562 -0.8468 -0.0760
10342TIP3   OH252516   2.582   1.064   3.884  0.5397 -0.0994  0.3587
10342TIP3    H152517   2.638   1.078   3.808 -0.2894  1.2292 -0.0307
10342TIP3    H252518   2.638   1.080   3.959  1.5419 -2.0842  0.0429
10343TIP3   OH252519   1.164   3.827   2.444 -0.3718  0.0319 -0.0384
10343TIP3    H152520   1.175   3.788   2.357 -1.1271  1.1976 -0.6621
10343TIP3    H252521   1.169   3.752   2.504 -0.2025 -0.8261 -1.0993
10344TIP3   OH252522   4.340   3.025  14.211  0.7733  0.0900 -0.0686
10344TIP3    H152523   4.278   2.966  14.255 -0.1641 -0.1412 -1.6838
10344TIP3    H252524   4.355   3.095  14.275 -0.6761 -0.1622  0.5686
10345TIP3   OH252525   0.331   3.795  11.939  0.0796 -0.1354 -0.7688
10345TIP3    H152526   0.253   3.837  11.975  0.5636  0.8629 -0.8734
10345TIP3    H252527   0.302   3.706  11.919 -1.1462  0.3319 -1.1678
10346TIP3   OH252528   0.261   4.922  11.591  0.2193  0.4507  0.1788
10346TIP3    H152529   0.287   4.861  11.522  0.4589  0.0717  0.6053
10346TIP3    H252530   0.306   5.004  11.568  1.1365  0.0322  0.4576
10347TIP3   OH252531   6.312   5.257  13.009  0.7409  0.5282  0.4603
10347TIP3    H152532   6.315   5.337  12.957 -0.2537 -0.4267 -1.1036
10347TIP3    H252533   6.404   5.228  13.012  1.1875  2.0116  1.5151
10348TIP3   OH252534   6.349   2.415  11.455 -0.2691 -0.3839  0.8870
10348TIP3    H152535   6.355   2.393  11.548 -0.0039 -1.6059  0.5884
10348TIP3    H252536   6.375   2.507  11.450 -2.2539  0.2919  2.2879
10349TIP3   OH252537   6.216   0.358  15.520 -0.3514  0.0718  0.1638
10349TIP3    H152538   6.134   0.320  15.552 -0.6182  1.4601  1.2004
10349TIP3    H252539   6.242   0.420  15.589 -0.7640  2.9014 -2.1143
10350TIP3   OH252540   1.584   5.680  17.104  0.3191  0.6806 -0.2181
10350TIP3    H152541   1.548   5.698  17.191  1.4488 -0.7377  0.5600
10350TIP3    H252542   1.679   5.686  17.116  0.4559  1.2419 -1.5302
10351TIP3   OH252543   5.591   4.212   4.761  0.5093 -0.5170 -0.6858
10351TIP3    H152544   5.550   4.200   4.847  1.8888  0.6880  0.1726
10351TIP3    H252545   5.603   4.123   4.728  1.6658 -1.1178  1.2290
10352TIP3   OH252546   5.618   0.687  14.632 -0.0714  0.2558  0.3023
10352TIP3    H152547   5.544   0.642  14.672 -1.4791  2.1293 -0.0816
10352TIP3    H252548   5.626   0.649  14.545  0.3708 -0.9680  0.8649
10353TIP3   OH252549   3.151   2.777   0.855  0.1606  0.0612 -0.4645
10353TIP3    H152550   3.125   2.863   0.821 -0.1074  0.2738  0.2727
10353TIP3    H252551   3.093   2.762   0.929 -0.0825 -0.9599 -0.8571
10354TIP3   OH252552   3.450   2.016  16.468  0.3043 -0.2304  0.1429
10354TIP3    H152553   3.540   2.024  16.436  0.7105 -0.6997  1.1514
10354TIP3    H252554   3.450   2.061  16.552 -0.7714  1.0244 -0.5172
10355TIP3   OH252555   6.522   5.380  11.254  0.4137  0.0128  0.0342
10355TIP3    H152556   6.458   5.318  11.291  0.5866  0.6726  1.4800
10355TIP3    H252557   6.599   5.327  11.235  0.4529 -0.2736  0.9881
10356TIP3   OH252558   4.550   6.454  16.458  0.0366  0.4962  1.1034
10356TIP3    H152559   4.567   6.549  16.454 -1.5114  0.7468 -0.0911
10356TIP3    H252560   4.463   6.444  16.418  0.5512 -1.5253  0.4535
10357TIP3   OH252561   4.506   2.200  12.449  0.3755  0.2195  0.2078
10357TIP3    H152562   4.563   2.228  12.378  0.9733 -0.0529  0.5773
10357TIP3    H252563   4.491   2.280  12.500  1.7639 -0.0322  1.0427
10358TIP3   OH252564   2.584   2.177   4.501  0.2721 -0.1874  0.0796
10358TIP3    H152565   2.529   2.252   4.522  1.7601  0.6552  1.0286
10358TIP3    H252566   2.587   2.126   4.582  3.8063  1.6589  1.1884
10359TIP3   OH252567   3.901   0.375  16.732 -0.3840 -0.3190 -0.1741
10359TIP3    H152568   3.837   0.444  16.717 -1.5959 -1.9762 -3.0409
10359TIP3    H252569   3.851   0.294  16.724  1.7836 -1.6066 -1.0942
10360TIP3   OH252570   4.660   1.652   5.054  0.1192 -0.1697  0.3395
10360TIP3    H152571   4.631   1.564   5.078  0.4438 -0.3513  0.0713
10360TIP3    H252572   4.749   1.639   5.021  0.4343  0.3585  0.9835
10361TIP3   OH252573   3.806   4.719  16.092  0.1006 -0.3714  0.0165
10361TIP3    H152574   3.814   4.799  16.143 -2.6609 -1.4680  2.2703
10361TIP3    H252575   3.723   4.728  16.046  0.0269 -1.7346 -0.1238
10362TIP3   OH252576   0.201   1.821  15.140 -0.7442 -0.4324  0.2501
10362TIP3    H152577   0.150   1.894  15.175  1.1051  0.4333  1.1699
10362TIP3    H252578   0.240   1.780  15.217  0.0138 -1.0396 -0.4572
10363TIP3   OH252579   3.503   5.429   3.124 -0.0623 -0.0991  0.0820
10363TIP3    H152580   3.452   5.440   3.203 -0.8429 -0.8091 -0.3161
10363TIP3    H252581   3.531   5.517   3.100 -0.8948  0.2587  0.4406
10364TIP3   OH252582   0.689   0.504   3.542  0.0701  0.7270 -0.1237
10364TIP3    H152583   0.664   0.557   3.466 -1.3571 -0.2791 -0.3756
10364TIP3    H252584   0.665   0.415   3.517 -0.2710  0.3713  1.4613
10365TIP3   OH252585   5.173   0.635  14.341 -0.0682 -0.4101 -0.1737
10365TIP3    H152586   5.121   0.579  14.283 -1.9973 -0.5990  1.6601
10365TIP3    H252587   5.240   0.577  14.377 -0.1318 -0.7867 -0.6639
10366TIP3   OH252588   4.969   3.533   6.288 -0.1671  0.2534  0.4906
10366TIP3    H152589   5.016   3.566   6.364 -0.6673 -0.5707  1.1613
10366TIP3    H252590   4.904   3.601   6.269  1.6581  1.6686 -0.8060
10367TIP3   OH252591   6.512   1.785  15.834  0.1320  0.1979  0.4614
10367TIP3    H152592   6.418   1.783  15.854 -0.0317  0.6643 -0.2454
10367TIP3    H252593   6.541   1.695  15.844 -1.1941 -0.7120 -3.0296
10368TIP3   OH252594   2.696   2.051   2.401  0.2522 -0.1373 -0.0465
10368TIP3    H152595   2.640   2.128   2.409 -0.4274 -0.8041  2.0212
10368TIP3    H252596   2.695   2.031   2.308 -1.0923  1.2382 -0.3590
10369TIP3   OH252597   3.460   0.687  10.820  0.4485 -0.5699 -0.0859
10369TIP3    H152598   3.399   0.617  10.796 -0.4524 -0.4302  1.7665
10369TIP3    H252599   3.543   0.643  10.833  0.0340 -1.1998  0.4415
10370TIP3   OH252600   0.391   6.591  15.229  0.1946 -0.1290  0.1094
10370TIP3    H152601   0.324   6.554  15.171  1.7412 -3.0093  0.0470
10370TIP3    H252602   0.429   6.662  15.178 -1.9251  0.7047 -0.3609
10371TIP3   OH252603   1.396   2.520  12.918  0.4791 -0.1065  0.1054
10371TIP3    H152604   1.429   2.435  12.946  1.1066 -0.8717 -2.7303
10371TIP3    H252605   1.455   2.583  12.957  1.2981 -1.1069  0.5129
10372TIP3   OH252606   4.018   5.526  16.583  0.5103  0.4432 -0.4383
10372TIP3    H152607   4.057   5.503  16.667 -1.1854 -2.6640 -0.4017
10372TIP3    H252608   4.074   5.482  16.518  0.9536  1.5982 -0.8493
10373TIP3   OH252609   1.816   1.640  13.228 -0.4119 -0.3657  0.1804
10373TIP3    H152610   1.768   1.588  13.164 -2.3976  1.2141  0.3110
10373TIP3    H252611   1.803   1.594  13.311 -2.5311  0.4827  0.3751
10374TIP3   OH252612   2.597   4.747  12.743  0.4211  0.7217 -0.1997
10374TIP3    H152613   2.640   4.665  12.717 -0.6146  0.5170 -1.3215
10374TIP3    H252614   2.559   4.728  12.828  1.5377  0.5289  0.2627
10375TIP3   OH252615   4.018   2.976  11.991 -0.3723 -0.0863  0.6203
10375TIP3    H152616   4.080   3.015  11.930 -1.9912  0.2626 -0.8561
10375TIP3    H252617   3.964   3.050  12.020 -0.5128 -0.4913  1.3981
10376TIP3   OH252618   1.454   0.534   3.940  0.4597 -0.7309 -0.1675
10376TIP3    H152619   1.445   0.551   4.034 -0.4835 -0.1342 -0.3523
10376TIP3    H252620   1.548   0.523   3.926  0.6009 -0.8939  0.8550
10377TIP3   OH252621   6.309   5.205  15.739  0.2735  0.2722  0.6127
10377TIP3    H152622   6.242   5.172  15.798 -0.9074 -0.7370 -1.2428
10377TIP3    H252623   6.375   5.136  15.736 -0.9588 -0.8473 -1.2890
10378TIP3   OH252624   3.304   3.605   6.410 -0.7402  0.1265  0.2336
10378TIP3    H152625   3.286   3.681   6.466  0.0512  1.0130 -0.7050
10378TIP3    H252626   3.251   3.620   6.332 -0.8753 -0.4912  0.2000
10379TIP3   OH252627   1.658   1.915  16.918 -0.6499 -0.2016 -0.4055
10379TIP3    H152628   1.569   1.885  16.931 -1.0988  1.5937  0.8306
10379TIP3    H252629   1.667   1.923  16.823 -2.3033  1.0211 -0.4829
10380TIP3   OH252630   6.629   2.144   0.925 -0.0816 -0.3367 -0.0898
10380TIP3    H152631   6.652   2.055   0.898  0.4569  0.0999 -1.0931
10380TIP3    H252632   6.697   2.199   0.886  1.1409  0.2620  2.7173
10381TIP3   OH252633   4.356   5.565   0.554  0.0037  0.0911 -0.3308
10381TIP3    H152634   4.369   5.655   0.524  1.1121 -0.2083 -0.7609
10381TIP3    H252635   4.264   5.562   0.580  0.0160  1.4124 -0.1008
10382TIP3   OH252636   0.740   3.317   0.876 -0.7308 -0.1449  0.3681
10382TIP3    H152637   0.758   3.331   0.783 -1.4248 -1.0707  0.0917
10382TIP3    H252638   0.826   3.316   0.917 -0.4425  0.6899 -0.2024
10383TIP3   OH252639   1.697   2.088  12.549 -0.3811  0.8807 -0.2191
10383TIP3    H152640   1.767   2.123  12.605  1.3179 -1.8576 -0.5525
10383TIP3    H252641   1.624   2.072  12.609  1.0146 -0.9430  1.0491
10384TIP3   OH252642   2.809   6.752  15.605 -0.2066 -0.4748  0.5397
10384TIP3    H152643   2.759   6.834  15.604  0.6376  0.0524 -1.5798
10384TIP3    H252644   2.743   6.683  15.598 -0.6995  0.2670 -4.1300
10385TIP3   OH252645   2.214   3.602   2.168  0.7940  0.5662  0.1172
10385TIP3    H152646   2.231   3.663   2.096  0.2172  0.5474 -0.0386
10385TIP3    H252647   2.217   3.656   2.247 -0.8089  1.0053 -0.1120
10386TIP3   OH252648   2.814   3.773   1.228  0.2936 -0.3588  0.0385
10386TIP3    H152649   2.851   3.798   1.144 -1.9892 -0.2599 -0.9877
10386TIP3    H252650   2.800   3.679   1.222  0.5658 -0.4266  0.4732
10387TIP3   OH252651   3.135   6.240  12.563 -0.1014 -0.4404  0.3149
10387TIP3    H152652   3.202   6.302  12.594 -0.3295 -0.1292  0.1903
10387TIP3    H252653   3.179   6.155  12.565 -0.1466 -0.4405  1.5976
10388TIP3   OH252654   6.163   0.665  12.018  0.6577 -0.2653  0.1630
10388TIP3    H152655   6.078   0.633  11.986  0.2234 -0.2010  1.2076
10388TIP3    H252656   6.224   0.593  12.000  0.3567 -0.3638 -0.4803
10389TIP3   OH252657   0.761   1.153   5.123  0.2250 -0.0381  0.2464
10389TIP3    H152658   0.730   1.221   5.064 -0.4695  1.8854  2.7360
10389TIP3    H252659   0.856   1.165   5.125  0.2658 -0.2012 -0.5687
10390TIP3   OH252660   3.910   5.925  16.925 -0.1864  0.7401  0.3606
10390TIP3    H152661   3.985   5.956  16.977 -0.0408  0.0339  0.5742
10390TIP3    H252662   3.849   5.999  16.925  0.1029  0.9839  0.9696
10391TIP3   OH252663   0.706   5.478  15.416 -0.0826 -0.2872 -0.0067
10391TIP3    H152664   0.631   5.463  15.359  0.0817 -1.4116  0.0768
10391TIP3    H252665   0.739   5.391  15.437  1.5409  0.2031 -0.4420
10392TIP3   OH252666   4.751   3.033   4.963  0.0360 -0.2831 -0.0752
10392TIP3    H152667   4.681   3.091   4.992 -0.0987 -0.0995 -0.7718
10392TIP3    H252668   4.723   2.946   4.992 -0.2720 -0.1504  0.0272
10393TIP3   OH252669   3.246   1.615   5.531  0.1381  0.3126 -0.4615
10393TIP3    H152670   3.184   1.552   5.494  0.6925 -1.9432  2.2909
10393TIP3    H252671   3.329   1.568   5.535  1.0756  1.9411 -0.3062
10394TIP3   OH252672   4.356   5.972  10.776  0.1123  0.6450 -0.2803
10394TIP3    H152673   4.296   5.911  10.733 -2.1962  2.2845  0.5515
10394TIP3    H252674   4.376   5.931  10.860  0.4640 -0.0894 -0.7203
10395TIP3   OH252675   5.485   4.504  11.286  0.3118 -0.3053 -0.7386
10395TIP3    H152676   5.565   4.477  11.332 -0.3599 -1.3113 -0.1368
10395TIP3    H252677   5.441   4.422  11.264 -1.2193  0.2482  0.1385
10396TIP3   OH252678   5.739   0.577  14.908 -0.5685 -0.8806 -0.4203
10396TIP3    H152679   5.779   0.647  14.959 -0.1989 -1.1799 -0.2996
10396TIP3    H252680   5.683   0.622  14.845 -0.9265 -0.5047  0.1625
10397TIP3   OH252681   3.411   1.046  16.181  0.5724 -0.0541  0.2852
10397TIP3    H152682   3.320   1.033  16.205  0.5361  2.0526  1.3273
10397TIP3    H252683   3.454   0.964  16.207 -0.7153 -0.4461  1.2266
10398TIP3   OH252684   3.961   5.913  12.884 -0.1150 -0.1115 -0.0721
10398TIP3    H152685   3.985   5.988  12.939  0.0011  0.4635 -0.8932
10398TIP3    H252686   3.934   5.845  12.946 -0.4563  0.6924  0.6737
10399TIP3   OH252687   2.265   5.721   2.838 -0.2009  0.0227 -0.3201
10399TIP3    H152688   2.325   5.752   2.906 -0.5135 -1.3921  0.6099
10399TIP3    H252689   2.302   5.638   2.809 -0.5251  0.2113 -1.3082
10400TIP3   OH252690   3.276   3.574   3.194  0.1692 -0.0590  0.1369
10400TIP3    H152691   3.306   3.636   3.261 -0.2725  1.2242 -0.8308
10400TIP3    H252692   3.192   3.609   3.165  0.0951 -0.9124 -0.6920
10401TIP3   OH252693   1.494   4.965  12.585 -0.4503 -0.2793 -0.6036
10401TIP3    H152694   1.579   4.997  12.614 -1.1738  0.0141  1.2434
10401TIP3    H252695   1.514   4.907  12.512  1.2328  0.7404 -0.9872
10402TIP3   OH252696   5.859   2.719   4.391  0.4736  0.0223  0.3482
10402TIP3    H152697   5.863   2.814   4.384  1.0484  0.0562  1.0158
10402TIP3    H252698   5.943   2.689   4.357  0.0098 -0.2905 -0.5198
10403TIP3   OH252699   2.022   2.617   5.330  0.0809 -0.0692  0.5088
10403TIP3    H152700   1.999   2.702   5.292  0.9728  0.7495  1.7517
10403TIP3    H252701   2.033   2.635   5.424  1.3435 -1.3294  0.6247
10404TIP3   OH252702   0.762   6.572  15.945 -0.2571  0.0280 -0.1085
10404TIP3    H152703   0.750   6.631  15.871  1.4579 -0.0692 -0.4731
10404TIP3    H252704   0.853   6.544  15.940 -0.8749 -2.2319  0.3613
10405TIP3   OH252705   5.970   1.524  12.236  0.0400  0.2552 -0.4597
10405TIP3    H152706   6.059   1.489  12.229  0.5489  1.2999  0.5889
10405TIP3    H252707   5.982   1.615  12.266 -1.3889  0.2073  0.3170
10406TIP3   OH252708   5.025   4.661   5.642  0.4226 -0.7869 -0.1699
10406TIP3    H152709   5.104   4.669   5.695 -0.4372 -1.0194  1.1617
10406TIP3    H252710   4.960   4.716   5.686  0.0432  0.0012 -1.6659
10407TIP3   OH252711   4.726   6.767  16.475 -0.4521  0.5871  0.1986
10407TIP3    H152712   4.797   6.786  16.536  0.7085 -3.0512  0.0529
10407TIP3    H252713   4.747   6.818  16.397  2.6717 -1.3241 -0.2738
10408TIP3   OH252714   0.283   1.385   6.818 -0.0338  0.2047 -0.4932
10408TIP3    H152715   0.346   1.383   6.891 -0.7108  1.0865  0.1230
10408TIP3    H252716   0.336   1.367   6.741  0.9333  0.6213  0.0610
10409TIP3   OH252717   0.768   6.440   2.574  0.0357  0.2069  0.1946
10409TIP3    H152718   0.840   6.501   2.558 -0.4294  0.2591 -1.8280
10409TIP3    H252719   0.734   6.420   2.487 -2.1898 -0.0638  1.0941
10410TIP3   OH252720   3.395   1.812  14.109 -0.3947 -0.3953  0.4431
10410TIP3    H152721   3.355   1.742  14.058 -1.1352  0.3976 -0.0816
10410TIP3    H252722   3.361   1.801  14.197 -0.4964 -0.7053  0.3627
10411TIP3   OH252723   0.876   0.383  13.361 -0.1132 -0.0667 -0.4219
10411TIP3    H152724   0.881   0.390  13.456  0.9555  0.5127 -0.5190
10411TIP3    H252725   0.918   0.299  13.341 -0.0980 -0.0630 -0.4053
10412TIP3   OH252726   6.094   2.452  15.256 -0.4114 -0.2072  0.4406
10412TIP3    H152727   6.166   2.404  15.215  0.7838  1.5657  0.4160
10412TIP3    H252728   6.068   2.517  15.190 -1.9485 -0.7221  0.5058
10413TIP3   OH252729   2.419   2.652   5.118 -0.5477 -0.2689  0.3057
10413TIP3    H152730   2.374   2.572   5.144 -0.0336 -1.1264 -1.3935
10413TIP3    H252731   2.437   2.641   5.025  3.9272 -0.3119  1.0466
10414TIP3   OH252732   1.642   5.760  10.515 -0.2550  0.1576 -0.8093
10414TIP3    H152733   1.589   5.826  10.560  1.5242  0.8245  0.3738
10414TIP3    H252734   1.660   5.797  10.429 -0.0207  0.8284 -0.4740
10415TIP3   OH252735   6.140   2.981   3.961 -0.4043 -0.4357  0.5039
10415TIP3    H152736   6.102   3.041   3.896 -0.7087 -2.3103 -1.0964
10415TIP3    H252737   6.234   2.989   3.950 -0.4625 -1.4838 -0.8981
10416TIP3   OH252738   2.819   2.619  12.420  0.1445  0.0100  0.3297
10416TIP3    H152739   2.891   2.609  12.358 -0.1999  3.5588 -0.7925
10416TIP3    H252740   2.861   2.619  12.506  1.1901 -0.2661 -0.1810
10417TIP3   OH252741   5.460   5.217  11.008  0.2098 -0.1356 -0.6650
10417TIP3    H152742   5.548   5.218  11.046 -0.4651  1.8114  0.9452
10417TIP3    H252743   5.459   5.141  10.950  2.5684 -0.8557  0.2044
10418TIP3   OH252744   6.384   2.453   0.834  0.0721 -0.1938 -0.8518
10418TIP3    H152745   6.351   2.542   0.823 -3.5567 -1.3490  0.1636
10418TIP3    H252746   6.471   2.464   0.873 -1.4331  2.8305  1.8387
10419TIP3   OH252747   4.737   0.080  15.574 -0.1581 -0.4892  0.2949
10419TIP3    H152748   4.740   0.049  15.483 -0.2961 -0.4211  0.2667
10419TIP3    H252749   4.699   0.167  15.568 -2.5760 -1.4813  0.6625
10420TIP3   OH252750   3.100   3.202   2.680  0.3235 -0.2081 -1.0703
10420TIP3    H152751   3.131   3.111   2.680 -0.5874 -0.5238 -1.8056
10420TIP3    H252752   3.105   3.229   2.588 -0.2470  0.1987 -0.9802
10421TIP3   OH252753   0.543   2.054   0.167 -0.3320 -0.3912 -0.4942
10421TIP3    H152754   0.601   2.126   0.142  0.4515 -0.6312  0.5806
10421TIP3    H252755   0.532   2.003   0.087 -1.3585  1.2132 -1.4257
10422TIP3   OH252756   4.175   5.236  14.045 -0.5309  0.2678 -0.6787
10422TIP3    H152757   4.096   5.222  14.097 -0.1879  1.1121  0.0818
10422TIP3    H252758   4.143   5.249  13.956 -1.2438  0.5560 -0.3821
10423TIP3   OH252759   2.615   2.248  16.032 -0.5190 -0.7319  0.4295
10423TIP3    H152760   2.686   2.294  16.077  0.3274  1.8849 -3.3086
10423TIP3    H252761   2.536   2.294  16.059 -0.4254 -1.4552  1.9565
10424TIP3   OH252762   2.841   1.841   3.011 -0.1213 -0.2213 -0.2122
10424TIP3    H152763   2.780   1.874   2.944 -0.0638 -0.2664 -0.2864
10424TIP3    H252764   2.818   1.890   3.090  0.1828  0.2334 -0.4036
10425TIP3   OH252765   5.386   3.412   4.943 -0.0864 -0.0312  0.1407
10425TIP3    H152766   5.375   3.455   4.858 -0.0618 -0.7409 -0.2247
10425TIP3    H252767   5.432   3.477   4.997 -2.7801  1.6062  0.5809
10426TIP3   OH252768   3.388   0.538  16.587 -0.3016 -0.2225  0.3362
10426TIP3    H152769   3.321   0.517  16.652  0.7496  0.9023  1.8363
10426TIP3    H252770   3.453   0.468  16.596 -0.4354 -0.3756  0.1027
10427TIP3   OH252771   0.093   2.310   1.050  0.0351 -0.2009 -0.0086
10427TIP3    H152772   0.076   2.277   0.962  0.4743  1.8769 -0.8800
10427TIP3    H252773   0.017   2.282   1.101  0.2539 -2.3014 -0.7706
10428TIP3   OH252774   6.585   5.293   5.411 -0.2460 -0.2377 -0.0799
10428TIP3    H152775   6.624   5.239   5.480 -1.5577  0.6266  1.3505
10428TIP3    H252776   6.532   5.358   5.458  2.8751  3.6139 -1.6476
10429TIP3   OH252777   1.515   2.426  11.078  0.0023  0.1359 -0.3005
10429TIP3    H152778   1.586   2.445  11.139  0.2020 -1.5874  0.0343
10429TIP3    H252779   1.556   2.383  11.004 -0.6168 -0.3740 -0.3565
10430TIP3   OH252780   6.366   6.413   1.806  0.3336 -0.7591 -0.0085
10430TIP3    H152781   6.368   6.420   1.901 -0.9167 -1.2653  0.0623
10430TIP3    H252782   6.434   6.474   1.776  0.6258 -0.4793  1.1904
10431TIP3   OH252783   4.562   5.462  15.290 -0.7288 -0.1285 -0.1713
10431TIP3    H152784   4.473   5.440  15.318  0.2921 -0.7445  2.7544
10431TIP3    H252785   4.594   5.521  15.357  0.8675  0.5886 -1.5389
10432TIP3   OH252786   0.630   3.696   1.785 -0.7493  0.0546 -0.1576
10432TIP3    H152787   0.659   3.605   1.783 -1.0621 -0.0839  1.2879
10432TIP3    H252788   0.537   3.691   1.809 -0.6405  0.7831  0.4308
10433TIP3   OH252789   2.746   1.207   4.057 -0.0862  0.1973 -0.0042
10433TIP3    H152790   2.672   1.268   4.054 -2.0803 -2.1503 -0.3954
10433TIP3    H252791   2.791   1.226   4.139 -1.5445  1.2099  0.5618
10434TIP3   OH252792   0.572   0.959  12.634  0.1555  0.2511  0.1513
10434TIP3    H152793   0.572   0.887  12.570 -3.7593 -0.0289  0.3383
10434TIP3    H252794   0.537   1.034  12.586 -0.6372  0.6397  1.3114
10435TIP3   OH252795   2.465   0.996  15.495 -0.5884 -0.2948  0.3627
10435TIP3    H152796   2.497   0.933  15.559  0.5386  1.1089  1.2250
10435TIP3    H252797   2.517   1.075  15.512 -2.1329  0.9346 -0.5227
10436TIP3   OH252798   6.601   1.419   0.515 -0.3166 -0.4669 -0.0605
10436TIP3    H152799   6.592   1.376   0.430 -2.2452 -1.7063  0.7323
10436TIP3    H252800   6.672   1.372   0.559 -0.7757 -1.2530 -0.1535
10437TIP3   OH252801   1.916   2.058   1.453 -0.0520  1.2480  0.0229
10437TIP3    H152802   1.822   2.047   1.463 -0.0252  0.1720 -0.8094
10437TIP3    H252803   1.932   2.047   1.359  1.1162 -0.4923  0.3828
10438TIP3   OH252804   2.176   0.192   4.464 -0.0978  0.1388  0.8492
10438TIP3    H152805   2.162   0.230   4.551  1.6552  3.7774 -0.3496
10438TIP3    H252806   2.269   0.169   4.463 -0.3394 -0.8393  0.2597
10439TIP3   OH252807   4.029   4.514  13.707  0.4457 -0.0124 -0.0283
10439TIP3    H152808   4.029   4.563  13.789  1.2948  0.6027 -0.3896
10439TIP3    H252809   4.075   4.570  13.645 -1.1007 -0.0263 -1.2107
10440TIP3   OH252810   6.446   3.010   4.330 -0.0683  0.5126  0.4858
10440TIP3    H152811   6.473   3.069   4.260 -0.7650  0.3617  0.0888
10440TIP3    H252812   6.359   2.979   4.304  0.2652 -0.6405  0.7259
10441TIP3   OH252813   6.323   3.256   5.726  0.5541 -0.6016 -0.2231
10441TIP3    H152814   6.411   3.230   5.697  0.2522 -2.1972  0.2673
10441TIP3    H252815   6.317   3.224   5.816 -0.2422  0.2037  0.0121
10442TIP3   OH252816   5.054   5.357   2.593 -0.6150 -0.4751  0.2861
10442TIP3    H152817   5.137   5.310   2.587 -0.7661 -0.6614 -0.3582
10442TIP3    H252818   5.075   5.447   2.571 -0.5702 -0.5079  0.1968
10443TIP3   OH252819   4.166   1.606  14.161  0.0053  0.5547 -0.1978
10443TIP3    H152820   4.204   1.532  14.115 -0.0406  2.2147 -3.0197
10443TIP3    H252821   4.119   1.567  14.235  0.4355 -2.1600 -1.3106
10444TIP3   OH252822   3.535   0.885   0.776 -0.2913  0.5821  0.3487
10444TIP3    H152823   3.477   0.809   0.773  0.1043  0.2060  1.7260
10444TIP3    H252824   3.605   0.866   0.714 -0.0165 -0.3455  0.9336
10445TIP3   OH252825   1.842   3.666  13.745  0.3617  0.3781 -0.3056
10445TIP3    H152826   1.921   3.720  13.735  0.6701 -0.2343 -1.2147
10445TIP3    H252827   1.840   3.611  13.667 -1.7058  1.3041 -0.9182
10446TIP3   OH252828   5.307   5.795  14.484  0.4061 -0.7269  0.1598
10446TIP3    H152829   5.239   5.825  14.544  1.4713  0.0398  1.0036
10446TIP3    H252830   5.267   5.721  14.438 -1.7336  1.0495 -0.9030
10447TIP3   OH252831   2.979   0.962   5.380 -0.4785 -0.5906 -0.4862
10447TIP3    H152832   3.046   0.917   5.329  0.0422 -0.0129 -0.3122
10447TIP3    H252833   2.917   0.893   5.404 -0.3669 -0.9869 -1.3127
10448TIP3   OH252834   0.763   0.187   5.921  0.2457  0.1291  0.4677
10448TIP3    H152835   0.720   0.271   5.912 -0.7214 -0.6550 -3.0455
10448TIP3    H252836   0.693   0.122   5.909  1.5892 -1.1541 -0.6982
10449TIP3   OH252837   0.917   3.347  11.921  0.1874  0.6626  0.2560
10449TIP3    H152838   0.870   3.300  11.852 -1.9564  0.4546  1.8190
10449TIP3    H252839   0.868   3.328  12.001  2.8357  0.6112  1.9142
10450TIP3   OH252840   3.933   0.957   4.236  0.5085  0.0023 -0.5573
10450TIP3    H152841   3.914   1.044   4.270 -0.7454 -1.0945  1.6379
10450TIP3    H252842   3.987   0.973   4.158 -0.0432  2.7294 -0.4231
10451TIP3   OH252843   6.005   3.487  11.485  0.2077 -0.7764  0.5402
10451TIP3    H152844   6.023   3.581  11.489 -0.2345 -0.6677  0.0064
10451TIP3    H252845   5.941   3.472  11.555 -3.1614  0.1243 -2.1880
10452TIP3   OH252846   5.842   3.365  15.559  0.1901 -0.4827 -0.3292
10452TIP3    H152847   5.783   3.320  15.619  0.5177  0.7305  0.9279
10452TIP3    H252848   5.928   3.354  15.597  0.5923 -0.8774 -1.3221
10453TIP3   OH252849   1.193   4.502  11.854 -0.0795 -0.1226  0.1889
10453TIP3    H152850   1.231   4.554  11.925  1.0082 -1.2883  0.4695
10453TIP3    H252851   1.178   4.565  11.784  0.2940  0.7569  0.8914
10454TIP3   OH252852   2.673   1.477   3.325 -0.1968  0.3874  0.2518
10454TIP3    H152853   2.712   1.505   3.242  2.3569 -1.3855  0.7570
10454TIP3    H252854   2.642   1.388   3.307 -0.2110  0.2441  0.9897
10455TIP3   OH252855   5.584   2.090  10.412  0.4294  0.3083 -0.3051
10455TIP3    H152856   5.670   2.059  10.382  0.3885  0.2721 -0.3827
10455TIP3    H252857   5.601   2.123  10.501  0.1482 -1.5120  0.4436
10456TIP3   OH252858   6.310   0.908   0.757  0.2369 -0.4584  0.4776
10456TIP3    H152859   6.231   0.862   0.730 -0.0331 -0.9098  2.0167
10456TIP3    H252860   6.279   0.976   0.817  0.8907  0.1257  0.1557
10457TIP3   OH252861   3.103   1.394   5.865 -0.2173  0.1369  0.6853
10457TIP3    H152862   3.068   1.406   5.953  1.2995 -0.1151  1.3487
10457TIP3    H252863   3.078   1.473   5.818  0.3572  1.0175  1.8319
10458TIP3   OH252864   4.322   3.260   1.508 -0.0490 -0.0648  0.6218
10458TIP3    H152865   4.407   3.228   1.540  1.1871 -0.0890 -2.5341
10458TIP3    H252866   4.337   3.353   1.490 -0.8312  0.0309  0.4599
10459TIP3   OH252867   6.657   0.378  10.511  0.2913 -0.2155 -1.0055
10459TIP3    H152868   6.646   0.465  10.549 -0.3559 -0.7814  0.1226
10459TIP3    H252869   6.611   0.382  10.427 -1.3604 -0.0403 -0.1014
10460TIP3   OH252870   2.510   6.306  16.463  0.0993 -0.0237  0.2857
10460TIP3    H152871   2.528   6.330  16.554  0.9644 -0.9082  0.3512
10460TIP3    H252872   2.532   6.385  16.413 -2.5657  1.2536  1.0328
10461TIP3   OH252873   1.963   3.316   1.098 -0.1316 -0.4471  0.3624
10461TIP3    H152874   2.029   3.261   1.142 -0.0325 -0.8075 -0.2250
10461TIP3    H252875   1.887   3.314   1.156 -0.5572 -2.1930 -0.2247
10462TIP3   OH252876   2.260   0.147   6.222 -0.2846  0.4203  0.0441
10462TIP3    H152877   2.286   0.184   6.306  1.4162 -1.4347  0.3747
10462TIP3    H252878   2.244   0.054   6.241 -1.4529  0.3101 -1.3690
10463TIP3   OH252879   0.100   1.035  11.721  0.5173  0.1939  0.3603
10463TIP3    H152880   0.035   1.030  11.651 -3.1882 -0.4737  3.6682
10463TIP3    H252881   0.092   1.124  11.755  2.3882  0.5588 -0.0930
10464TIP3   OH252882   1.708   3.030  16.224  0.3872 -0.0437 -0.6740
10464TIP3    H152883   1.717   2.974  16.147  2.4392  0.1269 -0.5806
10464TIP3    H252884   1.704   2.969  16.298  1.1256 -0.1242 -0.6970
10465TIP3   OH252885   5.114   0.977  12.619 -0.1249 -0.1991  0.3941
10465TIP3    H152886   5.206   0.986  12.646  0.8017 -1.5638 -2.0695
10465TIP3    H252887   5.119   0.957  12.525 -2.8901 -1.4394  0.4627
10466TIP3   OH252888   2.882   5.179  16.671  0.8629 -0.0444 -0.1812
10466TIP3    H152889   2.827   5.104  16.690  1.9541 -1.4181 -2.2672
10466TIP3    H252890   2.954   5.173  16.734  1.5394 -1.3925 -1.0681
10467TIP3   OH252891   2.414   1.694   1.996 -0.5974 -0.0759  0.2332
10467TIP3    H152892   2.498   1.686   1.950 -0.7695 -0.7060  0.0231
10467TIP3    H252893   2.436   1.687   2.089 -0.5141 -1.0997  0.1411
10468TIP3   OH252894   4.701   0.474  16.948 -0.1958  0.4454 -0.3659
10468TIP3    H152895   4.719   0.495  16.857  0.1925 -0.9822 -0.6293
10468TIP3    H252896   4.650   0.393  16.944 -0.8368  0.7819  0.6568
10469TIP3   OH252897   4.536   0.550  13.593 -0.5008  0.6383  0.0917
10469TIP3    H152898   4.441   0.545  13.590 -0.4725  0.2153 -0.1552
10469TIP3    H252899   4.558   0.620  13.532 -0.6387  0.5873 -0.0164
10470TIP3   OH252900   5.214   4.167   1.142 -0.2002  0.3478 -0.1754
10470TIP3    H152901   5.138   4.205   1.186 -2.1391 -1.1954 -2.0700
10470TIP3    H252902   5.286   4.181   1.203 -2.3246  0.3093  2.4558
10471TIP3   OH252903   3.589   5.045  11.150  0.0600  0.4805 -0.1890
10471TIP3    H152904   3.550   5.085  11.228 -0.0172 -1.3903  0.7549
10471TIP3    H252905   3.618   5.120  11.097 -2.3913  1.8309  0.3238
10472TIP3   OH252906   2.573   1.024   4.637  0.1690 -0.3780  0.1575
10472TIP3    H152907   2.645   1.036   4.574 -1.1464 -1.0139 -1.5216
10472TIP3    H252908   2.601   0.951   4.692  0.5133 -1.0853 -0.9418
10473TIP3   OH252909   2.669   0.194  15.646 -0.5536  0.4806  0.1533
10473TIP3    H152910   2.603   0.253  15.610 -1.1120  0.8037  1.6823
10473TIP3    H252911   2.621   0.142  15.711  0.6015  0.4136  0.9612
10474TIP3   OH252912   6.073   2.265   6.630 -0.5080  0.1626 -0.1034
10474TIP3    H152913   6.005   2.201   6.610  0.8294 -0.8820 -1.4649
10474TIP3    H252914   6.140   2.250   6.563  2.4089 -0.8395  2.9081
10475TIP3   OH252915   4.033   1.390  13.743  0.2069 -0.4262  0.3800
10475TIP3    H152916   3.951   1.440  13.744  0.2456 -0.3566 -0.0379
10475TIP3    H252917   4.086   1.429  13.813 -0.2291 -0.6670  0.8535
10476TIP3   OH252918   5.025   4.098  17.274  0.1030 -0.0998 -0.2334
10476TIP3    H152919   4.964   4.048  17.219  1.5701 -2.6103  0.3286
10476TIP3    H252920   4.981   4.182  17.289 -2.0777 -0.8918 -1.9087
10477TIP3   OH252921   6.138   3.578  16.848 -1.0357  0.2002  0.1267
10477TIP3    H152922   6.232   3.567  16.838 -0.6046  1.3167  2.6264
10477TIP3    H252923   6.104   3.489  16.859 -0.2464 -0.1723 -0.4502
10478TIP3   OH252924   1.107   1.291   2.053 -0.4318 -0.2279 -0.4023
10478TIP3    H152925   1.038   1.226   2.069  0.4225 -0.7103  1.4571
10478TIP3    H252926   1.091   1.322   1.964 -1.4371 -2.2912 -0.9570
10479TIP3   OH252927   4.323   1.491  16.877  0.6530  0.2874 -0.1038
10479TIP3    H152928   4.355   1.571  16.919  2.7330 -1.3766  1.6103
10479TIP3    H252929   4.229   1.490  16.896  0.5504  2.3930 -0.3329
10480TIP3   OH252930   0.719   6.246   3.090  0.2212  0.0015 -0.2938
10480TIP3    H152931   0.808   6.248   3.054  0.2303 -1.7452 -0.4230
10480TIP3    H252932   0.664   6.220   3.016 -0.2367 -0.1333  0.0915
10481TIP3   OH252933   1.840   1.035   4.579  0.4523 -0.1521  0.1256
10481TIP3    H152934   1.824   0.945   4.605 -1.8835  0.3965  0.7095
10481TIP3    H252935   1.839   1.033   4.483  0.4837 -0.7553  0.1376
10482TIP3   OH252936   5.126   2.492   5.078  0.1744 -0.2373  0.8163
10482TIP3    H152937   5.151   2.576   5.040 -0.1707 -1.5353 -2.4659
10482TIP3    H252938   5.206   2.458   5.117  1.3444 -0.1529 -1.3971
10483TIP3   OH252939   3.433   0.352  14.211 -0.2980  0.0856 -0.1870
10483TIP3    H152940   3.449   0.334  14.304 -1.7495 -1.8624 -0.2943
10483TIP3    H252941   3.509   0.316  14.166 -0.1288  0.0347  0.1384
10484TIP3   OH252942   2.544   2.729  11.704  0.5152 -0.1191 -0.1763
10484TIP3    H152943   2.546   2.640  11.737 -0.3800  0.6972  2.1897
10484TIP3    H252944   2.455   2.740  11.670 -0.1328  0.5965  1.7000
10485TIP3   OH252945   3.703   4.420  16.005  0.3129  0.2241 -0.4534
10485TIP3    H152946   3.640   4.420  15.933 -1.1000 -1.8279  0.7323
10485TIP3    H252947   3.660   4.473  16.073  0.7029  0.3599 -0.3111
10486TIP3   OH252948   4.843   2.792   4.012  0.1990  0.2209  0.2764
10486TIP3    H152949   4.811   2.705   3.989  0.5532 -0.0315  0.7194
10486TIP3    H252950   4.916   2.776   4.072 -0.6681  0.8592  1.5372
10487TIP3   OH252951   0.020   6.129  12.665  0.1580  0.1150  0.5552
10487TIP3    H152952   0.022   6.033  12.666  0.0557  0.1118  2.5598
10487TIP3    H252953  -0.050   6.152  12.726  1.2899  1.4786  1.3687
10488TIP3   OH252954   2.580   3.495   2.224  0.2162  0.0353 -0.1006
10488TIP3    H152955   2.538   3.442   2.156 -1.2573  1.5391 -0.4014
10488TIP3    H252956   2.601   3.577   2.182  0.5859  0.4619  0.8951
10489TIP3   OH252957   1.208   3.697   1.522  0.0756  0.5460 -0.4199
10489TIP3    H152958   1.220   3.683   1.616 -0.5289  0.6309 -0.3260
10489TIP3    H252959   1.137   3.760   1.516 -1.1362 -0.8403 -0.9696
10490TIP3   OH252960   5.127   1.688   1.326  0.0708  0.1574  0.2041
10490TIP3    H152961   5.130   1.611   1.383  0.6467 -0.1411 -0.2147
10490TIP3    H252962   5.058   1.743   1.362 -0.3755 -0.5831  0.4872
10491TIP3   OH252963   2.621   4.278   5.908  0.0568 -0.2202  0.2718
10491TIP3    H152964   2.627   4.298   5.814 -0.6114  0.2023  0.3131
10491TIP3    H252965   2.702   4.314   5.945  0.5131 -0.7472 -0.2061
10492TIP3   OH252966   2.885   2.872  16.268  0.1468 -0.8747  0.7430
10492TIP3    H152967   2.852   2.962  16.264  0.0887 -0.9692 -1.3396
10492TIP3    H252968   2.966   2.875  16.217  2.2263 -1.1576  3.9013
10493TIP3   OH252969   4.863   4.517   5.929 -0.0457 -0.0713 -0.0884
10493TIP3    H152970   4.846   4.440   5.874  1.3439  0.0178 -0.6764
10493TIP3    H252971   4.806   4.505   6.005 -0.9563 -0.9146 -0.8850
10494TIP3   OH252972   2.015   6.595   6.434 -0.5967  0.0171 -0.6819
10494TIP3    H152973   2.002   6.502   6.456 -0.4093  0.0806 -0.2948
10494TIP3    H252974   1.939   6.639   6.470  0.0071  0.2042  0.3956
10495TIP3   OH252975   3.935   4.690  16.878 -0.4982 -0.1042  0.9053
10495TIP3    H152976   3.896   4.604  16.863  1.0326 -0.7834  0.7181
10495TIP3    H252977   4.011   4.673  16.933 -0.2250  1.1427  0.9337
10496TIP3   OH252978   1.966   1.211   3.661  0.1117 -0.0237  0.1039
10496TIP3    H152979   2.056   1.242   3.647 -1.0539  3.0678 -1.0945
10496TIP3    H252980   1.947   1.235   3.752  0.2080  0.0703  0.0994
10497TIP3   OH252981   5.210   3.767   1.049  0.1187  0.5702  0.2635
10497TIP3    H152982   5.279   3.707   1.077  0.7709  1.4642  0.5865
10497TIP3    H252983   5.209   3.759   0.953 -0.5376 -0.7545  0.3669
10498TIP3   OH252984   5.153   2.574  13.810 -0.5498  0.3668 -0.6220
10498TIP3    H152985   5.212   2.640  13.774 -1.8429  1.3880 -0.8858
10498TIP3    H252986   5.067   2.596  13.775 -0.9889 -1.5022 -0.7695
10499TIP3   OH252987   1.025   0.458  13.985 -0.3371  0.1422 -0.4138
10499TIP3    H152988   1.054   0.545  14.014 -1.0357  0.7175 -1.3757
10499TIP3    H252989   0.967   0.477  13.911 -0.5240 -1.1520 -0.5985
10500TIP3   OH252990   3.537   2.079  15.268  0.6392 -0.0041  0.0741
10500TIP3    H152991   3.493   2.164  15.267 -2.5840 -1.5885  1.5458
10500TIP3    H252992   3.589   2.080  15.349  1.4626  0.9463 -0.4541
10501TIP3   OH252993   5.664   0.429  12.710  0.0834 -0.2267  0.1061
10501TIP3    H152994   5.571   0.405  12.709  0.0416 -0.1347 -2.8473
10501TIP3    H252995   5.663   0.525  12.702  0.4355 -0.1972  0.4237
10502TIP3   OH252996   2.758   0.733  16.641  0.1552 -0.3821  0.3535
10502TIP3    H152997   2.816   0.659  16.627  2.5880  1.7666 -1.3996
10502TIP3    H252998   2.706   0.739  16.560  0.2019  0.0358  0.3539
10503TIP3   OH252999   1.769   5.315   4.887 -0.2128  0.1612  0.2553
10503TIP3    H153000   1.699   5.273   4.837 -0.5727  0.4397  0.5231
10503TIP3    H253001   1.755   5.287   4.977 -0.2779  0.6052  0.3887
10504TIP3   OH253002   3.637   6.500  14.771  0.0708  0.4879 -0.4672
10504TIP3    H153003   3.690   6.490  14.691  1.9426 -0.5813  0.8685
10504TIP3    H253004   3.560   6.446  14.756  1.4276 -1.4250 -0.7104
10505TIP3   OH253005   6.625   5.742  16.204  0.0455 -0.2366 -0.2923
10505TIP3    H153006   6.671   5.817  16.166 -0.6524 -0.0160 -0.7119
10505TIP3    H253007   6.533   5.768  16.205 -0.5225 -1.9758 -2.6351
10506TIP3   OH253008   4.290   1.213  17.267  0.5479 -0.0417  0.2979
10506TIP3    H153009   4.202   1.212  17.229  0.5526  1.0900  0.2228
10506TIP3    H253010   4.299   1.302  17.302  2.3637  0.4618 -1.3427
10507TIP3   OH253011   5.365   2.631  12.233  0.6293  0.4134  0.0199
10507TIP3    H153012   5.417   2.559  12.198  0.3877  0.3609 -0.2297
10507TIP3    H253013   5.308   2.657  12.160 -2.2290 -1.8579  1.3296
10508TIP3   OH253014   6.186   3.983   5.316 -0.0040 -0.3843  0.3714
10508TIP3    H153015   6.248   4.027   5.259 -2.4827 -0.4924 -2.5642
10508TIP3    H253016   6.137   4.053   5.359  0.4900 -0.3087  0.8177
10509TIP3   OH253017   2.367   2.238   5.171  0.0080  0.0732 -0.0080
10509TIP3    H153018   2.319   2.188   5.236 -1.2813  0.5126 -0.6017
10509TIP3    H253019   2.452   2.256   5.211  0.5028 -2.5825  0.2019
10510TIP3   OH253020   2.616   2.555   3.090 -0.1185  0.2538  0.1883
10510TIP3    H153021   2.687   2.534   3.028 -0.0347 -0.6097  0.5696
10510TIP3    H253022   2.581   2.470   3.116 -0.0653  0.6056  1.4333
10511TIP3   OH253023   3.039   5.035  12.452  0.1226 -0.1014 -0.0348
10511TIP3    H153024   3.105   5.059  12.517 -1.8955  1.1221  1.6196
10511TIP3    H253025   2.979   5.110  12.449 -1.4219 -1.3492 -1.1875
10512TIP3   OH253026   1.236   1.833   4.160 -0.4060  0.3941  0.6696
10512TIP3    H153027   1.223   1.926   4.175 -0.8886  0.6471 -1.1260
10512TIP3    H253028   1.162   1.790   4.202 -0.9000  0.9393  0.3619
10513TIP3   OH253029   2.314   3.301  11.505 -0.5999 -0.1030 -0.1793
10513TIP3    H153030   2.392   3.335  11.461 -0.5409 -1.0300 -0.8322
10513TIP3    H253031   2.241   3.346  11.462 -0.4237  0.9865  0.6373
10514TIP3   OH253032   4.953   6.213   4.537 -0.3848  0.4964  0.3409
10514TIP3    H153033   4.923   6.304   4.535  1.3135  1.1458  1.8212
10514TIP3    H253034   4.893   6.169   4.597 -1.8822  0.3683 -1.2388
10515TIP3   OH253035   0.624   3.630  15.981 -0.1924  1.3200  0.2834
10515TIP3    H153036   0.719   3.618  15.979 -0.2834  0.2997  1.7287
10515TIP3    H253037   0.590   3.571  15.914  0.0829  0.4755  0.8801
10516TIP3   OH253038   4.029   6.160   3.636  0.2803  0.1705 -0.2501
10516TIP3    H153039   3.992   6.087   3.587 -0.3417  1.3979 -1.6290
10516TIP3    H253040   3.954   6.199   3.682  0.8611 -0.9881  1.7189
10517TIP3   OH253041   6.014   1.859   1.315 -0.6828  0.3230 -0.0025
10517TIP3    H153042   5.952   1.843   1.243 -1.2182  2.1556  0.0375
10517TIP3    H253043   5.972   1.926   1.368  1.3422  1.5905  0.0282
10518TIP3   OH253044   3.431   2.886  15.948  0.4658  0.1797 -0.4770
10518TIP3    H153045   3.414   2.954  15.884  1.2761  0.7242 -0.1188
10518TIP3    H253046   3.352   2.884  16.002 -0.1331 -0.1425 -1.3532
10519TIP3   OH253047   4.934   3.534   3.412 -0.4643  0.4642 -0.7918
10519TIP3    H153048   5.002   3.589   3.451  1.2038 -1.4842 -0.8180
10519TIP3    H253049   4.922   3.463   3.474 -1.9830  0.4038 -1.1346
10520TIP3   OH253050   2.277   0.948   5.709 -0.4910 -0.7279 -0.2420
10520TIP3    H153051   2.336   0.889   5.662 -0.2787 -0.4925 -0.2699
10520TIP3    H253052   2.209   0.890   5.745  1.2010 -1.3585  2.0480
10521TIP3   OH253053   3.256   1.857  16.234  0.3900  0.3072  0.4856
10521TIP3    H153054   3.249   1.829  16.143  0.3944  0.7425  0.3510
10521TIP3    H253055   3.192   1.803  16.281 -1.0271  1.4589 -0.0938
10522TIP3   OH253056   3.056   1.315  16.351  0.4384 -0.0450 -0.2039
10522TIP3    H153057   3.036   1.390  16.406 -0.1984 -0.5648  0.2846
10522TIP3    H253058   3.126   1.345  16.293 -1.2327  1.5588 -1.4214
10523TIP3   OH253059   4.328   1.168  11.377  0.2460 -0.2993  0.4553
10523TIP3    H153060   4.236   1.154  11.354 -0.5023 -0.8463  3.5512
10523TIP3    H253061   4.356   1.241  11.322 -1.5403 -1.1989 -1.7332
10524TIP3   OH253062   3.482   4.637   1.806  0.4980  0.3142  0.2181
10524TIP3    H153063   3.514   4.676   1.887 -0.0869  2.2412 -0.4547
10524TIP3    H253064   3.428   4.563   1.834 -0.3998  1.4963  1.6151
10525TIP3   OH253065   0.687   1.093   1.892  0.3454 -0.2128  0.2116
10525TIP3    H153066   0.627   1.153   1.848 -0.2783  0.2913  1.7486
10525TIP3    H253067   0.633   1.019   1.917  0.5185 -0.1112  0.8931
10526TIP3   OH253068   1.498   1.443   3.143  1.0186 -0.6271  0.1080
10526TIP3    H153069   1.420   1.452   3.198  1.1867 -1.7150  0.5296
10526TIP3    H253070   1.464   1.445   3.053  0.2333 -3.3059  0.3106
10527TIP3   OH253071   6.055   1.833   5.340 -0.2598  0.6479 -0.5417
10527TIP3    H153072   5.968   1.847   5.303 -0.3050  2.1443  0.1158
10527TIP3    H253073   6.094   1.766   5.284 -1.8968 -0.1816 -0.7296
10528TIP3   OH253074   3.633   1.196  13.278  0.4606 -0.7607  0.0107
10528TIP3    H153075   3.641   1.173  13.370  0.7766 -1.2360 -0.1326
10528TIP3    H253076   3.662   1.287  13.272 -1.0903 -0.2150  0.6360
10529TIP3   OH253077   4.247   5.033   1.923 -0.3863  0.2544  0.1605
10529TIP3    H153078   4.250   5.117   1.877  0.0045  0.0914 -0.1095
10529TIP3    H253079   4.302   5.047   2.001  0.7955 -0.1696 -0.5808
10530TIP3   OH253080   5.033   2.287  13.178 -0.3458  0.0857 -0.1480
10530TIP3    H153081   5.126   2.308  13.181 -0.2474 -0.4716  1.3355
10530TIP3    H253082   5.029   2.194  13.200 -1.2457  0.0950 -0.2583
10531TIP3   OH253083   6.236   0.256   5.834 -0.3338  0.0604  0.5212
10531TIP3    H153084   6.249   0.205   5.755  0.0660 -1.5647  1.6088
10531TIP3    H253085   6.145   0.239   5.859 -0.3226  0.2145  0.6743
10532TIP3   OH253086   5.100   0.411   2.185 -0.1466  0.9187 -0.1741
10532TIP3    H153087   5.134   0.501   2.186  0.8106  0.5633 -0.8905
10532TIP3    H253088   5.160   0.362   2.242  1.0754  0.1131 -2.1026
10533TIP3   OH253089   0.899   2.777   2.523 -0.9192  0.3945  0.4637
10533TIP3    H153090   0.885   2.854   2.578  1.2493  1.5540 -0.5370
10533TIP3    H253091   0.933   2.813   2.440  0.4745 -1.6514  0.1102
10534TIP3   OH253092   1.241   3.206  15.176 -0.4716 -0.3277 -0.6789
10534TIP3    H153093   1.286   3.147  15.116 -1.7005 -0.9679 -0.9956
10534TIP3    H253094   1.150   3.177  15.173 -0.8932  0.9164 -0.0320
10535TIP3   OH253095   0.583   6.075  12.008 -0.4374  0.5746  0.4987
10535TIP3    H153096   0.540   6.036  11.932  0.3150 -0.7282  0.7365
10535TIP3    H253097   0.567   6.013  12.079  2.0661 -0.0823  0.5338
10536TIP3   OH253098   1.830   6.463  13.907 -0.4570  0.8480 -0.1014
10536TIP3    H153099   1.851   6.477  13.999 -2.4866  0.6763  0.4175
10536TIP3    H253100   1.872   6.380  13.884 -0.7497  0.4061  0.9447
10537TIP3   OH253101   1.285   4.675  12.822 -0.1521  0.5103  0.3581
10537TIP3    H153102   1.237   4.606  12.867 -0.1983  1.2430  1.4400
10537TIP3    H253103   1.351   4.704  12.885 -0.4626  1.7964  0.1009
10538TIP3   OH253104   4.160   4.038  14.312  0.1501 -0.1490  0.1008
10538TIP3    H153105   4.128   3.959  14.355  0.5226 -1.0098 -1.1869
10538TIP3    H253106   4.211   4.007  14.238 -0.2830  1.3048 -0.8415
10539TIP3   OH253107   3.547   1.964   3.535  0.2644  0.2635  0.2237
10539TIP3    H153108   3.495   1.884   3.524  0.7839 -0.2867  1.6966
10539TIP3    H253109   3.515   2.003   3.617 -0.6198  2.0638 -0.9259
10540TIP3   OH253110   3.328   0.573   0.379 -0.0533  0.4273 -0.0276
10540TIP3    H153111   3.278   0.654   0.379 -1.4652 -0.4267 -0.9793
10540TIP3    H253112   3.368   0.569   0.292 -0.1807  0.0036 -0.0709
10541TIP3   OH253113   6.526   1.903  11.931  0.1731  0.2291 -0.4162
10541TIP3    H153114   6.600   1.849  11.901  1.8870  0.9533  2.3108
10541TIP3    H253115   6.563   1.990  11.944 -0.9240  0.4070  1.8312
10542TIP3   OH253116   2.845   4.794  13.005 -0.4410 -0.1357  0.3871
10542TIP3    H153117   2.926   4.802  12.955  0.6377 -1.0137  1.9368
10542TIP3    H253118   2.843   4.873  13.060  0.4858 -1.1564  1.9131
10543TIP3   OH253119   2.052   0.544  14.769  0.2799 -0.3199 -0.6227
10543TIP3    H153120   2.109   0.601  14.718 -0.8288  1.0747 -0.3297
10543TIP3    H253121   2.071   0.566  14.860  0.0842 -0.6427 -0.5036
10544TIP3   OH253122   6.138   0.850  14.200 -0.1211 -0.4121  0.2036
10544TIP3    H153123   6.199   0.817  14.134  0.6342  3.0225 -0.8812
10544TIP3    H253124   6.056   0.864  14.153 -0.1533  0.1579  0.4197
10545TIP3   OH253125   0.392   3.029  13.069  0.1344  0.2149  0.2026
10545TIP3    H153126   0.473   3.071  13.041  1.1179 -0.6013  1.7073
10545TIP3    H253127   0.414   2.990  13.154 -1.2532 -1.7552 -0.2930
10546TIP3   OH253128   1.422   5.223   4.101 -0.4531 -0.3581  0.7056
10546TIP3    H153129   1.411   5.211   4.006 -2.2964 -0.5529  0.9331
10546TIP3    H253130   1.517   5.226   4.113 -0.1841 -0.6738 -1.1066
10547TIP3   OH253131   2.559   0.228   2.667  0.0925 -0.3931  0.1282
10547TIP3    H153132   2.650   0.216   2.640 -0.3564 -1.4867 -0.9126
10547TIP3    H253133   2.507   0.193   2.595 -1.1571 -0.6298  1.1242
10548TIP3   OH253134   2.982   4.976   3.888 -0.4929 -0.3447 -0.3770
10548TIP3    H153135   3.024   4.922   3.821  1.9128  1.6789 -0.5647
10548TIP3    H253136   3.041   4.969   3.964 -1.2421  0.3737  0.2761
10549TIP3   OH253137   4.026   4.056   3.442 -0.3511 -0.0412 -0.5138
10549TIP3    H153138   3.946   4.008   3.465 -0.6253 -0.1250 -1.6230
10549TIP3    H253139   4.082   3.990   3.401  1.2750 -0.5587  2.4016
10550TIP3   OH253140   6.432   3.007  14.777 -0.2388  0.7485  0.4377
10550TIP3    H153141   6.443   3.044  14.865 -1.4594  0.8231  0.5678
10550TIP3    H253142   6.402   3.080  14.724  0.3908  0.6747 -0.0296
10551TIP3   OH253143   3.815   3.283  10.547 -0.3111  0.3941 -0.4891
10551TIP3    H153144   3.744   3.297  10.609  0.3295  1.6301 -0.0139
10551TIP3    H253145   3.858   3.368  10.540  0.5154 -0.0927 -1.5269
10552TIP3   OH253146   4.214   0.305   7.019  0.0436  0.5788 -0.1160
10552TIP3    H153147   4.181   0.380   7.069  0.0959  1.3623 -1.2404
10552TIP3    H253148   4.136   0.252   7.002  0.1816 -0.2198  1.6591
10553TIP3   OH253149   0.262   0.125   5.931 -0.5577  0.5716 -0.4571
10553TIP3    H153150   0.240   0.148   6.021 -0.8407  1.3264 -0.7156
10553TIP3    H253151   0.243   0.032   5.925  0.0185  0.3871  0.4318
10554TIP3   OH253152   3.326   6.368  12.153 -0.5369  0.0914  0.0701
10554TIP3    H153153   3.411   6.411  12.147  0.3737 -1.2681  2.5629
10554TIP3    H253154   3.297   6.385  12.243 -3.2831  1.1797 -0.9504
10555TIP3   OH253155   4.533   5.135  12.011  0.2826  0.6578 -0.6585
10555TIP3    H153156   4.457   5.108  12.062  0.4643  2.0157  0.3659
10555TIP3    H253157   4.504   5.132  11.920 -1.0417  1.3401 -0.2613
10556TIP3   OH253158   2.712   0.685  15.203  0.0630  1.1355 -0.6110
10556TIP3    H153159   2.636   0.731  15.167 -1.0017  0.5978  0.8982
10556TIP3    H253160   2.683   0.594  15.211  0.3949  1.1828  1.2713
10557TIP3   OH253161   6.702   2.951  15.387 -0.0565 -0.6159 -0.0008
10557TIP3    H153162   6.783   2.944  15.436  0.5314  0.3335 -0.8235
10557TIP3    H253163   6.715   3.025  15.328 -0.8817 -1.4964 -1.3412
10558TIP3   OH253164   3.606   1.164   4.567  0.0688  0.6530  0.5502
10558TIP3    H153165   3.681   1.159   4.627  0.7483 -0.8647 -0.3836
10558TIP3    H253166   3.613   1.251   4.528  0.0731  1.3594  2.0695
10559TIP3   OH253167   0.664   0.309   0.896  0.0415 -0.0274 -0.5225
10559TIP3    H153168   0.697   0.282   0.811 -0.0056  1.1993 -0.9480
10559TIP3    H253169   0.724   0.270   0.960  1.1491  0.5638 -1.2004
10560TIP3   OH253170   5.955   3.661   5.053  0.5094  0.1983 -0.5009
10560TIP3    H153171   5.932   3.707   5.134 -2.0079  0.1246 -1.1508
10560TIP3    H253172   6.027   3.603   5.079  1.4805  2.0344  1.0777
10561TIP3   OH253173   0.663   4.000   1.494 -0.3014  0.0876  0.5762
10561TIP3    H153174   0.591   4.058   1.470 -0.6919 -1.1601 -1.3786
10561TIP3    H253175   0.666   4.004   1.590 -1.9566  1.3613  0.5991
10562TIP3   OH253176   1.178   1.931   2.426 -0.4718  0.3086 -0.3996
10562TIP3    H153177   1.257   1.972   2.390 -0.5008 -0.8420 -1.7996
10562TIP3    H253178   1.211   1.862   2.483 -0.4539  0.9522  0.3798
10563TIP3   OH253179   0.323   4.420  12.789 -0.9172 -0.0870  0.1120
10563TIP3    H153180   0.275   4.399  12.708 -1.4103  0.5940  0.2249
10563TIP3    H253181   0.320   4.339  12.840  0.3583 -0.8821 -1.0137
10564TIP3   OH253182   5.422   2.232   6.017  0.3553  0.2744  0.2678
10564TIP3    H153183   5.333   2.241   5.983  0.2302 -0.6535  0.3290
10564TIP3    H253184   5.479   2.255   5.943  0.0577  1.2183  0.3387
10565TIP3   OH253185   2.994   4.995   2.487  0.6614  0.4809 -0.2527
10565TIP3    H153186   3.046   4.916   2.468  0.4734  0.3357 -0.1605
10565TIP3    H253187   3.060   5.064   2.499  0.9269 -0.0465  1.4930
10566TIP3   OH253188   1.779   4.740  16.782  0.9100 -0.1251  0.3612
10566TIP3    H153189   1.689   4.744  16.814  0.5756 -0.1477 -0.5612
10566TIP3    H253190   1.801   4.647  16.783  0.2738 -0.3080 -1.1584
10567TIP3   OH253191   1.250   0.414   1.983  0.2793  0.5610 -0.4701
10567TIP3    H153192   1.273   0.376   1.898  1.3188  2.4257 -1.0445
10567TIP3    H253193   1.272   0.506   1.975  2.6227  0.3742  2.5845
10568TIP3   OH253194   1.737   0.851   3.831  0.0658  0.0504 -0.5354
10568TIP3    H153195   1.718   0.802   3.751  0.2473  0.3314 -0.7544
10568TIP3    H253196   1.815   0.903   3.809  0.4283 -0.2619 -0.0098
10569TIP3   OH253197   4.739   1.090   2.320  0.3536 -0.1478  0.4256
10569TIP3    H153198   4.797   1.015   2.309  0.4613  0.0131 -0.0907
10569TIP3    H253199   4.694   1.099   2.236 -1.8252 -1.4447  1.4080
10570TIP3   OH253200   3.299   3.146  16.403  0.3286 -0.1410  0.4193
10570TIP3    H153201   3.268   3.157  16.493  1.8046  0.7871  0.8301
10570TIP3    H253202   3.376   3.202  16.398  1.2624 -1.5351 -0.9233
10571TIP3   OH253203   3.592   2.141   4.642  0.2319 -0.4119  0.1745
10571TIP3    H153204   3.607   2.229   4.608 -0.5813  0.3961  1.8689
10571TIP3    H253205   3.507   2.146   4.686  0.1869 -2.0384  0.3030
10572TIP3   OH253206   4.087   5.925   3.049  0.3612 -0.2295  0.8332
10572TIP3    H153207   4.121   5.936   2.961 -1.3849 -2.2344 -0.1411
10572TIP3    H253208   4.065   6.013   3.078  0.7881  0.4222 -0.8148
10573TIP3   OH253209   5.282   6.031   6.520  0.1981  0.1564 -0.4193
10573TIP3    H153210   5.294   6.019   6.614 -2.7244  0.4169  0.0229
10573TIP3    H253211   5.352   6.091   6.495  0.8120  0.3552  1.6410
10574TIP3   OH253212   3.700   6.082  16.546  0.3053  0.1969  0.7765
10574TIP3    H153213   3.609   6.072  16.572 -0.4824  1.3154 -1.4708
10574TIP3    H253214   3.717   6.176  16.552  1.4221 -0.0324  1.4588
10575TIP3   OH253215   3.918   0.149   0.824  0.1476 -0.2464 -0.2009
10575TIP3    H153216   3.927   0.105   0.740  2.0442  0.2051 -0.2673
10575TIP3    H253217   3.922   0.242   0.802  0.5008 -0.1253  0.3722
10576TIP3   OH253218   5.247   2.938   5.434  0.2795 -0.5016  0.0285
10576TIP3    H153219   5.231   3.024   5.395 -2.5377  0.1196  2.3582
10576TIP3    H253220   5.298   2.957   5.513  0.1011 -0.9834  0.2613
10577TIP3   OH253221   0.028   4.392  16.507 -0.3493 -0.1598  0.0115
10577TIP3    H153222   0.017   4.487  16.512  0.2818 -0.0844 -0.0081
10577TIP3    H253223   0.066   4.368  16.592  1.6556 -0.0896 -0.8598
10578TIP3   OH253224   4.661   6.777  17.155  0.0674  0.5162  0.2267
10578TIP3    H153225   4.577   6.766  17.110  0.3059  0.2115 -0.1567
10578TIP3    H253226   4.690   6.864  17.129 -0.0528  0.5571  0.2281
10579TIP3   OH253227   2.647   5.967   0.800 -0.1371 -0.2810  0.3791
10579TIP3    H153228   2.591   5.973   0.723  1.4260 -0.5841 -0.8117
10579TIP3    H253229   2.721   5.913   0.772  1.0171  0.5313  1.7501
10580TIP3   OH253230   4.689   1.949   3.728 -0.3261 -0.0056 -0.0510
10580TIP3    H153231   4.632   2.015   3.766  0.0196  1.4207 -1.9273
10580TIP3    H253232   4.743   1.998   3.666 -0.0470 -2.0587 -1.4470
10581TIP3   OH253233   2.659   6.749  16.868  0.3580  0.5048  0.0743
10581TIP3    H153234   2.717   6.824  16.876  1.8061 -0.3116 -2.2666
10581TIP3    H253235   2.621   6.756  16.780 -0.5533 -0.7428  0.3449
10582TIP3   OH253236   2.547   4.930  11.214 -0.5654 -0.3531 -0.2243
10582TIP3    H153237   2.581   5.009  11.255 -1.7781 -0.7695  1.6784
10582TIP3    H253238   2.577   4.859  11.271 -0.8753 -1.1056 -0.9894
10583TIP3   OH253239   0.742   5.096   2.950 -0.0605 -0.0044  0.4171
10583TIP3    H153240   0.789   5.033   3.005 -0.1511 -0.1523  0.3236
10583TIP3    H253241   0.750   5.179   2.997  1.0089  0.1416 -0.0074
10584TIP3   OH253242   4.871   4.200  13.526 -0.0607 -0.7237 -0.2497
10584TIP3    H153243   4.828   4.187  13.610  1.0961  0.2087  0.5001
10584TIP3    H253244   4.852   4.290  13.502  0.2683 -0.7502 -0.6126
10585TIP3   OH253245   5.939   2.853  13.483 -0.2889 -0.1296  0.0583
10585TIP3    H153246   5.849   2.826  13.499 -0.6649  1.1961  0.2328
10585TIP3    H253247   5.983   2.842  13.568 -0.1760 -1.1853 -0.1354
10586TIP3   OH253248   1.976   5.535   5.993 -0.1056  0.1365  0.2274
10586TIP3    H153249   2.050   5.482   5.965  0.4326 -0.0040  1.8619
10586TIP3    H253250   1.973   5.524   6.088 -2.4041 -0.0973  0.1653
10587TIP3   OH253251   5.978   6.510   1.975 -0.0784  0.3771  0.2406
10587TIP3    H153252   5.906   6.571   1.991 -0.0415  0.8609 -1.4096
10587TIP3    H253253   5.966   6.441   2.041 -2.7670 -0.2134 -0.8046
10588TIP3   OH253254   0.878   1.509  13.673  0.1670 -0.0191 -0.0878
10588TIP3    H153255   0.902   1.587  13.622 -1.0877 -0.0788 -0.7880
10588TIP3    H253256   0.858   1.442  13.607 -0.4359 -0.4188  0.4928
10589TIP3   OH253257   6.102   5.158   0.354  0.0707 -0.5227 -0.5881
10589TIP3    H153258   6.100   5.215   0.277 -1.6524 -0.2229 -0.3479
10589TIP3    H253259   6.191   5.166   0.388  0.4088  0.5149 -1.6914
10590TIP3   OH253260   4.154   2.430   1.754  0.3402 -0.2251 -0.1717
10590TIP3    H153261   4.116   2.494   1.694  0.3176  1.4532  1.5738
10590TIP3    H253262   4.163   2.350   1.702  0.4200  1.2070 -2.4295
10591TIP3   OH253263   0.733   6.187  15.267 -1.1814 -0.1787 -0.2046
10591TIP3    H153264   0.660   6.178  15.328 -1.6720 -1.4857 -0.9667
10591TIP3    H253265   0.724   6.275  15.231 -2.4012 -0.3486 -0.3261
10592TIP3   OH253266   2.470   4.204  15.972  0.7308  0.1401  0.2344
10592TIP3    H153267   2.562   4.190  15.992  0.1315 -1.4094  2.0723
10592TIP3    H253268   2.423   4.159  16.042 -1.4544 -1.3475 -2.0956
10593TIP3   OH253269   0.697   4.724  15.401  0.2037  0.6606  0.1914
10593TIP3    H153270   0.737   4.670  15.469  2.0944  1.9058  0.0894
10593TIP3    H253271   0.651   4.661  15.344  1.3374 -0.7061  0.7606
10594TIP3   OH253272   3.383   4.727   3.763  0.3318  0.1659 -0.6439
10594TIP3    H153273   3.469   4.713   3.802  0.8916  3.8650 -0.3545
10594TIP3    H253274   3.329   4.654   3.795  1.7746  1.0193  4.0120
10595TIP3   OH253275   4.537   1.735   4.802 -0.3612 -0.1624  0.6962
10595TIP3    H153276   4.511   1.729   4.894 -2.1299 -0.9791  0.1534
10595TIP3    H253277   4.517   1.824   4.776 -1.3976 -0.4101  0.6476
10596TIP3   OH253278   2.469   2.181   2.085 -0.2826  0.3013  0.4373
10596TIP3    H153279   2.531   2.203   2.015 -0.8870  0.2721 -0.1180
10596TIP3    H253280   2.452   2.087   2.073  0.0402  0.1708  0.9763
10597TIP3   OH253281   6.160   6.143   5.952  0.3471 -0.5029  0.3069
10597TIP3    H153282   6.201   6.226   5.975 -2.3950  0.2465  2.8837
10597TIP3    H253283   6.119   6.159   5.867 -0.3723  0.8871  0.9014
10598TIP3   OH253284   6.239   6.315  16.125 -0.8458 -0.4328  0.1851
10598TIP3    H153285   6.152   6.339  16.158 -0.2352  0.5089  1.1594
10598TIP3    H253286   6.272   6.251  16.188 -0.5827 -0.3267  0.1551
10599TIP3   OH253287   1.110   2.214  11.366  0.1650  0.1560 -0.2685
10599TIP3    H153288   1.022   2.185  11.391  0.1995  0.1589 -0.1435
10599TIP3    H253289   1.169   2.151  11.406  0.1773 -0.4219 -1.1852
10600TIP3   OH253290   2.261   1.814  14.248 -0.6864 -0.1558 -0.8157
10600TIP3    H153291   2.317   1.834  14.323 -0.5278 -2.1962 -0.3700
10600TIP3    H253292   2.249   1.898  14.204  2.5274  0.3573 -0.7918
10601TIP3   OH253293   6.516   4.171   5.035  1.1764  0.1297  0.7092
10601TIP3    H153294   6.494   4.099   5.093 -1.6052 -0.8980 -1.5307
10601TIP3    H253295   6.534   4.130   4.950  1.9833  1.8717 -0.0000
10602TIP3   OH253296   5.270   1.051   4.470 -0.0080  0.7934 -0.2691
10602TIP3    H153297   5.238   1.065   4.381 -0.4628  0.4047 -0.1705
10602TIP3    H253298   5.365   1.044   4.461 -0.0170  1.1308 -0.6745
10603TIP3   OH253299   5.391   1.327   3.870 -0.1129 -0.3367  0.5615
10603TIP3    H153300   5.345   1.266   3.813 -1.8071  1.4009 -0.0051
10603TIP3    H253301   5.324   1.390   3.897  1.6309  1.4594  0.8474
10604TIP3   OH253302   4.957   3.552   0.832  0.8072 -0.0579  0.0105
10604TIP3    H153303   4.968   3.561   0.927  1.7532  0.1048 -0.1067
10604TIP3    H253304   5.035   3.593   0.795  0.9380 -1.0445 -0.8141
10605TIP3   OH253305   1.261   2.815  16.947 -0.0428 -0.0695  0.1249
10605TIP3    H153306   1.297   2.771  16.870  1.1508  2.1114 -0.6066
10605TIP3    H253307   1.329   2.878  16.973 -0.9690  0.1200  2.1875
10606TIP3   OH253308   4.507   5.606   3.860  0.9609  0.0576  0.5030
10606TIP3    H153309   4.566   5.630   3.931 -2.7109  0.5971  3.5552
10606TIP3    H253310   4.433   5.666   3.870 -0.0540 -0.4628 -3.2634
10607TIP3   OH253311   1.496   5.329  11.787  0.1225  0.1064 -0.1770
10607TIP3    H153312   1.556   5.287  11.726 -0.3032 -2.4635  1.0917
10607TIP3    H253313   1.543   5.332  11.870 -0.7764 -0.1247  0.3497
10608TIP3   OH253314   5.645   2.931  16.748 -0.3563  0.1674 -0.8801
10608TIP3    H153315   5.625   2.884  16.829  0.8151  1.9004  0.4602
10608TIP3    H253316   5.587   2.892  16.682 -0.1869 -2.3643  0.4075
10609TIP3   OH253317   6.025   4.331  15.613 -0.0794  0.3580 -0.1508
10609TIP3    H153318   5.969   4.313  15.688 -2.0108 -0.9852 -1.8660
10609TIP3    H253319   6.059   4.245  15.588  3.3170  1.2056  1.2207
10610TIP3   OH253320   0.956   5.799  16.361  0.6528  0.2526  0.0633
10610TIP3    H153321   0.961   5.823  16.268  1.2833 -2.2387 -0.5824
10610TIP3    H253322   0.898   5.722  16.362  0.8247  0.1420  1.7237
10611TIP3   OH253323   5.049   3.656  12.815  0.1148 -0.2613 -0.0273
10611TIP3    H153324   5.138   3.685  12.795  0.5135 -1.1566  0.4053
10611TIP3    H253325   5.034   3.687  12.904  0.3454 -0.9034  0.2409
10612TIP3   OH253326   0.764   6.347  14.670  0.1531 -0.1011 -0.1299
10612TIP3    H153327   0.831   6.385  14.613  0.7207 -0.0418  0.5764
10612TIP3    H253328   0.807   6.336  14.755 -0.9944  0.7512  0.5747
10613TIP3   OH253329   3.839   5.143   6.285 -0.4364  0.1892 -0.2894
10613TIP3    H153330   3.768   5.196   6.322  0.3289 -0.5602  2.3999
10613TIP3    H253331   3.919   5.181   6.323  0.3088 -1.2680 -0.3790
10614TIP3   OH253332   0.662   5.413   5.555 -0.2182  0.5008 -0.3317
10614TIP3    H153333   0.675   5.506   5.574  1.0020  0.5215 -1.2072
10614TIP3    H253334   0.693   5.403   5.465  2.3439 -1.3002  0.6989
10615TIP3   OH253335   5.807   4.649  11.329 -0.1703 -0.2001 -0.6694
10615TIP3    H153336   5.725   4.660  11.282 -0.0968 -1.9958 -1.2488
10615TIP3    H253337   5.854   4.731  11.316 -1.5357  0.5367 -0.9893
10616TIP3   OH253338   6.659   2.532  15.178 -0.1153 -0.7052 -0.2270
10616TIP3    H153339   6.592   2.562  15.116 -0.7621 -3.8942 -1.1703
10616TIP3    H253340   6.612   2.525  15.262 -0.4441 -0.8758 -0.4229
10617TIP3   OH253341   3.388   3.820   0.020  0.2079  0.3612  0.1738
10617TIP3    H153342   3.356   3.817   0.110 -2.6729 -0.1909 -0.8281
10617TIP3    H253343   3.411   3.730  -0.001 -0.9566  0.1692 -0.2810
10618TIP3   OH253344   2.491   5.571   0.344  0.0572  0.2351 -0.2616
10618TIP3    H153345   2.506   5.570   0.438 -2.4570 -0.1063  0.1615
10618TIP3    H253346   2.438   5.493   0.327  0.2508  0.4345 -1.9102
10619TIP3   OH253347   4.987   4.246   0.749 -0.3469 -0.0686 -0.0487
10619TIP3    H153348   4.926   4.289   0.690 -1.5794  1.9987  2.6312
10619TIP3    H253349   5.072   4.286   0.730 -0.5358 -0.1654 -1.0972
10620TIP3   OH253350   0.408   5.410  16.002 -0.7277  0.0580  0.2046
10620TIP3    H153351   0.338   5.467  16.035 -1.5428 -0.8296  0.0029
10620TIP3    H253352   0.367   5.325  15.990  0.1578 -0.2362 -0.8188
10621TIP3   OH253353   3.069   6.654   0.321 -0.5703  0.1014 -0.1442
10621TIP3    H153354   2.999   6.589   0.315 -1.3409  0.8434  0.6053
10621TIP3    H253355   3.025   6.738   0.309  0.1591  0.5894  0.4981
10622TIP3   OH253356   1.570   4.883   1.489  0.3902 -0.1490 -0.5690
10622TIP3    H153357   1.541   4.968   1.521 -0.1386 -0.1951 -0.9131
10622TIP3    H253358   1.584   4.896   1.395  2.7777  0.2137 -0.1787
10623TIP3   OH253359   2.790   3.026  14.051  0.3232  0.1603  0.5163
10623TIP3    H153360   2.760   3.095  13.992  0.6987  0.4655  0.6769
10623TIP3    H253361   2.774   2.945  14.003 -0.6327  0.3230  0.5549
10624TIP3   OH253362   2.942   4.783  16.936  0.4886  0.0379 -0.0598
10624TIP3    H153363   2.962   4.706  16.883  2.3851 -0.3966  1.2516
10624TIP3    H253364   2.918   4.748  17.022 -0.2001  0.8446  0.0847
10625TIP3   OH253365   5.000   3.759  16.860 -0.2891 -0.0272  0.7135
10625TIP3    H153366   5.045   3.703  16.797  0.2215  0.5481  0.5623
10625TIP3    H253367   5.019   3.848  16.831  0.2691  0.2461  1.9079
10626TIP3   OH253368   5.351   4.709  11.422  0.8999  0.4068  0.5786
10626TIP3    H153369   5.414   4.750  11.481  1.5948  0.9801 -0.5209
10626TIP3    H253370   5.404   4.679  11.348 -0.1215  1.0517 -0.4423
10627TIP3   OH253371   0.667   5.889  11.463  0.0091  0.3914 -0.6705
10627TIP3    H153372   0.738   5.952  11.475  0.8984 -0.6412 -0.4250
10627TIP3    H253373   0.682   5.853  11.376  0.8338 -1.0926  0.0617
10628TIP3   OH253374   6.060   5.343  14.259  0.1323 -0.1767 -0.4211
10628TIP3    H153375   6.085   5.337  14.352 -0.6906 -2.1412 -0.3005
10628TIP3    H253376   6.142   5.326  14.212  1.3202  4.1770 -0.1349
10629TIP3   OH253377   6.548   5.426  12.900  0.2269  0.4832  0.8105
10629TIP3    H153378   6.504   5.495  12.850  2.5025  0.0229 -1.9201
10629TIP3    H253379   6.619   5.471  12.946  1.8111 -0.0060 -1.0967
10630TIP3   OH253380   4.029   2.594  14.714 -0.5925  0.3341 -0.4413
10630TIP3    H153381   4.052   2.503  14.734 -0.6783  0.2748 -0.6091
10630TIP3    H253382   4.004   2.631  14.798  2.3532  1.0628  0.1646
10631TIP3   OH253383   5.880   4.971   1.594  0.2002  0.2270 -0.1574
10631TIP3    H153384   5.864   5.016   1.511 -1.6835  0.6759  0.4182
10631TIP3    H253385   5.838   4.886   1.583 -0.2201  0.3589  0.3896
10632TIP3   OH253386   5.461   6.229   4.409 -0.2344  0.4997  0.1097
10632TIP3    H153387   5.480   6.277   4.490 -0.5164  1.5355 -0.4302
10632TIP3    H253388   5.387   6.173   4.432  1.0949 -0.8437  1.1815
10633TIP3   OH253389   3.251   4.548   2.140  0.1729  0.1043  0.1096
10633TIP3    H153390   3.275   4.474   2.085 -1.1806  0.4914 -1.0265
10633TIP3    H253391   3.158   4.534   2.161 -0.0077  1.2783  0.1649
10634TIP3   OH253392   5.468   6.606  15.581  0.0712  0.2968 -0.0977
10634TIP3    H153393   5.532   6.671  15.553 -1.2367  1.4285 -0.5349
10634TIP3    H253394   5.395   6.657  15.614 -0.4680 -0.9822  0.7225
10635TIP3   OH253395   2.188   1.375   1.158  0.5743  0.2770 -0.1045
10635TIP3    H153396   2.274   1.356   1.121  0.6097  1.0689 -0.4515
10635TIP3    H253397   2.169   1.465   1.130  0.3292  0.6786  1.2752
10636TIP3   OH253398   6.253   4.078  13.883 -0.4267  0.3649  0.3885
10636TIP3    H153399   6.283   4.126  13.960  2.5047  0.7361 -0.8968
10636TIP3    H253400   6.240   4.146  13.816 -0.4284 -0.1969 -0.1891
10637TIP3   OH253401   1.164   2.947  16.435  0.3024  0.1281 -0.2481
10637TIP3    H153402   1.103   2.931  16.508  1.2426  1.2982  0.8070
10637TIP3    H253403   1.166   3.042  16.426  0.3621 -0.0062 -1.6829
10638TIP3   OH253404   0.152   3.546  11.971  0.4482  0.0855  0.0261
10638TIP3    H153405   0.080   3.510  11.918 -0.4455  0.5776  0.8769
10638TIP3    H253406   0.209   3.472  11.989 -0.0372 -0.3826 -0.3743
10639TIP3   OH253407   1.822   3.572   5.760  0.0791  0.2800  0.9129
10639TIP3    H153408   1.779   3.494   5.792 -0.6433  1.2790  2.4380
10639TIP3    H253409   1.814   3.567   5.665 -0.6040 -1.1167  1.0369
10640TIP3   OH253410   5.291   4.906  11.751  0.0500  0.0980  0.1045
10640TIP3    H153411   5.323   4.984  11.798 -1.4728 -0.8635  2.8607
10640TIP3    H253412   5.370   4.858  11.729  0.7839 -0.5881  3.8669
10641TIP3   OH253413   3.640   2.832   5.533  0.5165 -0.2102  0.2612
10641TIP3    H153414   3.657   2.791   5.618 -0.8099 -3.7085 -1.0694
10641TIP3    H253415   3.692   2.781   5.471 -1.8799 -0.4656 -1.5920
10642TIP3   OH253416   0.351   5.727   3.706 -0.0217  0.6114 -0.2244
10642TIP3    H153417   0.350   5.638   3.670  0.0359  0.3108  0.4967
10642TIP3    H253418   0.258   5.749   3.717 -0.0581  1.0626 -1.4123
10643TIP3   OH253419   3.137   5.985   0.087 -0.5005  0.0315  0.1603
10643TIP3    H153420   3.194   5.958   0.015  1.4623  1.3444  1.1655
10643TIP3    H253421   3.099   6.068   0.058 -1.4042 -0.5161 -0.2370
10644TIP3   OH253422   1.831   2.738  11.848 -0.3936  0.0866  0.3654
10644TIP3    H153423   1.812   2.668  11.911  0.6538 -1.3510 -0.8745
10644TIP3    H253424   1.748   2.754  11.804 -0.8892  0.3758  1.3928
10645TIP3   OH253425   5.094   1.223   6.199 -0.7777  0.0848 -0.1590
10645TIP3    H153426   5.012   1.208   6.246 -0.0539 -0.2513  1.0066
10645TIP3    H253427   5.144   1.143   6.211  0.4674  0.9721  0.6735
10646TIP3   OH253428   4.171   1.456   5.435 -0.2933  0.0995 -0.0567
10646TIP3    H153429   4.250   1.409   5.460 -2.5229 -2.7553  1.9436
10646TIP3    H253430   4.170   1.452   5.339  2.2087  0.6545 -0.1420
10647TIP3   OH253431   2.891   0.684   2.306 -0.1130  0.0452 -0.1894
10647TIP3    H153432   2.844   0.683   2.222  1.0697  0.3930 -0.8714
10647TIP3    H253433   2.982   0.704   2.282  0.1896  0.3866  1.1983
10648TIP3   OH253434   2.580   3.644  14.754  0.2702 -0.3664  0.4660
10648TIP3    H153435   2.548   3.725  14.794  1.0227  0.3604 -0.3775
10648TIP3    H253436   2.587   3.583  14.827 -0.6931  0.2031  1.0479
10649TIP3   OH253437   6.432   4.929  13.021  0.1957 -0.2552 -0.0528
10649TIP3    H153438   6.350   4.977  13.008  0.0375 -0.2989  0.7896
10649TIP3    H253439   6.495   4.974  12.964  0.4144  1.9016  1.8212
10650TIP3   OH253440   2.691   0.276   2.342 -0.1686 -0.5906 -0.1936
10650TIP3    H153441   2.660   0.306   2.256  2.3358 -2.0844 -1.7056
10650TIP3    H253442   2.678   0.181   2.339 -1.3569 -0.4904  1.6527
10651TIP3   OH253443   5.118   2.016  10.912  0.4393  0.4151  0.2527
10651TIP3    H153444   5.080   1.967  10.984  1.0110  0.2106  0.4189
10651TIP3    H253445   5.043   2.048  10.862  0.0603 -0.2127  0.4220
10652TIP3   OH253446   1.603   2.241  12.905 -0.0025  0.1535 -0.2176
10652TIP3    H153447   1.590   2.244  13.000  0.4697 -0.1846 -0.1362
10652TIP3    H253448   1.679   2.184  12.894  2.1511  2.9782 -0.5479
10653TIP3   OH253449   1.045   5.133  14.597  0.3306  0.1007  0.5524
10653TIP3    H153450   0.977   5.119  14.664 -0.2355  0.7897  0.1243
10653TIP3    H253451   1.004   5.190  14.533  1.3283  0.5312  0.2913
10654TIP3   OH253452   1.987   1.173   4.389 -0.5168 -0.3118  0.1957
10654TIP3    H153453   1.971   1.267   4.378  1.0571  0.0331  0.8155
10654TIP3    H253454   1.966   1.135   4.303  0.7911  0.8788 -0.6672
10655TIP3   OH253455   3.669   2.029  13.630  0.7825 -0.5277 -0.4097
10655TIP3    H153456   3.592   1.973  13.636  1.7685 -1.7610  1.0547
10655TIP3    H253457   3.712   2.001  13.549  0.2676 -0.5649 -0.6749
10656TIP3   OH253458   6.109   3.143   0.771 -0.9391 -0.3165 -0.0937
10656TIP3    H153459   6.114   3.074   0.837 -1.4437 -0.6073 -0.3550
10656TIP3    H253460   6.030   3.192   0.793 -2.1482 -1.5473 -1.5559
10657TIP3   OH253461   2.776   2.817  13.881  0.4731  0.3049 -0.7264
10657TIP3    H153462   2.817   2.736  13.851 -1.2024 -0.4572 -0.9855
10657TIP3    H253463   2.730   2.850  13.804 -0.7322  0.3085 -0.0023
10658TIP3   OH253464   3.359   3.521   4.518 -0.3740  0.2396 -0.2039
10658TIP3    H153465   3.308   3.450   4.557  0.5874 -0.6860 -0.6268
10658TIP3    H253466   3.418   3.478   4.456  2.4502  1.0143  1.8260
10659TIP3   OH253467   5.636   2.526  14.259  0.0300 -0.3576 -0.3572
10659TIP3    H153468   5.683   2.574  14.327  2.1674 -2.6869 -0.1027
10659TIP3    H253469   5.670   2.560  14.177  0.4133 -0.3469 -0.1944
10660TIP3   OH253470   2.017   2.243  10.606 -0.2297 -0.1756 -0.8968
10660TIP3    H153471   1.954   2.307  10.572  0.9677  0.2606 -2.3383
10660TIP3    H253472   2.039   2.188  10.531 -0.9157 -2.0266  0.2349
10661TIP3   OH253473   1.224   0.038   5.315  0.0499  0.7301  0.0471
10661TIP3    H153474   1.133   0.014   5.296  0.0339  1.1522 -0.4500
10661TIP3    H253475   1.274  -0.006   5.247  0.4381 -1.1575  1.5148
10662TIP3   OH253476   3.850   5.887  14.304  0.0226  0.3454 -0.0807
10662TIP3    H153477   3.868   5.879  14.397  1.4741 -0.6442 -0.4291
10662TIP3    H253478   3.838   5.980  14.289  0.8394  0.6135  0.9019
10663TIP3   OH253479   1.995   2.367  12.822 -0.1962 -0.7693 -0.2309
10663TIP3    H153480   1.958   2.321  12.746  0.5210 -2.9542  0.7080
10663TIP3    H253481   2.080   2.326  12.835  2.0066  3.1061 -1.3994
10664TIP3   OH253482   4.715   1.057   0.531 -0.1309  0.0214 -0.8493
10664TIP3    H153483   4.685   1.001   0.459  1.5972 -2.5425  0.3244
10664TIP3    H253484   4.669   1.023   0.607  0.7599  0.3351 -0.1650
10665TIP3   OH253485   1.862   2.756   4.217  0.1934 -0.2371 -0.3391
10665TIP3    H153486   1.817   2.794   4.142 -1.8333 -0.3900  0.7643
10665TIP3    H253487   1.863   2.662   4.201 -1.3186 -0.3871  0.3757
10666TIP3   OH253488   0.817   6.600   2.279  0.2736  0.0222 -0.2881
10666TIP3    H153489   0.784   6.655   2.350  0.9457  1.8185 -1.3317
10666TIP3    H253490   0.821   6.658   2.203  1.4012 -1.3588 -1.3185
10667TIP3   OH253491   3.849   4.047  13.927 -0.4312 -0.5783 -0.0545
10667TIP3    H153492   3.807   3.961  13.914 -1.3454  0.1985 -2.4596
10667TIP3    H253493   3.901   4.036  14.006  2.0470 -4.3795 -2.0306
10668TIP3   OH253494   3.221   2.676  16.995 -0.8818 -0.1806 -0.3506
10668TIP3    H153495   3.211   2.669  16.900  0.1299  0.9202 -0.5521
10668TIP3    H253496   3.289   2.613  17.017 -0.8324 -0.1452 -0.4047
10669TIP3   OH253497   3.493   2.329   5.451 -0.3017  0.0099 -0.5571
10669TIP3    H153498   3.573   2.297   5.492 -0.6584 -2.4020 -1.6614
10669TIP3    H253499   3.513   2.332   5.357 -0.5399  2.3564 -0.5625
10670TIP3   OH253500   6.502   5.392  11.729 -0.1354  0.1680  0.3569
10670TIP3    H153501   6.565   5.321  11.719 -0.2670  0.3850 -2.2625
10670TIP3    H253502   6.552   5.471  11.706 -0.2918  0.8246  2.1725
10671TIP3   OH253503   5.954   4.012  14.061 -0.5472  0.0115 -0.1225
10671TIP3    H153504   5.880   4.049  14.013  0.2591  2.0551  0.1683
10671TIP3    H253505   6.004   4.088  14.090  0.2962 -1.2677  1.8711
10672TIP3   OH253506   6.491   6.258   3.681 -0.3243  0.4152 -0.1953
10672TIP3    H153507   6.450   6.224   3.761  0.5693  0.4933  0.3084
10672TIP3    H253508   6.423   6.252   3.615 -1.7858  2.3054  1.0667
10673TIP3   OH253509   3.675   6.560   4.977 -0.1080 -0.2167 -0.0259
10673TIP3    H153510   3.603   6.518   4.931  1.5858 -0.3202 -2.7086
10673TIP3    H253511   3.658   6.654   4.970 -1.7558 -0.2848  2.4135
10674TIP3   OH253512   2.595   0.151   1.565  0.7392  0.4626 -0.8294
10674TIP3    H153513   2.600   0.066   1.610 -1.1213  0.0849 -1.2940
10674TIP3    H253514   2.584   0.129   1.473 -1.0741  1.1929 -0.7989
10675TIP3   OH253515   2.753   3.464   0.965  0.0065  0.2734  0.3622
10675TIP3    H153516   2.806   3.537   0.995 -0.7993  1.0803 -0.1686
10675TIP3    H253517   2.746   3.406   1.041  1.2638  0.3824  0.5572
10676TIP3   OH253518   4.006   6.746  11.560  0.3066  0.5480 -0.1956
10676TIP3    H153519   3.943   6.785  11.499 -2.4724  0.4143  2.4201
10676TIP3    H253520   4.022   6.816  11.624 -0.3451 -0.6979  1.3796
10677TIP3   OH253521   6.791   2.676   2.998 -0.7100 -0.1583  0.4843
10677TIP3    H153522   6.733   2.657   2.923  0.2804  0.9129 -0.5719
10677TIP3    H253523   6.731   2.696   3.070 -1.6945  1.8852 -0.8431
10678TIP3   OH253524   0.981   2.100   6.288  0.0080  0.7508 -0.3677
10678TIP3    H153525   0.930   2.062   6.359  0.3959  1.8491  0.5226
10678TIP3    H253526   0.965   2.195   6.296  2.2477  1.1195 -0.0128
10679TIP3   OH253527   6.792   5.942  16.086 -0.1211 -0.7085 -0.3287
10679TIP3    H153528   6.863   5.879  16.073 -0.4309 -1.3039  0.7844
10679TIP3    H253529   6.816   6.017  16.032  1.5055 -0.7865  0.2485
10680TIP3   OH253530   0.644   5.729   4.969  0.1555  0.4548  0.4245
10680TIP3    H153531   0.642   5.697   4.879 -2.1549 -0.4423  0.7757
10680TIP3    H253532   0.682   5.657   5.020  1.0447  0.7964  0.2702
10681TIP3   OH253533   6.203   5.429  12.315 -0.1765 -0.3229  0.0481
10681TIP3    H153534   6.201   5.334  12.314  0.0793 -0.3283 -0.5413
10681TIP3    H253535   6.289   5.451  12.352 -0.0948 -0.3313 -0.1316
10682TIP3   OH253536   2.347   4.016  14.108 -0.1789 -0.4341 -0.0873
10682TIP3    H153537   2.255   3.997  14.126  0.2425  0.0344  2.7495
10682TIP3    H253538   2.368   3.963  14.031 -2.5275 -1.3665 -0.1200
10683TIP3   OH253539   3.925   0.369   3.664 -0.1565 -0.3684 -0.2249
10683TIP3    H153540   3.864   0.338   3.597  0.5251 -1.8677 -0.1680
10683TIP3    H253541   3.906   0.317   3.741  0.4658 -0.0962  0.1187
10684TIP3   OH253542   1.401   2.199   3.970 -0.3557 -0.5367  0.2730
10684TIP3    H153543   1.450   2.281   3.968 -0.3584 -0.5458 -1.8095
10684TIP3    H253544   1.317   2.221   3.929  0.0243 -1.8015 -1.2021
10685TIP3   OH253545   5.098   3.977  15.516 -0.3814  0.2937 -0.6047
10685TIP3    H153546   5.038   3.922  15.566 -0.8283  1.6404  0.3779
10685TIP3    H253547   5.070   3.968  15.425  0.4736 -2.2240 -0.6508
10686TIP3   OH253548   2.652   3.829  13.595  0.5207  0.1250 -0.1048
10686TIP3    H153549   2.681   3.791  13.678 -0.9204  2.3053  1.4558
10686TIP3    H253550   2.654   3.924  13.611 -0.7888  0.5273 -2.2174
10687TIP3   OH253551   4.064   6.780   3.068 -0.5140  0.1304  0.4787
10687TIP3    H153552   4.065   6.711   3.134 -0.6447 -0.2146  0.1239
10687TIP3    H253553   4.156   6.792   3.044 -0.5498 -0.3200  0.1262
10688TIP3   OH253554   4.172   4.559   6.135  0.0210  0.3797  0.0344
10688TIP3    H153555   4.118   4.536   6.059  0.7794 -0.8097 -0.1582
10688TIP3    H253556   4.258   4.522   6.115 -0.0993 -1.0620  2.0301
10689TIP3   OH253557   6.631   4.738   5.871  0.1260  0.3432 -0.3398
10689TIP3    H153558   6.540   4.711   5.856  0.0502 -0.4547  1.4398
10689TIP3    H253559   6.673   4.662   5.909  1.6123  0.6535 -1.3261
10690TIP3   OH253560   6.720   6.809  11.319  0.2054 -0.4579 -0.0093
10690TIP3    H153561   6.660   6.793  11.246 -0.0921 -1.5327  0.4638
10690TIP3    H253562   6.793   6.858  11.280 -0.5545  0.0945 -0.7649
10691TIP3   OH253563   0.673   1.619  15.397  0.4145  0.1615 -0.3576
10691TIP3    H153564   0.596   1.619  15.454  0.4321 -1.1343 -0.3122
10691TIP3    H253565   0.679   1.708  15.365 -0.6568  0.4657  0.2528
10692TIP3   OH253566   1.626   5.088   5.686 -0.9806  0.2133  0.7590
10692TIP3    H153567   1.657   5.142   5.759 -2.1233  2.4243 -0.3600
10692TIP3    H253568   1.552   5.039   5.722  0.0973 -0.7051  1.7908
10693TIP3   OH253569   1.649   4.980  13.709 -0.2361 -0.5403 -0.1058
10693TIP3    H153570   1.709   5.009  13.640  0.6995  0.4187  1.0864
10693TIP3    H253571   1.649   4.885  13.702  0.2136 -0.4790 -1.1219
10694TIP3   OH253572   5.869   5.990   5.699 -0.3674 -0.4535 -0.0094
10694TIP3    H153573   5.788   5.941   5.682 -0.2082 -0.2700 -1.3960
10694TIP3    H253574   5.869   6.059   5.633  0.5805 -0.0301  0.4256
10695TIP3   OH253575   3.404   1.644  14.336  0.1794 -0.6173 -0.2494
10695TIP3    H153576   3.426   1.587  14.409 -1.1310 -0.9003 -0.0769
10695TIP3    H253577   3.407   1.732  14.373 -0.2304 -0.7431  0.0771
10696TIP3   OH253578   4.896   4.874  13.333  0.1227 -0.0608 -0.3608
10696TIP3    H153579   4.803   4.894  13.320 -0.6437 -2.8792  0.3194
10696TIP3    H253580   4.916   4.908  13.420  0.2468  2.1812 -1.2307
10697TIP3   OH253581   2.088   1.374   2.092 -0.6588 -0.3355  0.1127
10697TIP3    H153582   2.176   1.346   2.117 -1.1373 -0.4921  1.6832
10697TIP3    H253583   2.101   1.456   2.044  0.3998 -0.8039 -0.4253
10698TIP3   OH253584   2.153   5.517   1.438  0.4042  0.2394 -0.1995
10698TIP3    H153585   2.084   5.520   1.505 -1.3117  0.7776 -1.9265
10698TIP3    H253586   2.210   5.590   1.459 -0.4490  0.7658  0.3385
10699TIP3   OH253587   6.465   6.173   3.267  0.8160  0.3550 -0.7909
10699TIP3    H153588   6.413   6.160   3.187  0.3749 -0.3833 -0.3848
10699TIP3    H253589   6.483   6.267   3.269 -1.3919  0.7861 -0.3857
10700TIP3   OH253590   0.413   0.705  16.541  0.4181 -0.0987  0.3135
10700TIP3    H153591   0.498   0.747  16.555  0.8282 -0.7394 -0.2140
10700TIP3    H253592   0.423   0.617  16.576  0.3912 -0.6023 -0.8947
10701TIP3   OH253593   1.580   4.434   3.760  0.0193  0.1608 -0.1450
10701TIP3    H153594   1.529   4.504   3.720 -0.7839 -0.6409 -0.5236
10701TIP3    H253595   1.657   4.426   3.704 -0.4528 -0.0448 -0.7687
10702TIP3   OH253596   0.093   3.135  16.497 -0.2080 -0.4646 -0.4003
10702TIP3    H153597   0.097   3.114  16.404 -1.2337 -0.7585 -0.3842
10702TIP3    H253598   0.114   3.053  16.541 -0.1877 -0.4418 -0.3697
10703TIP3   OH253599   2.741   6.744   4.289 -0.3617 -0.1478 -0.0381
10703TIP3    H153600   2.705   6.696   4.364 -2.0972  1.3205  0.0924
10703TIP3    H253601   2.829   6.771   4.317 -1.3964  1.2919  1.8670
10704TIP3   OH253602   4.331   0.812   2.463 -0.2999  0.4019 -0.1443
10704TIP3    H153603   4.390   0.748   2.423  0.2917  1.1426 -0.4789
10704TIP3    H253604   4.324   0.785   2.554 -0.7695 -0.6620 -0.5002
10705TIP3   OH253605   1.596   6.741   2.288 -0.2105 -0.7101  0.1724
10705TIP3    H153606   1.637   6.783   2.363 -0.2103 -0.8694  0.2617
10705TIP3    H253607   1.670   6.716   2.232 -0.1262 -1.7544  0.7288
10706TIP3   OH253608   6.255   4.476  10.754  0.6924  0.0673  0.3437
10706TIP3    H153609   6.344   4.501  10.779  0.8528 -1.3896  1.3128
10706TIP3    H253610   6.201   4.506  10.826  0.6293 -0.5798  0.5684
10707TIP3   OH253611   5.312   1.186   2.814  0.1463 -0.4244  0.2246
10707TIP3    H153612   5.367   1.135   2.874  0.2752 -1.2855 -0.6282
10707TIP3    H253613   5.251   1.122   2.777 -0.7650  0.3402  0.3876
10708TIP3   OH253614   6.170   0.014  15.197 -0.3945  1.1945  0.4120
10708TIP3    H153615   6.216   0.097  15.184  2.4241 -0.6181 -2.3186
10708TIP3    H253616   6.216  -0.028  15.270 -0.3824  1.1627  0.3857
10709TIP3   OH253617   0.004   2.919   1.612 -0.2601  0.0576  0.1896
10709TIP3    H153618  -0.032   2.894   1.697  1.0541 -3.4568 -0.2149
10709TIP3    H253619  -0.061   2.892   1.548 -0.2562  0.6707 -0.0823
10710TIP3   OH253620   0.217   4.843   6.081  0.2566  0.0470  0.1237
10710TIP3    H153621   0.165   4.764   6.096 -0.0211  0.2046 -0.0103
10710TIP3    H253622   0.265   4.856   6.162  0.1922 -0.1769  0.1978
10711TIP3   OH253623   6.722   1.365   4.854  0.9936 -0.4506 -0.0723
10711TIP3    H153624   6.713   1.436   4.790 -1.1668 -1.2258 -0.6675
10711TIP3    H253625   6.815   1.342   4.852  1.2325  0.6089 -1.7460
10712TIP3   OH253626   5.469   6.529   2.795  0.0573  0.2526 -0.8301
10712TIP3    H153627   5.491   6.592   2.864 -1.8468 -0.1110  0.1340
10712TIP3    H253628   5.495   6.444   2.830  1.4593  0.3433 -1.6188
10713TIP3   OH253629   6.072   1.851  13.509  0.0390  0.1663  0.2089
10713TIP3    H153630   6.030   1.863  13.424 -1.6229 -0.3283  0.9398
10713TIP3    H253631   6.099   1.939  13.535  2.7736  0.0107 -1.9205
10714TIP3   OH253632   3.181   3.538  15.214  0.3532  0.1176 -0.2063
10714TIP3    H153633   3.216   3.611  15.266 -1.6406 -0.2056  1.6616
10714TIP3    H253634   3.248   3.523  15.147  2.4718  1.3243  1.5530
10715TIP3   OH253635   4.628   1.932   4.535 -0.4423  0.0863  0.2566
10715TIP3    H153636   4.554   1.920   4.475 -0.1284  3.5112 -0.8996
10715TIP3    H253637   4.607   2.011   4.585  1.2965 -0.3006  1.6715
10716TIP3   OH253638   3.893   2.592  16.895 -0.1942  0.6274 -0.0815
10716TIP3    H153639   3.826   2.524  16.900 -0.3915  0.8125 -0.1662
10716TIP3    H253640   3.973   2.546  16.871 -0.5780  0.5880 -1.2934
10717TIP3   OH253641   2.255   2.942  13.700  0.2418 -0.4181  0.0907
10717TIP3    H153642   2.254   3.031  13.668  0.7854 -0.1373  0.8266
10717TIP3    H253643   2.289   2.949  13.789  0.7034 -1.4023  0.0039
10718TIP3   OH253644   5.221   0.105  10.455 -0.0123 -0.0240 -0.8832
10718TIP3    H153645   5.139   0.107  10.505  0.7157  3.2595  0.3165
10718TIP3    H253646   5.262   0.022  10.480 -1.2991 -0.0517  1.2815
10719TIP3   OH253647   1.001   4.605   2.143  0.0526 -0.2929  0.2762
10719TIP3    H153648   1.021   4.690   2.181 -0.3688  0.1848 -0.5649
10719TIP3    H253649   0.967   4.624   2.055 -1.3600 -1.2465  0.5856
10720TIP3   OH253650   0.270   4.988   0.908  0.0660  0.2052  0.1400
10720TIP3    H153651   0.364   4.996   0.889 -0.0975  0.1675 -0.6876
10720TIP3    H253652   0.240   4.916   0.853 -0.2393 -0.4920  1.1959
10721TIP3   OH253653   1.959   3.010   3.850  0.0005  0.9307 -0.7636
10721TIP3    H153654   2.010   2.933   3.874 -0.2909  1.1924  0.7799
10721TIP3    H253655   1.923   2.990   3.764 -0.3782 -0.8059 -0.2139
10722TIP3   OH253656   3.541   2.677  14.267  0.0709 -0.3777 -0.2177
10722TIP3    H153657   3.530   2.582  14.271  1.3555 -0.4982  0.5659
10722TIP3    H253658   3.633   2.689  14.242  0.0951  0.6640  0.3637
10723TIP3   OH253659   0.957   3.430  11.470  0.3062  0.1492  1.1703
10723TIP3    H153660   0.866   3.457  11.466  0.5573  0.8871  0.0626
10723TIP3    H253661   0.982   3.418  11.378  1.2520 -0.2764  1.4790
10724TIP3   OH253662   6.342   2.899   5.868 -0.3457 -0.3008  0.3585
10724TIP3    H153663   6.266   2.956   5.856 -0.1225 -0.0410  0.1752
10724TIP3    H253664   6.373   2.920   5.957 -1.1548 -1.2134  0.8654
10725TIP3   OH253665   4.096   4.976  12.844 -0.4417  0.2821 -0.2877
10725TIP3    H153666   4.011   4.945  12.811  0.3975 -1.0383 -1.2346
10725TIP3    H253667   4.104   4.936  12.931 -0.7397  0.3356 -0.2329
10726TIP3   OH253668   2.814   2.905   1.231 -0.3439 -0.4482 -0.3612
10726TIP3    H153669   2.794   2.861   1.313 -0.2734  0.4358  0.1307
10726TIP3    H253670   2.729   2.931   1.195 -0.3602 -0.6350 -0.4588
10727TIP3   OH253671   3.172   0.687  12.539  0.6311  0.1940  0.0288
10727TIP3    H153672   3.080   0.681  12.565  0.6366  0.9077  0.2271
10727TIP3    H253673   3.175   0.644  12.454  0.4070 -1.1792  0.7017
10728TIP3   OH253674   4.244   2.401   5.597 -0.0449 -0.1462 -0.4532
10728TIP3    H153675   4.193   2.481   5.590 -0.0305 -0.1757 -0.9076
10728TIP3    H253676   4.332   2.430   5.620 -0.4473 -0.1445  1.1347
10729TIP3   OH253677   2.789   6.332   5.264 -0.1357 -0.3375 -0.0795
10729TIP3    H153678   2.718   6.324   5.328 -1.8733 -0.2544 -1.9517
10729TIP3    H253679   2.750   6.305   5.181  2.1956 -0.8394 -1.0602
10730TIP3   OH253680   2.550   0.768   5.892 -0.2932  0.0843 -0.0314
10730TIP3    H153681   2.519   0.802   5.976 -1.4591 -0.2429 -0.3265
10730TIP3    H253682   2.494   0.692   5.875  0.8180 -0.6466 -0.4594
10731TIP3   OH253683   1.531   1.720  16.542 -0.2298 -0.6440  0.0216
10731TIP3    H153684   1.554   1.696  16.452  0.2232  1.2481 -0.3991
10731TIP3    H253685   1.613   1.713  16.591 -0.3193 -0.9477  0.1325
10732TIP3   OH253686   0.062   4.555  11.764  0.0717 -0.2567 -0.0441
10732TIP3    H153687   0.129   4.534  11.830  1.1450 -0.8632 -1.2914
10732TIP3    H253688   0.010   4.625  11.803  2.1178  0.9765  0.5294
10733TIP3   OH253689   4.884   3.533   3.149  0.3943 -0.5727  0.2439
10733TIP3    H153690   4.905   3.545   3.242  0.7062  0.2242  0.0746
10733TIP3    H253691   4.864   3.621   3.117 -1.2195 -1.0372 -0.0877
10734TIP3   OH253692   5.532   2.378   3.477 -0.7032 -0.3000  0.3996
10734TIP3    H153693   5.518   2.305   3.537 -2.7069 -0.7423 -0.5742
10734TIP3    H253694   5.486   2.353   3.397  2.3688  0.0247 -1.5868
10735TIP3   OH253695   1.965   3.642   0.989 -0.2216  0.6199 -0.1424
10735TIP3    H153696   1.918   3.575   1.039  1.0638  1.2346  1.9213
10735TIP3    H253697   1.942   3.724   1.031  0.2858  1.2306 -1.0464
10736TIP3   OH253698   0.605   1.168  12.906 -0.1944  0.0717  0.4493
10736TIP3    H153699   0.600   1.178  13.001 -0.1594 -0.4606  0.5128
10736TIP3    H253700   0.514   1.161  12.878 -0.1648 -1.1597  0.6118
10737TIP3   OH253701   1.803   6.599   2.599 -0.2138  0.2488  0.0334
10737TIP3    H153702   1.824   6.650   2.521 -0.7105 -0.4136 -0.5445
10737TIP3    H253703   1.873   6.618   2.660  0.1193  0.8668 -0.5343
10738TIP3   OH253704   1.384   0.658   1.967 -0.0621 -0.4179  0.1103
10738TIP3    H153705   1.439   0.672   1.890 -0.6885  1.8486  0.0179
10738TIP3    H253706   1.443   0.628   2.035  1.4509  2.5296  0.1799
10739TIP3   OH253707   3.952   5.434  12.508 -0.2693  0.2545  0.2835
10739TIP3    H153708   4.019   5.411  12.573  0.3097  0.4866 -0.2230
10739TIP3    H253709   3.975   5.523  12.481 -0.4677  0.1300 -0.2932
10740TIP3   OH253710   4.723   1.345   3.076  0.2133 -0.2792  0.2714
10740TIP3    H153711   4.746   1.420   3.021 -0.0960 -1.3133 -1.2869
10740TIP3    H253712   4.783   1.275   3.048 -0.0261 -0.8496  1.1674
10741TIP3   OH253713   0.510   1.974   5.290 -0.2624 -0.2224  0.1701
10741TIP3    H153714   0.416   1.974   5.269 -0.4508  0.2147  0.9792
10741TIP3    H253715   0.519   2.041   5.358  0.4832 -0.8849  0.7326
10742TIP3   OH253716   3.464   3.257  13.953  0.1580 -0.3938 -0.1333
10742TIP3    H153717   3.491   3.166  13.939 -0.2619 -0.3962 -0.9325
10742TIP3    H253718   3.401   3.253  14.024 -0.5352 -0.8376 -0.7745
10743TIP3   OH253719   3.782   2.464  14.544  0.4412  0.3967 -0.1208
10743TIP3    H153720   3.851   2.518  14.582 -0.6355 -0.0542  2.6531
10743TIP3    H253721   3.822   2.377  14.536  0.3925  0.2714  0.9294
10744TIP3   OH253722   4.258   6.306  14.769  0.0452 -0.0111 -0.1000
10744TIP3    H153723   4.320   6.325  14.840  1.0146  1.8749 -1.3864
10744TIP3    H253724   4.197   6.379  14.770 -0.9815 -0.8591 -0.1167
10745TIP3   OH253725   2.835   4.061  14.006  0.0297 -0.3453 -0.0288
10745TIP3    H153726   2.792   4.047  14.091 -0.0609  0.0439 -0.0089
10745TIP3    H253727   2.928   4.068  14.028 -0.2136  2.3453  0.3746
10746TIP3   OH253728   2.306   0.055  13.103  0.8686 -1.0265  0.2367
10746TIP3    H153729   2.226   0.033  13.151  0.0586  0.5264 -0.3671
10746TIP3    H253730   2.358   0.105  13.166  0.4628 -0.2813 -0.0140
10747TIP3   OH253731   1.496   3.699   4.887 -0.2129  0.0956  0.1417
10747TIP3    H153732   1.534   3.786   4.876  2.1349 -0.8978  0.1271
10747TIP3    H253733   1.413   3.714   4.933 -0.9077  2.5177 -1.7775
10748TIP3   OH253734   5.522   0.110  13.953  0.4774  0.4567  0.4730
10748TIP3    H153735   5.581   0.052  13.906 -1.0513  0.2182 -1.2156
10748TIP3    H253736   5.545   0.198  13.922 -0.7809  0.2698 -1.0758
10749TIP3   OH253737   2.793   5.790  16.517  0.1519  0.0244  0.0901
10749TIP3    H153738   2.811   5.879  16.487  1.3458 -0.4004 -0.4978
10749TIP3    H253739   2.873   5.764  16.563  0.1593 -1.0408 -0.5022
10750TIP3   OH253740   1.078   2.644   4.130 -0.2755 -0.4921  0.1884
10750TIP3    H153741   1.061   2.736   4.111  0.3782 -0.3899  0.0988
10750TIP3    H253742   1.075   2.600   4.045  1.3201 -0.2443 -0.0176
10751TIP3   OH253743   3.374   0.017   5.780  0.0660 -0.1270  0.1840
10751TIP3    H153744   3.413  -0.069   5.790  1.1780  0.1567 -1.5796
10751TIP3    H253745   3.422   0.073   5.841  0.8729 -0.2601 -0.3351
10752TIP3   OH253746   5.199   4.440  13.082 -0.0507  0.2097 -0.1279
10752TIP3    H153747   5.292   4.454  13.066 -0.0767  0.0617 -0.4169
10752TIP3    H253748   5.159   4.446  12.995 -0.2542 -0.1423 -0.0609
10753TIP3   OH253749   5.055   0.376   3.673  0.1907 -0.9404 -0.2556
10753TIP3    H153750   4.971   0.408   3.639 -0.5926 -2.5954  0.0674
10753TIP3    H253751   5.044   0.379   3.768  0.4915 -1.1890 -0.2129
10754TIP3   OH253752   6.307   5.333  13.517 -0.4287  0.9421 -0.0565
10754TIP3    H153753   6.338   5.307  13.431 -2.8839 -0.5207 -0.5515
10754TIP3    H253754   6.287   5.251  13.562 -2.9028  1.7462  0.4269
10755TIP3   OH253755   6.149   1.452  13.733 -0.0579  0.4329 -0.0925
10755TIP3    H153756   6.190   1.376  13.690 -1.9079 -0.4405 -0.4180
10755TIP3    H253757   6.092   1.489  13.665  1.5431  2.7291 -0.2383
10756TIP3   OH253758   0.059   1.340   6.539  0.1800  0.3068  0.1104
10756TIP3    H153759   0.115   1.417   6.544 -1.1743  1.3565 -0.3686
10756TIP3    H253760   0.119   1.267   6.527  1.4587  1.3437  0.0551
10757TIP3   OH253761   5.622   2.606   4.332  0.3014 -0.1749 -0.1567
10757TIP3    H153762   5.713   2.629   4.348 -0.0787  1.5751 -0.3933
10757TIP3    H253763   5.580   2.615   4.418  0.4813 -1.6776  0.1009
10758TIP3   OH253764   4.943   0.913  16.663 -0.5791  0.3364  0.2445
10758TIP3    H153765   4.857   0.944  16.693  0.1039  0.7926  1.8211
10758TIP3    H253766   4.944   0.932  16.569 -2.6731 -0.8025 -0.0449
10759TIP3   OH253767   0.481   5.965   2.529  0.2953 -0.3019 -0.2053
10759TIP3    H153768   0.550   5.976   2.595  1.3204 -0.4906 -1.2494
10759TIP3    H253769   0.526   5.932   2.452 -0.8028  0.5058 -1.2100
10760TIP3   OH253770   6.305   4.205  10.920 -0.9369  0.4106  0.2076
10760TIP3    H153771   6.354   4.262  10.861  0.5580 -0.1649  0.8838
10760TIP3    H253772   6.250   4.152  10.862 -0.5548  0.8629 -0.5741
10761TIP3   OH253773   5.762   3.406   0.240  0.4287 -0.0023  0.4702
10761TIP3    H153774   5.839   3.459   0.219 -0.1774  1.1499  1.1356
10761TIP3    H253775   5.689   3.468   0.240 -0.3107 -0.8621  1.0917
10762TIP3   OH253776   3.675   5.907  15.655  0.2301 -0.4814  0.7640
10762TIP3    H153777   3.667   5.981  15.595  1.4414 -0.5124  0.5608
10762TIP3    H253778   3.587   5.896  15.691 -0.7191 -1.0658 -1.6749
10763TIP3   OH253779   4.811   3.967  11.529  0.4620  0.0207  0.2253
10763TIP3    H153780   4.780   4.043  11.479  1.9287  0.3076 -0.2727
10763TIP3    H253781   4.802   3.893  11.468  0.1278 -0.0028  0.3056
10764TIP3   OH253782   1.374   0.459   4.880 -0.6352  0.0978 -0.0447
10764TIP3    H153783   1.389   0.534   4.822 -0.7745  0.2060  0.0577
10764TIP3    H253784   1.432   0.474   4.954 -2.8972  1.7271  1.4646
10765TIP3   OH253785   3.980   0.828  15.501 -0.2725  0.1508 -0.2917
10765TIP3    H153786   4.050   0.825  15.566 -0.1895  0.8578 -0.3376
10765TIP3    H253787   3.996   0.753  15.444  0.5743  0.4344 -0.4311
10766TIP3   OH253788   0.112   1.909  16.786 -0.0427 -0.5190  0.2240
10766TIP3    H153789   0.184   1.846  16.792 -0.2887 -0.8891 -0.7092
10766TIP3    H253790   0.051   1.870  16.724 -0.7012  0.1436  0.4523
10767TIP3   OH253791   4.767   5.819   6.192  0.7843  0.4515 -0.7428
10767TIP3    H153792   4.679   5.818   6.153  0.7945  3.0241 -0.9308
10767TIP3    H253793   4.824   5.787   6.122 -0.0140 -1.5634 -0.5118
10768TIP3   OH253794   4.592   0.154   1.909  0.1061 -0.4497  0.0615
10768TIP3    H153795   4.667   0.207   1.936  0.4719 -0.5626 -0.7228
10768TIP3    H253796   4.521   0.182   1.967  0.9643 -0.9474  1.3673
10769TIP3   OH253797   1.451   0.424   5.793  0.4151 -0.0663 -0.0087
10769TIP3    H153798   1.389   0.482   5.749 -0.8617 -1.7671 -0.5197
10769TIP3    H253799   1.460   0.349   5.734  4.3456  0.8758 -0.8097
10770TIP3   OH253800   0.409   2.997  15.556  0.1127  0.2135 -0.5052
10770TIP3    H153801   0.393   2.905  15.577  0.5973 -0.2251 -1.9590
10770TIP3    H253802   0.459   3.030  15.630 -0.5817 -0.5290  0.3137
10771TIP3   OH253803   5.433   2.627   0.562  0.0981 -0.1349  0.0476
10771TIP3    H153804   5.455   2.536   0.543 -0.2045  0.3900 -3.2164
10771TIP3    H253805   5.338   2.630   0.564  0.1209 -0.0846  1.2744
10772TIP3   OH253806   4.078   0.915   2.536  0.1372  0.0253  0.2182
10772TIP3    H153807   4.039   0.983   2.481 -0.3148 -2.0428 -2.1065
10772TIP3    H253808   4.155   0.885   2.487 -0.6560 -2.3392  0.3721
10773TIP3   OH253809   6.019   2.113  12.761 -0.6163 -0.1827 -0.2574
10773TIP3    H153810   5.986   2.117  12.851  1.5892 -0.3217  0.5865
10773TIP3    H253811   5.965   2.175  12.712 -3.4080 -1.8260  0.6270
10774TIP3   OH253812   4.071   6.786  12.791 -0.1243  0.6620  0.8006
10774TIP3    H153813   3.984   6.794  12.752  0.6358  1.0631 -0.8632
10774TIP3    H253814   4.131   6.804  12.718  1.3435  0.3617  1.9273
10775TIP3   OH253815   4.130   1.227   2.147  0.3792  1.0947 -0.4680
10775TIP3    H153816   4.081   1.278   2.212 -0.5366  0.1608 -0.4135
10775TIP3    H253817   4.116   1.274   2.065 -1.8011  0.0490 -0.7137
10776TIP3   OH253818   6.259   1.817  11.003  0.0771  0.1099 -0.0624
10776TIP3    H153819   6.224   1.905  10.986 -0.5513  0.0451  0.8763
10776TIP3    H253820   6.286   1.786  10.917 -2.6131 -0.0153 -0.9088
10777TIP3   OH253821   0.037   5.063   1.706  0.0440 -0.1844 -0.5019
10777TIP3    H153822   0.105   5.129   1.689 -0.6508  0.8927  0.7586
10777TIP3    H253823   0.084   4.991   1.749  0.2652  0.9131  1.1264
10778TIP3   OH253824   1.265   5.938  12.672 -0.2228  0.2802 -0.9541
10778TIP3    H153825   1.349   5.975  12.699 -0.4674  1.1597 -1.4012
10778TIP3    H253826   1.201   6.007  12.688 -0.8886 -0.4278 -0.5034
10779TIP3   OH253827   4.515   3.943   2.423  0.0816 -0.3979  0.5310
10779TIP3    H153828   4.436   3.993   2.404 -0.7423 -0.5248  3.4482
10779TIP3    H253829   4.578   4.008   2.454  0.4704 -0.5825  0.1444
10780TIP3   OH253830   2.147   4.856  11.423  0.1011  0.2853  0.4356
10780TIP3    H153831   2.066   4.876  11.470  1.0196  0.2184  2.0877
10780TIP3    H253832   2.213   4.912  11.464  1.3619 -1.3479  0.6719
10781TIP3   OH253833   3.122   6.347   5.367  0.3738  0.2815 -0.1803
10781TIP3    H153834   3.173   6.404   5.425 -0.0306  0.5025 -0.0366
10781TIP3    H253835   3.065   6.298   5.427  0.4598 -0.0082 -0.3363
10782TIP3   OH253836   2.854   4.810   2.777 -0.3200  0.0918  0.2548
10782TIP3    H153837   2.783   4.765   2.733 -2.0576  2.1472  0.8634
10782TIP3    H253838   2.880   4.879   2.716  0.0113  0.3928  0.7361
10783TIP3   OH253839   2.505   2.909   5.525  0.5830  0.0440  0.2560
10783TIP3    H153840   2.517   2.830   5.474  0.4251  0.4109 -0.3507
10783TIP3    H253841   2.426   2.950   5.488 -0.1771 -0.2582  1.5036
10784TIP3   OH253842   3.078   4.216   0.756 -0.5239 -0.2891 -0.1685
10784TIP3    H153843   3.121   4.283   0.703  0.8310 -0.9003  0.1202
10784TIP3    H253844   3.061   4.260   0.840  0.1723 -0.2297 -0.0499
10785TIP3   OH253845   4.395   5.690  15.170  0.5693 -0.7016 -0.3317
10785TIP3    H153846   4.444   5.758  15.125 -0.7647  0.3525 -0.2254
10785TIP3    H253847   4.448   5.666  15.245  1.3476 -0.2548 -0.7391
10786TIP3   OH253848   6.378   4.064   1.416 -0.0107 -0.2198 -0.1607
10786TIP3    H153849   6.439   3.996   1.387  0.1859  0.5593 -1.6132
10786TIP3    H253850   6.410   4.144   1.373  0.6983  1.1194  2.7149
10787TIP3   OH253851   2.781   0.028   4.706  0.1506  0.6067  0.8977
10787TIP3    H153852   2.717   0.027   4.636 -0.3766 -1.6454  1.3908
10787TIP3    H253853   2.784   0.119   4.735 -0.2104  1.3952 -1.4882
10788TIP3   OH253854   3.949   5.745   5.781  0.6931  0.2503 -0.3038
10788TIP3    H153855   3.971   5.837   5.766  0.6771  0.0438 -1.6450
10788TIP3    H253856   3.898   5.720   5.704  0.4850 -0.8159  0.1767
10789TIP3   OH253857   4.831   2.371  13.488  0.3163  0.5002 -0.5983
10789TIP3    H153858   4.859   2.324  13.567  1.0853 -0.2419 -1.3064
10789TIP3    H253859   4.900   2.435  13.473  1.8098 -1.5349 -2.5219
10790TIP3   OH253860   3.452   3.701   0.725  0.0851 -0.4787 -0.6442
10790TIP3    H153861   3.385   3.669   0.665  1.4032  0.0509 -2.4480
10790TIP3    H253862   3.422   3.789   0.748  0.5113  0.0426 -2.0252
10791TIP3   OH253863   0.011   2.680   1.845 -0.0950  0.4978  0.5783
10791TIP3    H153864  -0.019   2.633   1.768 -0.1434 -0.7597  1.3577
10791TIP3    H253865  -0.069   2.713   1.886 -0.2598 -0.9816  1.4593
10792TIP3   OH253866   3.406   2.966  13.233 -0.1600  0.7836 -0.0901
10792TIP3    H153867   3.399   2.952  13.138  0.9184 -2.7482  0.3121
10792TIP3    H253868   3.316   2.958  13.265 -0.0670 -1.5423 -0.3768
10793TIP3   OH253869   1.880   6.794  15.083 -0.5785 -0.4750 -0.5919
10793TIP3    H153870   1.906   6.803  14.991 -0.3043  1.1986 -0.3807
10793TIP3    H253871   1.802   6.848  15.091  0.6715  1.2157  0.6343
10794TIP3   OH253872   3.315   1.549  16.981  0.2179 -0.1911  0.1711
10794TIP3    H153873   3.304   1.587  16.894 -0.3258 -0.6097  0.0572
10794TIP3    H253874   3.228   1.520  17.006  0.6098 -1.2432  0.3210
10795TIP3   OH253875   6.423   6.476  16.039 -0.0883  0.1897  0.0664
10795TIP3    H153876   6.399   6.545  16.101 -0.3734 -0.4167  0.6401
10795TIP3    H253877   6.364   6.404  16.060 -0.1131 -0.0586 -0.8470
10796TIP3   OH253878   0.649   3.483  12.415  0.2006 -0.0779 -0.0938
10796TIP3    H153879   0.741   3.456  12.410  0.1628 -0.8122  2.2041
10796TIP3    H253880   0.600   3.406  12.387  0.3020  0.7121 -2.4802
10797TIP3   OH253881   5.360   5.374  15.819 -0.0829 -0.5821 -0.1778
10797TIP3    H153882   5.449   5.396  15.794  0.0721 -0.4230  0.5071
10797TIP3    H253883   5.321   5.337  15.740  1.2784 -2.7621  0.1390
10798TIP3   OH253884   4.130   5.665   1.190  0.2398  0.0143 -0.0216
10798TIP3    H153885   4.054   5.614   1.161  0.1340 -0.0209  0.3157
10798TIP3    H253886   4.092   5.744   1.228  0.4191  0.4797 -0.8192
10799TIP3   OH253887   5.342   4.830   3.423 -0.0528 -0.2205  0.1879
10799TIP3    H153888   5.415   4.836   3.484 -2.0187 -0.1402  2.6366
10799TIP3    H253889   5.306   4.743   3.437 -1.6079  0.4462  0.4635
10800TIP3   OH253890   5.295   5.544  16.433  0.2609  0.3962  0.3554
10800TIP3    H153891   5.350   5.595  16.492  1.6597 -0.2354 -0.3786
10800TIP3    H253892   5.355   5.485  16.389 -0.9724 -0.1237 -0.6686
10801TIP3   OH253893   0.853   4.967   2.127 -0.2236  0.3384 -0.7988
10801TIP3    H153894   0.897   4.926   2.053 -1.6779  1.0077 -2.0706
10801TIP3    H253895   0.847   5.060   2.102 -0.5329  0.6081  0.2583
10802TIP3   OH253896   2.847   0.889  16.871  0.4360  0.4920 -0.0706
10802TIP3    H153897   2.910   0.930  16.812 -1.5295  1.6544 -1.4211
10802TIP3    H253898   2.817   0.810  16.824 -0.8216  1.1984 -0.5007
10803TIP3   OH253899   4.962   4.665  11.506 -0.1656 -0.5425  0.2209
10803TIP3    H153900   4.998   4.732  11.564 -0.5842  0.2607 -0.4546
10803TIP3    H253901   5.033   4.601  11.497  1.5095  1.5806 -2.0036
10804TIP3   OH253902   5.940   2.332  13.289 -0.2661  0.0206  0.1301
10804TIP3    H153903   5.890   2.393  13.234  0.6339 -0.5947 -1.4014
10804TIP3    H253904   5.998   2.387  13.341 -2.2077  0.7207  1.6426
10805TIP3   OH253905   6.704   5.632   3.878 -0.4783 -0.2296  0.3102
10805TIP3    H153906   6.762   5.579   3.822  0.6810 -1.5957  2.6988
10805TIP3    H253907   6.673   5.570   3.944 -0.7831  1.6312  1.9327
10806TIP3   OH253908   1.215   5.195   6.244  0.1365  0.0354  0.2436
10806TIP3    H153909   1.135   5.226   6.286  0.5033 -1.3576  2.0293
10806TIP3    H253910   1.282   5.258   6.269  0.5649 -1.3102  2.6303
10807TIP3   OH253911   4.696   1.722  14.258  0.3366 -0.1784  0.4642
10807TIP3    H153912   4.697   1.785  14.186 -2.9781  1.6891  1.9115
10807TIP3    H253913   4.610   1.681  14.252  0.5724 -1.0287  2.5161
10808TIP3   OH253914   3.970   4.498   2.907  0.5580  0.9623 -0.1076
10808TIP3    H153915   4.039   4.491   2.972  0.3752 -0.5673 -0.0765
10808TIP3    H253916   4.011   4.546   2.834  1.4627  0.5968  0.1558
10809TIP3   OH253917   1.797   6.682   0.251  0.0143 -0.2229 -0.4583
10809TIP3    H153918   1.786   6.731   0.169  2.6127  0.9333 -0.1696
10809TIP3    H253919   1.758   6.738   0.318 -0.8005 -0.5044 -0.6869
10810TIP3   OH253920   2.045   3.331  11.395 -0.2020 -0.4573  0.7296
10810TIP3    H153921   2.003   3.302  11.314  1.2328 -0.2341 -0.1058
10810TIP3    H253922   2.037   3.256  11.454  1.8231 -1.9270 -0.7931
10811TIP3   OH253923   0.697   0.816   0.383  0.5627  0.3708  0.6446
10811TIP3    H153924   0.755   0.740   0.384 -0.6370 -0.5557  1.9656
10811TIP3    H253925   0.688   0.839   0.290  2.9655  0.5057  0.4159
10812TIP3   OH253926   6.268   2.422   2.642  0.2945 -0.2214  0.4891
10812TIP3    H153927   6.204   2.477   2.596 -0.0450  0.2983  1.5659
10812TIP3    H253928   6.236   2.419   2.732  1.3725 -0.6056  0.8623
10813TIP3   OH253929   6.467   0.922  15.301 -0.1315  0.1495 -0.1678
10813TIP3    H153930   6.546   0.870  15.293  0.1185  0.6430 -1.0197
10813TIP3    H253931   6.457   0.964  15.215 -1.0395  0.4749  0.0854
10814TIP3   OH253932   4.202   2.920   4.754  0.2492 -0.1247 -0.3041
10814TIP3    H153933   4.188   2.874   4.671 -2.3603  0.2431 -0.0863
10814TIP3    H253934   4.242   2.854   4.811  0.2998 -0.9271 -1.2549
10815TIP3   OH253935   0.267   3.988  16.603  0.3972  0.2811  0.3518
10815TIP3    H153936   0.353   4.030  16.614  0.1572  0.6786  0.7391
10815TIP3    H253937   0.216   4.018  16.678 -0.7790  1.8255 -1.0099
10816TIP3   OH253938   3.903   3.763  15.701  0.1526  0.2884 -0.4167
10816TIP3    H153939   3.847   3.792  15.629  2.3476 -0.3071 -2.4393
10816TIP3    H253940   3.930   3.844  15.745 -1.2723  0.6492 -0.1905
10817TIP3   OH253941   4.016   4.620  15.121 -0.0502  0.0357 -0.3912
10817TIP3    H153942   4.108   4.642  15.138 -0.2700  0.7541 -0.1053
10817TIP3    H253943   3.971   4.705  15.121 -0.4126 -0.1183 -2.3623
10818TIP3   OH253944   1.903   5.474   2.574 -0.1407  0.0069  0.0439
10818TIP3    H153945   1.907   5.488   2.479 -0.5985  1.9812  0.2929
10818TIP3    H253946   1.994   5.460   2.600  0.0744  0.2050 -0.5766
10819TIP3   OH253947   5.349   1.973  15.831  0.4414 -0.0952 -0.2038
10819TIP3    H153948   5.329   1.901  15.771  0.7407  0.0113 -0.4296
10819TIP3    H253949   5.422   2.020  15.790  0.5704  0.0479  0.1844
10820TIP3   OH253950   1.959   2.209   4.034 -0.1063  0.3847  0.2300
10820TIP3    H153951   1.867   2.181   4.030 -0.6397  2.2605 -1.4127
10820TIP3    H253952   2.001   2.164   3.960 -0.0450  0.7232  0.0585
10821TIP3   OH253953   4.249   1.572   2.185 -0.1959  0.3276  0.1960
10821TIP3    H153954   4.163   1.564   2.226  0.8078 -3.6175  1.7875
10821TIP3    H253955   4.300   1.625   2.247 -1.1857  1.8684 -0.2919
10822TIP3   OH253956   2.892   5.184   4.746  0.0850 -0.3754  0.3265
10822TIP3    H153957   2.966   5.129   4.720  0.6813  0.7243 -0.3616
10822TIP3    H253958   2.819   5.123   4.759  1.2180 -1.5272  1.4473
10823TIP3   OH253959   5.939   0.644   4.192  0.0902 -0.4421  0.7531
10823TIP3    H153960   5.986   0.724   4.216 -0.4946  0.4760 -1.1062
10823TIP3    H253961   6.006   0.589   4.150 -0.0203  0.0131 -0.0241
10824TIP3   OH253962   1.107   4.226   2.754  0.0221  0.0760  0.2808
10824TIP3    H153963   1.149   4.262   2.675  0.1496 -0.1180  0.2602
10824TIP3    H253964   1.048   4.158   2.721  0.7220 -0.6062  0.4222
10825TIP3   OH253965   0.807   6.764   2.548 -0.0126 -0.3974 -0.1425
10825TIP3    H153966   0.875   6.702   2.575  1.0461  0.8103  0.0176
10825TIP3    H253967   0.841   6.850   2.574 -1.2534  0.2992 -0.7710
10826TIP3   OH253968   6.047   5.408   0.814 -0.4680 -0.0442  0.4485
10826TIP3    H153969   6.090   5.490   0.840 -1.2645  0.1583  1.1628
10826TIP3    H253970   6.055   5.406   0.719  0.6929  0.2302  0.5329
10827TIP3   OH253971   1.966   2.604  13.774 -0.5866  0.2469 -0.3002
10827TIP3    H153972   1.981   2.697  13.758  2.2051 -0.2485 -0.8712
10827TIP3    H253973   1.991   2.561  13.693 -0.1878 -1.1294  0.5324
10828TIP3   OH253974   6.525   5.818   3.820  0.5178  0.1991  0.1051
10828TIP3    H153975   6.554   5.909   3.828  0.5793  0.3220 -1.3494
10828TIP3    H253976   6.603   5.767   3.843  0.7132  0.5147  0.1581
10829TIP3   OH253977   4.581   5.557  13.219  0.5275  0.1692 -0.0867
10829TIP3    H153978   4.620   5.471  13.204  0.2265  0.2060 -1.1297
10829TIP3    H253979   4.502   5.540  13.270  1.9166  0.0964  2.1008
10830TIP3   OH253980   5.696   2.739  13.588 -0.0561  0.3129  0.1305
10830TIP3    H153981   5.667   2.771  13.674 -0.0059  2.1676 -0.5327
10830TIP3    H253982   5.629   2.675  13.563 -0.5355  0.3919  1.1635
10831TIP3   OH253983   5.122   5.214   6.188 -0.8849  0.2909 -0.1941
10831TIP3    H153984   5.213   5.192   6.208 -0.6127  1.2685 -0.3287
10831TIP3    H253985   5.071   5.138   6.218 -0.1478  0.2796  1.0285
10832TIP3   OH253986   5.489   3.722   5.707  0.2736  0.2055  0.5528
10832TIP3    H153987   5.447   3.806   5.693  1.2276  0.8079  1.2756
10832TIP3    H253988   5.484   3.707   5.801 -0.4978 -0.8790  0.3630
10833TIP3   OH253989   3.131   0.771   5.268 -0.1692 -0.0842  0.5007
10833TIP3    H153990   3.220   0.736   5.266 -0.1218 -0.0477  1.5800
10833TIP3    H253991   3.076   0.697   5.296 -0.5636 -0.2587 -0.6926
10834TIP3   OH253992   6.724   4.810   3.200 -0.4090  0.3185  0.6144
10834TIP3    H153993   6.775   4.854   3.268  3.0313  0.0255 -1.6509
10834TIP3    H253994   6.754   4.719   3.202 -0.8058  0.1422 -0.7958
10835TIP3   OH253995   6.590   3.804   5.473  0.3552  0.1616  0.8261
10835TIP3    H153996   6.645   3.824   5.549 -0.0468  2.3772  0.5554
10835TIP3    H253997   6.501   3.818   5.504  0.1417  0.1159  0.2296
10836TIP3   OH253998   3.106   2.322   3.905 -1.0106  0.0815 -0.2928
10836TIP3    H153999   3.110   2.376   3.826 -1.3483  0.2410 -0.2051
10836TIP3    H254000   3.143   2.238   3.879  1.8214  1.1222  0.2438
10837TIP3   OH254001   3.694   2.988  13.657 -0.5993 -0.1294 -0.6302
10837TIP3    H154002   3.709   2.936  13.578  0.3715  0.0210 -0.5545
10837TIP3    H254003   3.777   3.033  13.672 -1.2453  0.9738 -0.3452
10838TIP3   OH254004   5.854   5.598  14.104 -0.3179  0.1590  0.1869
10838TIP3    H154005   5.904   5.680  14.101 -0.2706  0.1122 -0.5402
10838TIP3    H254006   5.791   5.610  14.175 -1.6736  1.6304 -1.2184
10839TIP3   OH254007   2.447   3.493   1.239  0.1816 -0.1540  0.5042
10839TIP3    H154008   2.445   3.548   1.160  3.2597  0.5964  0.8813
10839TIP3    H254009   2.461   3.404   1.205 -0.7008 -0.1406  0.0984
10840TIP3   OH254010   5.054   2.635   0.744 -0.0710 -0.2779  0.1620
10840TIP3    H154011   5.059   2.722   0.704 -0.6305 -0.9263 -1.3711
10840TIP3    H254012   5.137   2.626   0.791  0.6662  0.4778 -0.9427
10841TIP3   OH254013   4.170   4.320   3.821 -0.2031  0.4048 -0.2340
10841TIP3    H154014   4.129   4.374   3.888  1.3627  1.5662 -0.2091
10841TIP3    H254015   4.130   4.233   3.833 -0.1788  0.6821  1.9501
10842TIP3   OH254016   1.175   5.242   1.989  0.3923  0.1832  0.0871
10842TIP3    H154017   1.267   5.242   2.016  0.3405  0.3691  0.2607
10842TIP3    H254018   1.144   5.329   2.011  0.2981  0.2713 -0.3871
10843TIP3   OH254019   0.133   6.224  16.131  0.3931 -0.2773 -0.0021
10843TIP3    H154020   0.225   6.202  16.137  0.1637 -0.9442  1.1568
10843TIP3    H254021   0.116   6.280  16.207 -0.3751 -0.9554  0.3338
10844TIP3   OH254022   4.300   2.991  10.834  0.0954 -0.1543  0.4251
10844TIP3    H154023   4.278   2.939  10.912  1.2192 -0.5655  0.4749
10844TIP3    H254024   4.366   3.053  10.865 -0.6552  0.7751  0.1771
10845TIP3   OH254025   5.530   2.268  11.413 -0.0141 -0.0207 -0.4957
10845TIP3    H154026   5.463   2.200  11.400  1.5150 -1.5044 -0.8321
10845TIP3    H254027   5.604   2.238  11.361  0.9617  1.5487 -0.0282
10846TIP3   OH254028   5.589   0.033   5.603  0.5190 -0.0300  0.4330
10846TIP3    H154029   5.622   0.039   5.513  0.1567 -0.3165  0.2786
10846TIP3    H254030   5.601   0.121   5.638  1.8997 -0.2557  0.5473
10847TIP3   OH254031   3.151   5.410   5.472  0.1508 -0.3393 -0.4744
10847TIP3    H154032   3.238   5.420   5.511  0.3770 -0.0501 -1.0559
10847TIP3    H254033   3.159   5.335   5.414  0.1613  0.0143 -0.9381
10848TIP3   OH254034   4.320   5.400  16.427 -0.1438 -0.3787 -0.4907
10848TIP3    H154035   4.356   5.312  16.433 -0.0483 -0.3624 -0.8091
10848TIP3    H254036   4.396   5.456  16.411 -0.1080 -0.1423  0.4801
10849TIP3   OH254037   5.140   2.413   1.217  0.4321 -0.3559  0.1109
10849TIP3    H154038   5.101   2.346   1.160 -0.5918 -1.6252  2.2303
10849TIP3    H254039   5.096   2.494   1.192  0.8800 -0.6664 -1.7380
10850TIP3   OH254040   4.582   5.854  12.484  0.1961 -0.0167 -0.1701
10850TIP3    H154041   4.512   5.830  12.544 -0.5280 -0.9998 -1.3853
10850TIP3    H254042   4.660   5.812  12.520 -0.7084 -2.7220 -1.2645
10851TIP3   OH254043   0.712   0.946   2.677  0.4724  0.7616  0.0223
10851TIP3    H154044   0.643   0.939   2.611  1.0833  0.2348 -0.5743
10851TIP3    H254045   0.791   0.964   2.627  0.8238  1.0436  0.6746
10852TIP3   OH254046   3.792   6.732  14.218 -0.6485 -0.3733 -0.3865
10852TIP3    H154047   3.829   6.679  14.147 -0.3853 -0.1759 -0.3971
10852TIP3    H254048   3.745   6.670  14.273  2.3579 -1.1490  1.4167
10853TIP3   OH254049   0.046   4.034   3.885  0.7943  1.2901  0.4641
10853TIP3    H154050   0.134   4.007   3.912  1.1967  1.0232 -1.0591
10853TIP3    H254051  -0.007   3.955   3.893  0.4168  1.7263  2.4751
10854TIP3   OH254052   5.700   5.935  13.758  0.4885 -0.3355  0.1755
10854TIP3    H154053   5.753   5.903  13.685  1.0100  0.9873 -0.0550
10854TIP3    H254054   5.649   5.860  13.787  0.3101 -0.8789 -1.5356
10855TIP3   OH254055   5.445   3.380  11.152  0.4645  0.1194 -0.2337
10855TIP3    H154056   5.526   3.339  11.181  0.2334 -0.3852 -0.2983
10855TIP3    H254057   5.390   3.308  11.121  0.3101  0.5404 -0.9646
10856TIP3   OH254058   5.422   1.184   3.446 -0.5130 -0.1043 -0.0023
10856TIP3    H154059   5.487   1.253   3.434 -1.7782  1.1024 -0.1126
10856TIP3    H254060   5.473   1.106   3.468  0.9518  0.8301 -0.0166
10857TIP3   OH254061   1.360   3.804   6.116 -0.5158  0.5319  0.0060
10857TIP3    H154062   1.415   3.731   6.146  1.1974  1.1276 -1.5809
10857TIP3    H254063   1.294   3.814   6.185  0.7556 -0.8478  1.4774
10858TIP3   OH254064   2.416   6.213  15.525 -0.1748  0.0059  0.0126
10858TIP3    H154065   2.419   6.161  15.444 -3.5348  0.4886 -0.4905
10858TIP3    H254066   2.343   6.176  15.574  0.9958  0.6082  2.2547
10859TIP3   OH254067   2.475   2.801  16.792 -0.1297 -0.0145  0.5279
10859TIP3    H154068   2.541   2.865  16.767  0.0374 -0.3634  0.0725
10859TIP3    H254069   2.406   2.852  16.833  1.2777  0.1678  2.7534
10860TIP3   OH254070   5.217   6.765   5.904 -0.0319 -0.1738 -0.5581
10860TIP3    H154071   5.136   6.715   5.891 -0.2097 -0.3507  1.0639
10860TIP3    H254072   5.248   6.784   5.816 -1.1082 -1.3048 -1.2005
10861TIP3   OH254073   1.402   4.920  10.923 -0.2388  0.1419 -0.2980
10861TIP3    H154074   1.479   4.975  10.910 -0.5804  0.8430  0.6439
10861TIP3    H254075   1.329   4.972  10.890 -0.3633 -0.3771 -0.8537
10862TIP3   OH254076   3.597   5.384  13.957  0.0871 -0.6231  0.8090
10862TIP3    H154077   3.591   5.422  13.869 -1.0812  1.4215  1.7424
10862TIP3    H254078   3.600   5.289  13.942 -0.1354 -0.3007 -1.4207
10863TIP3   OH254079   3.056   0.886   0.787 -0.0088  0.2557 -0.0138
10863TIP3    H154080   3.005   0.887   0.706  2.1986 -0.6207 -1.4745
10863TIP3    H254081   3.137   0.933   0.764  1.4094 -1.5773  1.1288
10864TIP3   OH254082   1.225   3.078   2.385 -0.2553  0.4109 -0.4558
10864TIP3    H154083   1.252   3.168   2.401 -1.1351  1.0351 -2.3649
10864TIP3    H254084   1.304   3.027   2.400  0.3242  1.5177  0.3636
10865TIP3   OH254085   3.595   0.538   5.052 -0.2361  0.6265 -0.3153
10865TIP3    H154086   3.661   0.486   5.007 -0.5367  0.4451 -0.5500
10865TIP3    H254087   3.545   0.579   4.982  1.9307  3.7094 -0.1413
10866TIP3   OH254088   0.386   6.264  11.832 -0.1036 -1.0975  0.2558
10866TIP3    H154089   0.403   6.178  11.870 -0.4376 -0.6679  1.3952
10866TIP3    H254090   0.292   6.265  11.815 -0.2801 -0.5948  1.1951
10867TIP3   OH254091   2.740   6.462  13.712 -0.3455  0.1836 -0.7229
10867TIP3    H154092   2.709   6.414  13.789 -1.5259  1.3968 -0.4263
10867TIP3    H254093   2.677   6.441  13.644 -0.0488  0.1661 -0.9902
10868TIP3   OH254094   1.259   5.197   5.201  0.1884 -0.9493 -0.4930
10868TIP3    H154095   1.279   5.133   5.133  0.2930  0.5077 -1.8667
10868TIP3    H254096   1.180   5.163   5.243  1.7067 -3.3148  0.5515
10869TIP3   OH254097   1.414   5.742   4.753 -0.5764  0.5516  0.0050
10869TIP3    H154098   1.504   5.714   4.773 -1.2015 -1.1949  0.4431
10869TIP3    H254099   1.425   5.824   4.705  1.2113  0.9457  1.0480
10870TIP3   OH254100   6.307   4.155   1.916  0.9796 -0.1861  0.1166
10870TIP3    H154101   6.373   4.221   1.936 -0.5221  1.4248 -0.1304
10870TIP3    H254102   6.319   4.137   1.823  1.2066 -0.0684  0.1229
10871TIP3   OH254103   6.258   4.452   5.647 -0.5850 -0.0354  0.3931
10871TIP3    H154104   6.258   4.467   5.553 -0.3757 -1.1557  0.2101
10871TIP3    H254105   6.324   4.383   5.661 -0.6669  0.0671  1.3417
10872TIP3   OH254106   6.800   1.075   5.593  0.0901 -0.0435 -0.1834
10872TIP3    H154107   6.862   1.127   5.541  3.1146 -2.0625  1.2689
10872TIP3    H254108   6.796   0.991   5.548 -0.7456 -0.3029  0.3735
10873TIP3   OH254109   3.076   2.064  16.936  0.9062  0.1812 -0.0578
10873TIP3    H154110   3.050   2.108  16.855  0.5328  0.1789  0.0612
10873TIP3    H254111   3.082   2.134  17.001 -0.7148 -0.0657  0.3862
10874TIP3   OH254112   3.069   6.209   4.088 -0.2930  0.2536 -0.6949
10874TIP3    H154113   3.072   6.115   4.069 -0.0262 -0.0698  0.8481
10874TIP3    H254114   3.160   6.237   4.086 -0.2419  0.1739  0.2487
10875TIP3   OH254115   5.645   0.690  12.666  0.0834  0.2344  0.5564
10875TIP3    H154116   5.716   0.719  12.608 -0.8430 -0.7084 -1.0870
10875TIP3    H254117   5.622   0.768  12.716 -0.0927  1.4726 -1.3952
10876TIP3   OH254118   2.341   4.897  15.188 -0.2463  1.3772 -0.0177
10876TIP3    H154119   2.311   4.835  15.122  2.1381 -2.0097  1.9250
10876TIP3    H254120   2.271   4.900  15.253  1.0356 -2.0532  1.6172
10877TIP3   OH254121   6.156   4.743  14.711  0.0313 -0.2592 -0.5167
10877TIP3    H154122   6.078   4.771  14.664  0.9386  1.4630 -1.0283
10877TIP3    H254123   6.149   4.784  14.797 -0.3122 -1.2275 -0.0843
10878TIP3   OH254124   4.423   0.460  16.097 -0.3286 -0.3203 -0.1833
10878TIP3    H154125   4.354   0.494  16.040  0.3647  0.8564 -0.3350
10878TIP3    H254126   4.474   0.537  16.122  1.4671 -1.2556 -0.8098
10879TIP3   OH254127   1.210   2.201   3.565 -0.0842  0.6161  0.7422
10879TIP3    H154128   1.157   2.245   3.500 -0.3279 -0.1873  0.3843
10879TIP3    H254129   1.283   2.260   3.581  0.1213  0.6999 -0.4659
10880TIP3   OH254130   2.302   4.751   0.466  0.3788  0.5151 -0.4719
10880TIP3    H154131   2.316   4.789   0.553  0.9763 -0.6350 -0.0622
10880TIP3    H254132   2.390   4.730   0.434  0.2958  2.2808 -1.9921
10881TIP3   OH254133   6.054   5.004   6.452 -0.0744 -0.7497  0.5376
10881TIP3    H154134   6.100   5.030   6.372  0.1892 -0.0469  0.9082
10881TIP3    H254135   6.112   4.941   6.494  0.0125 -0.7504  0.4168
10882TIP3   OH254136   3.954   4.537  11.743  0.3582 -0.3259 -0.7250
10882TIP3    H154137   3.908   4.588  11.810  1.3256 -0.9118  0.4054
10882TIP3    H254138   3.898   4.461  11.729  0.5707 -0.6368  0.0613
10883TIP3   OH254139   6.727   3.622  15.007  0.0864  0.3199  0.0983
10883TIP3    H154140   6.758   3.698  15.057 -0.1050  0.5477 -0.1295
10883TIP3    H254141   6.782   3.622  14.929 -0.1621  0.4370 -0.0750
10884TIP3   OH254142   6.465   3.182  15.522  0.4802  0.1327  0.0848
10884TIP3    H154143   6.553   3.220  15.524  0.4028  0.3993 -0.9493
10884TIP3    H254144   6.468   3.111  15.587  0.9726  1.1468  1.1819
10885TIP3   OH254145   4.448   1.210  11.797  0.3644  0.1700 -0.6732
10885TIP3    H154146   4.372   1.266  11.810 -0.9295 -1.4284 -1.2183
10885TIP3    H254147   4.436   1.172  11.710  1.1161 -1.0830 -0.2430
10886TIP3   OH254148   1.916   0.506   2.190  0.4248 -0.4070 -0.6555
10886TIP3    H154149   1.874   0.577   2.141 -0.0375 -0.0940  0.1831
10886TIP3    H254150   1.910   0.533   2.282  4.0048  0.4596 -0.6190
10887TIP3   OH254151   1.246   4.202   0.124  0.6825  0.6136 -0.3253
10887TIP3    H154152   1.172   4.161   0.170  0.3789  0.5575 -0.8577
10887TIP3    H254153   1.284   4.262   0.188 -0.0284  0.8877 -0.1594
10888TIP3   OH254154   4.888   5.405   6.145  0.0375 -0.1023 -0.7973
10888TIP3    H154155   4.901   5.423   6.238 -1.4628  0.3041 -0.6410
10888TIP3    H254156   4.934   5.323   6.129  0.1618 -0.2616  0.3398
10889TIP3   OH254157   5.107   2.786   4.059  0.0239 -0.2888 -0.3872
10889TIP3    H154158   5.145   2.791   4.147  1.0424  1.2423 -0.8869
10889TIP3    H254159   5.119   2.695   4.033 -0.4000 -0.7833  1.1094
10890TIP3   OH254160   4.734   6.574  13.543 -0.5077 -0.3707 -0.3938
10890TIP3    H154161   4.768   6.654  13.504  0.1801 -0.7325 -0.5526
10890TIP3    H254162   4.723   6.595  13.635  1.8690 -0.7838  0.0126
10891TIP3   OH254163   4.235   2.397   3.054  0.0081  0.3983  0.3083
10891TIP3    H154164   4.192   2.377   3.137  3.0852 -1.8997  1.4633
10891TIP3    H254165   4.288   2.474   3.072 -0.5413  0.8404  0.0313
10892TIP3   OH254166   4.351   6.078   5.536  0.1971 -0.1021  0.3880
10892TIP3    H154167   4.315   6.049   5.620 -0.7016 -0.5918 -0.1674
10892TIP3    H254168   4.308   6.162   5.519  0.3798 -0.0028  0.4100
10893TIP3   OH254169   1.153   0.371  12.539  0.8343 -0.3852 -0.4756
10893TIP3    H154170   1.091   0.357  12.467 -1.1670  0.5432  1.0271
10893TIP3    H254171   1.099   0.370  12.618  2.6364  1.1894  0.8273
10894TIP3   OH254172   0.647   3.666  15.701  0.5896  0.1847 -0.2868
10894TIP3    H154173   0.646   3.606  15.627  0.6014  0.8288 -0.8110
10894TIP3    H254174   0.725   3.642  15.751  1.1767  0.4719 -1.0686
10895TIP3   OH254175   0.191   3.215  12.708  0.8689  0.0106  0.1780
10895TIP3    H154176   0.128   3.218  12.780 -0.9927 -0.9123 -1.3602
10895TIP3    H254177   0.210   3.306  12.688 -0.1864  0.3027  0.4973
10896TIP3   OH254178   5.782   6.542  16.269  0.5848  0.1288 -0.4321
10896TIP3    H154179   5.761   6.453  16.295  2.0334 -0.2648 -0.5262
10896TIP3    H254180   5.700   6.579  16.238 -0.0916 -1.0622 -0.0725
10897TIP3   OH254181   5.044   6.611   1.957  0.0872 -0.3354  0.4089
10897TIP3    H154182   5.111   6.603   2.025 -0.8452 -2.3632  1.1086
10897TIP3    H254183   5.093   6.640   1.880  1.7167 -1.3395  1.0261
10898TIP3   OH254184   3.803   2.999   3.013 -0.3438 -0.3884  0.5793
10898TIP3    H154185   3.788   3.039   2.927 -2.7531  0.6322  1.4194
10898TIP3    H254186   3.894   3.020   3.034 -0.1443  0.5319 -1.1135
10899TIP3   OH254187   2.223   5.665  14.556 -0.2295  0.4545  0.0531
10899TIP3    H154188   2.233   5.631  14.645  1.6589 -0.5491 -0.5052
10899TIP3    H254189   2.244   5.591  14.499 -0.1795  1.4160 -1.2184
10900TIP3   OH254190   6.771   4.638   5.180 -0.2613  0.2035 -0.0997
10900TIP3    H154191   6.794   4.646   5.088 -1.0808 -1.5324 -0.4806
10900TIP3    H254192   6.695   4.695   5.192  0.3526  1.0615 -0.3051
10901TIP3   OH254193   6.571   4.401  11.861 -0.3110 -0.0748  0.0897
10901TIP3    H154194   6.545   4.475  11.916 -1.8252 -0.0547 -0.6411
10901TIP3    H254195   6.582   4.328  11.923 -1.7974 -0.0027  0.4574
10902TIP3   OH254196   0.109   6.653   1.370  0.3702  0.3486 -0.4996
10902TIP3    H154197   0.170   6.599   1.421 -0.3353  0.3990  0.4202
10902TIP3    H254198   0.052   6.692   1.436  0.7180  2.0234 -1.1797
10903TIP3   OH254199   4.175   3.242  16.406  0.2396 -0.4850 -0.3139
10903TIP3    H154200   4.186   3.230  16.501 -0.2249  0.8882 -0.0863
10903TIP3    H254201   4.263   3.263  16.374  0.3023 -0.4375 -0.1118
10904TIP3   OH254202   0.813   3.972  11.692 -0.4522 -0.4086  0.1811
10904TIP3    H154203   0.836   4.065  11.699 -0.1976 -0.5117  0.7261
10904TIP3    H254204   0.892   3.931  11.655 -0.6070 -0.3930 -0.1737
10905TIP3   OH254205   3.782   0.978  12.239  0.6542 -0.0112 -0.1402
10905TIP3    H154206   3.752   0.895  12.274 -1.4956  1.4180  1.4809
10905TIP3    H254207   3.876   0.979  12.257  0.6836 -2.0339 -0.1098
10906TIP3   OH254208   5.004   4.062  15.276 -0.8951  0.1734  0.2148
10906TIP3    H154209   4.944   3.994  15.247  1.2023 -1.8885  0.5230
10906TIP3    H254210   4.995   4.132  15.211 -1.6300 -1.2562 -1.2621
10907TIP3   OH254211   3.907   1.907  17.131  0.0559  0.8208  0.0151
10907TIP3    H154212   3.970   1.850  17.174 -0.3693  0.2318 -0.1463
10907TIP3    H254213   3.909   1.988  17.182 -0.9179 -0.0991  1.5546
10908TIP3   OH254214   6.732   5.459  13.106  1.0915  0.5079 -0.2780
10908TIP3    H154215   6.761   5.544  13.141 -2.1251  0.8874  1.6938
10908TIP3    H254216   6.764   5.395  13.170 -0.9372  0.7775  1.0491
10909TIP3   OH254217   4.861   4.490   1.051 -0.1426  0.4021  0.4456
10909TIP3    H154218   4.788   4.551   1.048 -1.8156 -1.6195 -1.5527
10909TIP3    H254219   4.921   4.518   0.982 -0.3653  0.4352  0.2690
10910TIP3   OH254220   0.021   1.129  13.292 -0.0755 -0.0025  0.1827
10910TIP3    H154221  -0.041   1.200  13.310 -1.1416 -0.5474 -1.2847
10910TIP3    H254222  -0.032   1.050  13.291  0.6371 -0.4858 -1.0313
10911TIP3   OH254223   4.025   0.322  14.053  0.7936 -0.0717  0.3613
10911TIP3    H154224   4.079   0.325  14.133  0.8951 -0.5146  0.3166
10911TIP3    H254225   4.012   0.228  14.038 -0.5614  0.0485  0.7455
10912TIP3   OH254226   3.187   6.076   4.714  0.1336 -0.1573 -0.3677
10912TIP3    H154227   3.101   6.093   4.752 -1.4732 -1.4026 -3.2622
10912TIP3    H254228   3.219   6.162   4.687  0.5611  0.5131  2.1981
10913TIP3   OH254229   2.572   3.287  13.611 -0.1139  0.1349 -0.2789
10913TIP3    H154230   2.576   3.264  13.519 -0.3638  2.1004 -0.8218
10913TIP3    H254231   2.610   3.375  13.615 -1.0254  0.4742  1.3180
10914TIP3   OH254232   1.655   5.808  10.904  0.0128  0.0917 -0.0006
10914TIP3    H154233   1.613   5.853  10.831 -1.6462  0.5685  1.2267
10914TIP3    H254234   1.684   5.724  10.867 -0.8578  0.3066 -1.1972
10915TIP3   OH254235   2.988   4.622   3.251  0.4609  0.4280  0.0878
10915TIP3    H154236   2.897   4.638   3.225  0.0443 -2.2837 -0.2557
10915TIP3    H254237   3.040   4.670   3.187 -0.6736 -1.6166 -2.4873
10916TIP3   OH254238   5.516   5.516   0.849  0.5820 -0.3786 -0.1810
10916TIP3    H154239   5.542   5.606   0.869  0.4148 -0.4650  0.4692
10916TIP3    H254240   5.484   5.519   0.759 -0.3397  0.4115  0.1660
10917TIP3   OH254241   2.609   0.388   2.114  0.5889 -0.3256  0.3956
10917TIP3    H154242   2.519   0.415   2.100  0.3480 -0.8094  0.9812
10917TIP3    H254243   2.632   0.338   2.037  0.3136 -0.3134  0.3069
10918TIP3   OH254244   4.372   2.114   1.662 -0.2141 -0.0017 -0.3643
10918TIP3    H154245   4.290   2.154   1.634 -0.9914  0.0017  1.8154
10918TIP3    H254246   4.431   2.187   1.676 -0.6610  0.1815  0.5893
10919TIP3   OH254247   6.669   6.417  16.388 -0.2453 -0.0351 -0.3081
10919TIP3    H154248   6.738   6.431  16.323 -0.4558  0.3307 -0.4549
10919TIP3    H254249   6.638   6.329  16.371  1.2499 -0.7970  0.7690
10920TIP3   OH254250   0.702   5.710   3.541  0.1068 -0.6211  0.4035
10920TIP3    H154251   0.745   5.793   3.519  1.4485 -1.5924 -0.6800
10920TIP3    H254252   0.634   5.735   3.604 -1.1580  1.6425 -1.7776
10921TIP3   OH254253   3.974   2.767   5.744 -0.0812 -0.2403  0.3923
10921TIP3    H154254   3.882   2.752   5.725  0.2584 -1.4399 -0.4298
10921TIP3    H254255   3.975   2.821   5.823 -1.4895  0.6534 -0.1941
10922TIP3   OH254256   6.405   5.812   4.087 -0.5047 -0.4145  0.0780
10922TIP3    H154257   6.495   5.835   4.111 -0.7221 -0.7853  1.2792
10922TIP3    H254258   6.414   5.733   4.034 -0.1879 -1.0670  1.0921
10923TIP3   OH254259   3.664   5.878  10.964  0.2493  0.0904  0.5365
10923TIP3    H154260   3.670   5.848  10.874  1.8282  1.3229  0.2077
10923TIP3    H254261   3.695   5.805  11.017 -0.7061 -0.6408  0.0939
10924TIP3   OH254262   6.029   4.183   1.902  0.3613 -0.1678  0.5455
10924TIP3    H154263   6.022   4.253   1.838 -0.2114 -0.8937 -0.2029
10924TIP3    H254264   6.123   4.166   1.909  0.5628  1.2037  1.3294
10925TIP3   OH254265   1.641   4.079  11.757 -0.0239 -0.4815  0.2324
10925TIP3    H154266   1.644   4.123  11.672 -1.3132 -1.0197 -0.0978
10925TIP3    H254267   1.583   4.134  11.811  0.8578 -0.0921  0.8098
10926TIP3   OH254268   0.349   4.661   4.995  0.4012  0.4788 -0.4001
10926TIP3    H154269   0.408   4.680   5.068  1.1222 -0.3057 -0.7643
10926TIP3    H254270   0.370   4.728   4.929  1.2467 -0.0934 -0.7264
10927TIP3   OH254271   6.087   3.681  12.341  1.1969  0.1567  0.2072
10927TIP3    H154272   6.033   3.651  12.415  0.1504 -0.2960 -0.7256
10927TIP3    H254273   6.062   3.773  12.329 -0.2482 -0.3503 -0.9411
10928TIP3   OH254274   6.265   1.393   2.087  0.0034 -0.3250  0.4114
10928TIP3    H154275   6.238   1.424   2.174  1.0349 -0.5311  0.8167
10928TIP3    H254276   6.333   1.328   2.106  0.7043  0.1193 -0.5815
10929TIP3   OH254277   2.585   2.780  17.112  0.1327  0.2994  0.0049
10929TIP3    H154278   2.599   2.874  17.106 -0.6685  0.4929  1.0209
10929TIP3    H254279   2.491   2.769  17.094 -0.1449 -0.1214  1.6773
10930TIP3   OH254280   6.790   4.117   3.634  0.0129  0.4172 -0.2635
10930TIP3    H154281   6.848   4.077   3.698 -0.3403 -1.4923 -1.0754
10930TIP3    H254282   6.703   4.114   3.675  0.1037  1.0488 -0.0230
10931TIP3   OH254283   4.315   1.037  12.328  0.3866 -0.3428 -0.4042
10931TIP3    H154284   4.402   1.022  12.290 -0.0464 -2.1153 -0.7146
10931TIP3    H254285   4.321   1.000  12.417 -0.6987 -2.5257 -1.1936
10932TIP3   OH254286   0.093   2.640  15.513  0.3745  0.0565  0.4308
10932TIP3    H154287   0.035   2.706  15.551  1.1573  0.5758  0.7403
10932TIP3    H254288   0.067   2.636  15.421 -0.3239  0.0965  0.6225
10933TIP3   OH254289   2.708   2.318  14.172  0.2872 -0.1940  0.0974
10933TIP3    H154290   2.781   2.367  14.209  0.3935  0.5673 -1.0708
10933TIP3    H254291   2.747   2.239  14.136  0.5105  0.1115 -0.3350
10934TIP3   OH254292   2.823   5.160   2.898 -0.0397  0.6345  0.0915
10934TIP3    H154293   2.883   5.202   2.837 -0.6534 -0.0289 -0.9851
10934TIP3    H254294   2.782   5.090   2.847  0.4227 -0.7917  1.6367
10935TIP3   OH254295   0.108   6.462  15.724 -0.0412 -0.2561  0.3800
10935TIP3    H154296   0.026   6.439  15.767 -0.1387 -0.1223  0.2661
10935TIP3    H254297   0.171   6.398  15.757 -0.5335 -1.3185 -0.7008
10936TIP3   OH254298   5.792   2.596   6.656  0.0609  0.0754 -0.0022
10936TIP3    H154299   5.788   2.500   6.656  1.3264 -0.0178 -2.6735
10936TIP3    H254300   5.726   2.623   6.593 -2.0706  1.1133  2.6201
10937TIP3   OH254301   4.846   0.981  12.100 -0.2267 -0.4540  0.0259
10937TIP3    H154302   4.865   0.890  12.127 -0.5974 -1.2006 -2.1359
10937TIP3    H254303   4.887   0.989  12.014 -1.4171  1.0054 -0.4103
10938TIP3   OH254304   3.731   2.869   1.539  0.1085  0.4031  0.1393
10938TIP3    H154305   3.784   2.790   1.524 -0.3561 -0.3341  2.2234
10938TIP3    H254306   3.715   2.869   1.633 -1.7057  1.8398 -0.1523
10939TIP3   OH254307   5.425   3.578   1.073  0.2110 -0.3249 -0.4349
10939TIP3    H154308   5.418   3.522   0.996  1.1502  0.0042 -0.7625
10939TIP3    H254309   5.518   3.599   1.080  0.1272 -0.2989  0.7563
10940TIP3   OH254310   0.407   3.010   1.228 -0.1813  0.2686 -0.1131
10940TIP3    H154311   0.354   3.087   1.209 -1.2724 -0.6374 -0.8201
10940TIP3    H254312   0.444   2.984   1.143 -1.6134 -1.2792 -0.2861
10941TIP3   OH254313   4.440   3.344  13.662 -0.4864 -0.4398  0.4770
10941TIP3    H154314   4.521   3.293  13.666 -1.8117 -2.6801 -0.3020
10941TIP3    H254315   4.469   3.434  13.645  1.7819 -1.3390 -0.6356
10942TIP3   OH254316   5.525   3.530  13.250  0.6477 -0.4026 -0.3320
10942TIP3    H154317   5.553   3.620  13.270  1.4583 -0.9556  1.1008
10942TIP3    H254318   5.431   3.531  13.267  0.8722 -0.1520  1.0333
10943TIP3   OH254319   2.893   4.941  11.253 -0.2630  0.1071  0.2008
10943TIP3    H154320   2.878   4.853  11.217 -0.9414 -0.0383  0.8215
10943TIP3    H254321   2.957   4.928  11.322 -0.0790  0.1612  0.0418
10944TIP3   OH254322   1.603   3.992   0.045 -0.0930 -0.0481 -0.0034
10944TIP3    H154323   1.650   3.965  -0.033  1.1121  2.0576 -0.0555
10944TIP3    H254324   1.656   3.960   0.118  1.8681  2.8505 -0.0533
10945TIP3   OH254325   4.154   3.897  13.427 -0.1146 -0.3973 -0.5318
10945TIP3    H154326   4.088   3.872  13.363  0.1355 -1.5662 -0.3508
10945TIP3    H254327   4.111   3.963  13.482 -0.0146  1.3449 -2.4772
10946TIP3   OH254328   5.651   0.365   3.219 -0.0426 -0.0976 -0.3215
10946TIP3    H154329   5.604   0.286   3.247 -1.9031  0.4985 -1.6584
10946TIP3    H254330   5.622   0.433   3.280 -0.0692  0.0192 -0.4636
10947TIP3   OH254331   5.725   0.871  12.278  0.6877  0.4296 -0.7217
10947TIP3    H154332   5.812   0.909  12.283  0.9522 -0.0041 -1.8832
10947TIP3    H254333   5.685   0.912  12.201 -0.1211  0.5881 -0.2325
10948TIP3   OH254334   0.714   0.507   2.722 -0.3264  0.0267  0.6820
10948TIP3    H154335   0.789   0.461   2.761  0.4062  1.6752  1.2702
10948TIP3    H254336   0.753   0.568   2.661 -1.2898 -0.0296  0.0040
10949TIP3   OH254337   3.701   3.759  10.927 -0.1562  0.0085 -0.0264
10949TIP3    H154338   3.762   3.768  10.854 -1.0295  0.7864 -0.6760
10949TIP3    H254339   3.624   3.809  10.900 -1.8574 -2.5448 -0.0621
10950TIP3   OH254340   1.047   6.396   1.867  0.1230 -1.0970 -0.4572
10950TIP3    H154341   1.101   6.332   1.914 -1.3301 -2.1096 -0.1272
10950TIP3    H254342   0.959   6.359   1.869 -0.5289  0.3645 -1.2880
10951TIP3   OH254343   1.666   2.947   1.033  0.0954 -0.6639 -0.3658
10951TIP3    H154344   1.627   2.926   1.118 -0.4276  1.1916 -0.1098
10951TIP3    H254345   1.593   2.945   0.971  0.5431 -2.3865 -0.8522
10952TIP3   OH254346   4.448   5.874   2.658 -0.1588 -0.1346  0.2474
10952TIP3    H154347   4.518   5.926   2.620 -0.8887  0.6161 -0.1018
10952TIP3    H254348   4.462   5.786   2.624 -0.2015  0.3071 -0.9422
10953TIP3   OH254349   5.939   1.847  12.903 -0.0856  0.4344  0.0189
10953TIP3    H154350   5.878   1.853  12.977 -0.2968 -0.4762 -0.0766
10953TIP3    H254351   6.024   1.829  12.944 -0.0529  0.7360  0.0879
10954TIP3   OH254352   4.617   2.133   2.384  0.3098 -0.4381  0.2356
10954TIP3    H154353   4.583   2.119   2.296  0.8621 -1.8703  0.2496
10954TIP3    H254354   4.556   2.196   2.423  0.2370  0.4434 -1.2662
10955TIP3   OH254355   0.749   5.599   1.853 -0.0021 -0.4479  0.0619
10955TIP3    H154356   0.669   5.547   1.851 -1.6310  2.0047 -0.5543
10955TIP3    H254357   0.801   5.564   1.780 -2.0008  0.1795 -1.7197
10956TIP3   OH254358   3.539   1.892  15.046  0.4760 -0.0408 -0.4563
10956TIP3    H154359   3.537   1.944  15.127  1.6196 -1.5599  0.5763
10956TIP3    H254360   3.471   1.930  14.991  1.4174  2.6670  0.1980
10957TIP3   OH254361   2.954   2.349  12.118  0.0590  0.0684 -0.0155
10957TIP3    H154362   3.018   2.296  12.070 -0.5059  0.0071 -0.7048
10957TIP3    H254363   2.896   2.384  12.050 -1.3717 -0.8482  0.7072
10958TIP3   OH254364   2.586   4.503  10.655 -0.6888  0.0163  0.0405
10958TIP3    H154365   2.603   4.536  10.567  0.2934 -1.4828 -0.3519
10958TIP3    H254366   2.671   4.506  10.699 -0.9022 -0.5251  0.4992
10959TIP3   OH254367   1.355   3.541  12.633  0.2988 -0.0516 -0.6127
10959TIP3    H154368   1.357   3.452  12.599  0.5281  0.8478 -3.0263
10959TIP3    H254369   1.291   3.586  12.578  0.3596  1.3336  0.4286
10960TIP3   OH254370   1.501   5.602  16.125 -0.4964 -0.0313  0.2195
10960TIP3    H154371   1.434   5.534  16.135 -0.0033 -0.4909  0.4425
10960TIP3    H254372   1.477   5.669  16.188 -0.6270 -0.2912  0.4458
10961TIP3   OH254373   1.946   6.646   5.541  0.1598 -0.3004 -0.1198
10961TIP3    H154374   1.851   6.634   5.529  0.3653 -0.1597 -1.9285
10961TIP3    H254375   1.958   6.644   5.636 -1.5892 -0.8680  0.1075
10962TIP3   OH254376   5.022   5.197  13.992 -0.1843 -0.0128 -0.1337
10962TIP3    H154377   5.028   5.123  13.933  0.0652 -0.1893  0.1088
10962TIP3    H254378   5.107   5.239  13.987 -0.2198  0.0736 -0.0332
10963TIP3   OH254379   1.999   1.062  13.803 -0.5017  0.0933 -0.3938
10963TIP3    H154380   1.938   1.052  13.730 -0.1058  1.7731 -0.9725
10963TIP3    H254381   2.036   1.149  13.791  2.1757 -0.9696 -0.1623
10964TIP3   OH254382   2.921   3.608  16.737 -0.0788 -0.0166  0.4153
10964TIP3    H154383   2.849   3.553  16.706  0.7531 -0.5163 -0.6821
10964TIP3    H254384   2.989   3.546  16.763  1.1450  0.4583 -1.5101
10965TIP3   OH254385   1.287   3.534  15.606 -0.4268 -0.2725 -0.3945
10965TIP3    H154386   1.280   3.545  15.511  0.9131 -0.1390 -0.4885
10965TIP3    H254387   1.357   3.594  15.632 -0.9978 -0.0848  0.7227
10966TIP3   OH254388   5.059   2.153  10.472  0.2075  0.3888 -0.0319
10966TIP3    H154389   5.152   2.147  10.451  0.2054  0.5398 -0.0889
10966TIP3    H254390   5.015   2.141  10.388  0.1453 -0.6340  0.1502
10967TIP3   OH254391   6.678   6.291   2.183  0.1771  0.0251 -0.3953
10967TIP3    H154392   6.638   6.295   2.096  0.8005 -0.1462 -0.6911
10967TIP3    H254393   6.741   6.219   2.178  0.6632  0.4134  0.0051
10968TIP3   OH254394   0.724   2.457   6.181  0.2061 -0.1624  0.6433
10968TIP3    H154395   0.774   2.536   6.157  1.6417 -0.9025  1.1092
10968TIP3    H254396   0.720   2.459   6.276 -2.1350  0.7437  0.5630
10969TIP3   OH254397   1.309   4.264  16.872  0.0990 -0.5624 -0.0056
10969TIP3    H154398   1.273   4.241  16.787  0.0846 -1.6406  0.2838
10969TIP3    H254399   1.271   4.349  16.892  1.3933  0.4570 -1.8116
10970TIP3   OH254400   5.756   3.966  15.497 -0.0594  0.3441 -0.2709
10970TIP3    H154401   5.740   3.877  15.464  0.6826  0.0168  0.2270
10970TIP3    H254402   5.775   3.953  15.590  0.1143  1.0196 -0.2153
10971TIP3   OH254403   4.809   5.143   5.807  0.1119 -0.0717  0.5305
10971TIP3    H154404   4.768   5.149   5.893  3.3801  0.0557  2.1597
10971TIP3    H254405   4.897   5.177   5.820  0.3704  0.8686 -3.1232
10972TIP3   OH254406   3.323   5.554  13.085 -0.0525  0.3532  0.0184
10972TIP3    H154407   3.287   5.561  12.997 -0.3843  1.3079  0.2234
10972TIP3    H254408   3.356   5.642  13.105  0.4149  0.0334  0.6699
10973TIP3   OH254409   0.901   0.783   2.861  0.3675  0.3002  0.0856
10973TIP3    H154410   0.817   0.829   2.848  0.3568 -0.2326 -1.8779
10973TIP3    H254411   0.879   0.709   2.918 -0.6950 -0.3452 -1.1327
10974TIP3   OH254412   0.658   6.629  12.823  0.1058 -0.4111 -0.5731
10974TIP3    H154413   0.699   6.622  12.736  0.8885  0.6431 -0.3101
10974TIP3    H254414   0.616   6.715  12.822  0.6376 -0.1310  0.2959
10975TIP3   OH254415   4.991   0.648   2.921  0.0122 -0.0010 -0.0977
10975TIP3    H154416   4.918   0.708   2.904  1.0198  1.7257  1.4166
10975TIP3    H254417   5.062   0.681   2.867 -0.2652 -1.5903 -1.4522
10976TIP3   OH254418   4.940   1.216  16.296 -0.9311  0.3170 -0.5870
10976TIP3    H154419   4.908   1.283  16.236  1.8558  0.9127 -1.4620
10976TIP3    H254420   5.010   1.171  16.249 -0.5693 -1.0794  1.1806
10977TIP3   OH254421   5.267   0.915   6.009  0.0761  0.5544  0.6783
10977TIP3    H154422   5.357   0.942   5.987 -0.3981 -0.2237 -2.4472
10977TIP3    H254423   5.274   0.822   6.028 -0.2501  0.2351 -0.7468
10978TIP3   OH254424   5.374   6.586  15.337  0.1683 -0.3478  0.2090
10978TIP3    H154425   5.425   6.551  15.264 -0.4557 -1.1277  0.1385
10978TIP3    H254426   5.426   6.565  15.415  0.4061 -0.3178  0.0587
10979TIP3   OH254427   4.084   3.411  16.641 -0.4356  0.2089  0.6470
10979TIP3    H154428   4.031   3.369  16.574  1.4324 -0.0626 -0.7172
10979TIP3    H254429   4.069   3.505  16.628 -0.4795  0.1392  0.1769
10980TIP3   OH254430   3.129   6.785  15.148 -0.0620 -0.3970  0.1229
10980TIP3    H154431   3.190   6.848  15.187  1.2966 -1.0273 -0.9530
10980TIP3    H254432   3.137   6.798  15.054 -1.8740 -0.2372 -0.0216
10981TIP3   OH254433   3.186   1.381   2.146 -0.3712  0.5195 -0.4989
10981TIP3    H154434   3.247   1.334   2.089  1.9053  1.3778  1.1180
10981TIP3    H254435   3.142   1.313   2.196  0.5019 -0.0558 -0.5054
10982TIP3   OH254436   3.613   3.585   6.700 -0.2717  0.1013  0.0147
10982TIP3    H154437   3.555   3.544   6.636  0.3827 -0.1344 -0.4296
10982TIP3    H254438   3.673   3.515   6.726 -0.5150  0.2051  0.8592
10983TIP3   OH254439   0.290   4.190   4.575 -0.0836 -0.0670  0.4766
10983TIP3    H154440   0.323   4.280   4.573  0.9025 -0.4275  0.0071
10983TIP3    H254441   0.359   4.141   4.618 -0.2776 -0.7278  0.0381
10984TIP3   OH254442   5.944   3.647  12.800  0.1249  0.0554 -0.3791
10984TIP3    H154443   5.926   3.717  12.863  1.7379  0.1667 -0.0408
10984TIP3    H254444   5.988   3.690  12.727 -1.9723 -0.0259 -1.7419
10985TIP3   OH254445   2.875   5.777  16.953  0.2779 -0.7353 -0.3330
10985TIP3    H154446   2.823   5.818  17.022  1.3982 -0.8889  0.6346
10985TIP3    H254447   2.885   5.844  16.886 -0.1450 -0.3151  0.0265
10986TIP3   OH254448   0.418   4.308  12.502  0.1720 -0.0478 -0.0100
10986TIP3    H154449   0.325   4.300  12.482  0.5274 -0.0430 -1.7393
10986TIP3    H254450   0.434   4.403  12.503  0.4628 -0.0682 -1.2842
10987TIP3   OH254451   2.680   1.548  16.812  0.0964  0.2907 -0.3525
10987TIP3    H154452   2.589   1.564  16.836 -0.2533 -0.4411 -1.1723
10987TIP3    H254453   2.684   1.563  16.718  0.7414 -0.0495 -0.3903
10988TIP3   OH254454   1.588   6.428  12.420  0.1933  0.1756 -0.5146
10988TIP3    H154455   1.637   6.506  12.446  0.3195  0.0756 -0.4559
10988TIP3    H254456   1.503   6.439  12.461  0.6388 -0.3402  0.5502
10989TIP3   OH254457   6.202   1.834   2.666  0.3689  0.3572  0.1198
10989TIP3    H154458   6.288   1.803   2.693  0.8253  0.1610 -1.5066
10989TIP3    H254459   6.214   1.927   2.649  0.3940  0.2285 -0.5931
10990TIP3   OH254460   5.284   1.433   4.167 -0.1416  0.2089  0.1235
10990TIP3    H154461   5.234   1.438   4.248 -0.7708 -0.7498 -0.1916
10990TIP3    H254462   5.264   1.515   4.121 -0.6042  0.2916  0.4720
10991TIP3   OH254463   0.218   6.553   3.229 -0.1183  0.4924  0.1617
10991TIP3    H154464   0.185   6.463   3.228  2.1582 -0.4109  1.6870
10991TIP3    H254465   0.152   6.603   3.277 -0.5065 -0.7522  0.9518
10992TIP3   OH254466   2.822   4.217   3.036 -0.1187 -0.1239 -0.0522
10992TIP3    H154467   2.768   4.296   3.040 -0.5915 -0.1786 -3.5077
10992TIP3    H254468   2.905   4.247   2.999  0.6637 -0.8234  1.0896
10993TIP3   OH254469   3.728   2.663   0.583  0.3617  0.5262  0.0830
10993TIP3    H154470   3.670   2.643   0.509 -1.2866  0.6369  1.3109
10993TIP3    H254471   3.719   2.757   0.595 -3.8450 -0.1862  3.9441
10994TIP3   OH254472   3.535   4.348  11.567 -0.4333 -0.0482  0.6821
10994TIP3    H154473   3.477   4.311  11.633 -2.4192  0.8869 -0.4865
10994TIP3    H254474   3.529   4.287  11.493 -0.9101  0.6776  0.1068
10995TIP3   OH254475   5.353   2.249   2.940 -0.0493  0.3240 -0.0661
10995TIP3    H154476   5.389   2.260   2.852 -1.8462  0.1869 -0.8309
10995TIP3    H254477   5.399   2.173   2.976  2.1913  1.6285 -0.0774
10996TIP3   OH254478   5.960   0.512  16.617 -0.0484  0.4622  0.2326
10996TIP3    H154479   6.050   0.529  16.646  0.5055 -1.6029 -0.1228
10996TIP3    H254480   5.932   0.437  16.670 -0.8264 -0.1834 -1.0672
10997TIP3   OH254481   5.607   3.503   1.572  0.2621  0.3614  0.3654
10997TIP3    H154482   5.572   3.586   1.541  0.2551  0.3744  0.4081
10997TIP3    H254483   5.689   3.527   1.616 -0.1681  0.4392  1.1271
10998TIP3   OH254484   3.649   5.129   5.878  0.0441 -0.2490  0.6209
10998TIP3    H154485   3.563   5.132   5.920 -0.9460 -1.2537 -1.2787
10998TIP3    H254486   3.710   5.111   5.949 -1.7476 -3.2708  1.4754
10999TIP3   OH254487   0.757   6.798   3.358  0.0555 -0.0779 -0.0344
10999TIP3    H154488   0.709   6.874   3.391  0.7424  0.0638  0.6538
10999TIP3    H254489   0.690   6.732   3.342 -0.7034  1.1141 -1.9196
11000TIP3   OH254490   2.505   4.255  10.741  0.3346 -0.3309 -0.4666
11000TIP3    H154491   2.541   4.334  10.700  1.1808 -0.9216 -0.8798
11000TIP3    H254492   2.411   4.260  10.724  0.2905  0.9256  0.1036
11001TIP3   OH254493   0.381   3.503  10.496  0.4553  0.1509  0.2164
11001TIP3    H154494   0.320   3.432  10.515  2.3508 -1.3854  0.7525
11001TIP3    H254495   0.341   3.581  10.534 -0.1216 -1.2384  2.5309
11002TIP3   OH254496   5.021   4.332   1.250 -0.1760 -0.5947  0.2709
11002TIP3    H154497   5.024   4.383   1.330 -0.6580 -0.1866  0.0334
11002TIP3    H254498   4.978   4.389   1.186 -0.2672 -1.1065 -0.1358
11003TIP3   OH254499   6.212   3.779  15.059  0.2525  0.7033 -0.0696
11003TIP3    H154500   6.187   3.704  15.113  1.0945  1.3396  1.2570
11003TIP3    H254501   6.308   3.773  15.054  0.1969  0.7808 -1.3273
11004TIP3   OH254502   5.776   6.630   5.832 -0.0930 -0.0377 -0.3297
11004TIP3    H154503   5.729   6.686   5.894  2.4689  2.4344 -0.5097
11004TIP3    H254504   5.791   6.686   5.756  0.5789 -1.6847 -1.4328
11005TIP3   OH254505   1.526   0.776   3.049  0.1639 -0.5083 -0.4717
11005TIP3    H154506   1.468   0.782   3.125 -0.9536 -0.2660 -1.3369
11005TIP3    H254507   1.548   0.867   3.028  1.0677 -0.6077 -0.0005
11006TIP3   OH254508   5.497   6.071   3.288  0.3317 -0.1996 -0.0028
11006TIP3    H154509   5.450   6.010   3.345  0.6239 -1.3199 -0.9418
11006TIP3    H254510   5.429   6.112   3.235  0.1647  0.0539  0.4051
11007TIP3   OH254511   1.235   6.344  16.263  0.2801  0.1616 -0.0531
11007TIP3    H154512   1.176   6.340  16.338  1.7406 -0.2328  1.0975
11007TIP3    H254513   1.290   6.267  16.271  1.2768  0.7725 -0.8314
11008TIP3   OH254514   5.685   4.553  13.534 -0.3159 -0.1725 -0.3383
11008TIP3    H154515   5.701   4.613  13.607 -1.9319  0.5994 -0.6133
11008TIP3    H254516   5.746   4.582  13.466  0.2793 -0.0882  0.2219
11009TIP3   OH254517   1.759   1.445  14.496  1.2816  0.2063  0.4026
11009TIP3    H154518   1.691   1.403  14.443  2.7056 -1.3289 -0.2478
11009TIP3    H254519   1.759   1.536  14.466  0.0915  0.0395 -0.1743
11010TIP3   OH254520   3.377   5.612   5.205 -0.1414 -0.2529  0.1132
11010TIP3    H154521   3.441   5.671   5.166 -0.3347 -0.9367 -1.2704
11010TIP3    H254522   3.292   5.648   5.180 -0.2911 -0.0859  0.8368
11011TIP3   OH254523   1.213   1.189  14.113  0.3897  0.2326 -0.0753
11011TIP3    H154524   1.241   1.114  14.060 -0.4442  0.4526 -0.8322
11011TIP3    H254525   1.266   1.262  14.081  2.2738 -0.3155  1.6685
11012TIP3   OH254526   1.350   6.583  11.799 -0.3380  0.1548  0.3624
11012TIP3    H154527   1.282   6.609  11.861  1.3630  2.2549  1.4554
11012TIP3    H254528   1.399   6.664  11.783 -0.3679 -0.4745 -3.2933
11013TIP3   OH254529   6.724   6.184   3.072  0.6446 -0.2545  0.1063
11013TIP3    H154530   6.669   6.255   3.105  0.1919 -1.0764  1.1609
11013TIP3    H254531   6.678   6.152   2.994  0.1923 -0.1943  0.3419
11014TIP3   OH254532   2.702   5.245   4.007  0.1916 -0.0821  0.3293
11014TIP3    H154533   2.707   5.281   3.918 -0.2867 -0.9624 -0.0641
11014TIP3    H254534   2.712   5.150   3.995 -0.6963 -0.2846  1.1345
11015TIP3   OH254535   5.815   1.297  12.221  0.1967  0.1741  0.0306
11015TIP3    H154536   5.868   1.376  12.213  1.6610 -0.8385 -0.5293
11015TIP3    H254537   5.830   1.250  12.138 -1.6020 -0.1224 -0.1570
11016TIP3   OH254538   5.521   6.475  14.915 -0.6139 -0.2739  0.2250
11016TIP3    H154539   5.509   6.381  14.902 -3.3971  0.2145 -1.1625
11016TIP3    H254540   5.586   6.500  14.849 -0.9121 -0.9762 -0.3371
11017TIP3   OH254541   5.317   0.690   0.045 -0.2842  0.2266 -0.8118
11017TIP3    H154542   5.255   0.731   0.105  0.8359 -0.2218  0.6792
11017TIP3    H254543   5.388   0.754   0.036 -0.1645  0.0405 -1.2016
11018TIP3   OH254544   0.742   3.874  14.585  0.3987 -0.4648  0.0729
11018TIP3    H154545   0.655   3.886  14.547 -0.1500 -0.9915  1.1436
11018TIP3    H254546   0.770   3.787  14.557 -0.5282 -1.3613  1.8625
11019TIP3   OH254547   4.401   4.968  14.179 -0.0637  0.1387  0.3621
11019TIP3    H154548   4.458   4.951  14.105  0.2339  1.3916  0.2981
11019TIP3    H254549   4.399   5.063  14.187  0.1918  0.0157  2.1798
11020TIP3   OH254550   5.706   0.024  11.685  0.4407 -0.5822 -0.2042
11020TIP3    H154551   5.776  -0.040  11.676  0.7622 -0.5515  1.8092
11020TIP3    H254552   5.725   0.069  11.768 -1.5898 -0.1217  0.0415
11021TIP3   OH254553   5.153   5.644   6.112 -0.3722  0.1099  0.2784
11021TIP3    H154554   5.185   5.734   6.124  1.0786 -0.2524 -0.6821
11021TIP3    H254555   5.152   5.608   6.201 -1.1838  1.1474  0.6983
11022TIP3   OH254556   2.740   1.139   5.357 -0.0385 -0.0567 -0.9151
11022TIP3    H154557   2.829   1.107   5.374 -0.2785 -0.5489 -0.5559
11022TIP3    H254558   2.739   1.163   5.265  0.7200  0.7633 -0.7189
11023TIP3   OH254559   5.372   6.504   3.160 -0.5861  0.5853  0.0645
11023TIP3    H154560   5.409   6.540   3.079 -1.7631  1.0926 -0.2547
11023TIP3    H254561   5.339   6.418   3.134  0.9760 -0.1821  0.5143
11024TIP3   OH254562   6.809   3.693   2.725  0.2455 -0.4941  0.4886
11024TIP3    H154563   6.853   3.769   2.687  2.8057 -2.2162 -0.0440
11024TIP3    H254564   6.739   3.731   2.779  2.0649  2.2850  0.9774
11025TIP3   OH254565   2.368   0.060   1.331  0.3638 -0.7237 -0.2190
11025TIP3    H154566   2.372   0.129   1.397  0.5465 -0.8953 -0.0491
11025TIP3    H254567   2.292   0.082   1.277 -0.6038 -1.3178  0.8718
11026TIP3   OH254568   2.918   4.926   0.318 -0.0552  0.1301 -0.0603
11026TIP3    H154569   2.984   4.989   0.289  0.4816 -0.4210 -0.0507
11026TIP3    H254570   2.874   4.969   0.392  1.8714 -0.4278  1.4476
11027TIP3   OH254571   3.701   5.839   0.319  0.1123 -0.2551  0.2870
11027TIP3    H154572   3.633   5.902   0.295  0.8052  1.1758  2.0274
11027TIP3    H254573   3.751   5.882   0.388  0.9683 -2.4710  1.0979
11028TIP3   OH254574   6.481   4.963   1.124  0.0710 -0.3469  0.0407
11028TIP3    H154575   6.389   4.954   1.149  0.0206  1.6520  0.6563
11028TIP3    H254576   6.528   4.965   1.208  0.5616 -0.1690 -0.2382
11029TIP3   OH254577   6.334   2.162  15.383  0.2219  0.3728 -0.1608
11029TIP3    H154578   6.342   2.209  15.300  3.1046 -0.8180 -0.6138
11029TIP3    H254579   6.384   2.215  15.445 -0.3396  0.2714  0.3776
11030TIP3   OH254580   4.747   1.956   1.548  0.3071 -0.1624 -0.7125
11030TIP3    H154581   4.785   1.934   1.633 -2.2758  2.4593  1.2432
11030TIP3    H254582   4.665   1.906   1.544  0.5509 -0.5066 -1.8465
11031TIP3   OH254583   5.981   0.114  12.636  0.0362 -0.1999  0.3538
11031TIP3    H154584   5.951   0.168  12.709 -1.6023  1.0912 -1.2159
11031TIP3    H254585   5.946   0.027  12.656  1.8974 -0.5262  2.4218
11032TIP3   OH254586   5.438   3.718   1.523  0.2295 -0.2423 -0.1391
11032TIP3    H154587   5.474   3.806   1.533 -1.2940  0.4747 -0.8155
11032TIP3    H254588   5.344   3.728   1.537  0.0249 -1.7485 -0.3095
11033TIP3   OH254589   0.326   0.081   3.344 -0.1673  0.3787 -0.0487
11033TIP3    H154590   0.338   0.014   3.276 -0.6710 -2.1677  2.2669
11033TIP3    H254591   0.414   0.103   3.372 -0.0401 -0.9916  0.6931
11034TIP3   OH254592   2.291   3.647  13.888 -0.3410  0.1023 -0.3283
11034TIP3    H154593   2.368   3.702  13.902 -0.8101  0.5213  0.6086
11034TIP3    H254594   2.296   3.580  13.956 -0.5518 -0.1606 -0.5680
11035TIP3   OH254595   4.455   4.416  11.289  0.3178  0.1237 -0.1018
11035TIP3    H154596   4.461   4.386  11.380  0.5121  1.8291  0.4716
11035TIP3    H254597   4.464   4.512  11.295 -0.3262  0.3122 -1.8504
11036TIP3   OH254598   0.743   5.711   2.146 -0.2376 -0.4618 -0.1929
11036TIP3    H154599   0.745   5.693   2.052  2.0110 -2.7067  0.2197
11036TIP3    H254600   0.764   5.627   2.187 -0.0553  0.7328  2.2632
11037TIP3   OH254601   4.563   1.545   1.414 -0.1685  0.1832  0.0284
11037TIP3    H154602   4.501   1.579   1.478  1.0298 -0.7183  1.7014
11037TIP3    H254603   4.531   1.458   1.392  0.5105 -0.2965  0.9192
11038TIP3   OH254604   1.408   5.271   2.106  0.4922  0.5088 -0.5925
11038TIP3    H154605   1.416   5.219   2.186 -1.2487 -1.2195 -1.4983
11038TIP3    H254606   1.386   5.359   2.137 -0.5143 -0.2182  0.8431
11039TIP3   OH254607   5.807   2.580  15.171 -0.2504  0.5349  0.0760
11039TIP3    H154608   5.718   2.595  15.204  0.6357  1.4450  2.1551
11039TIP3    H254609   5.810   2.626  15.088 -1.6558  0.7262  0.1188
11040TIP3   OH254610   0.246   6.783  14.193 -0.1758  0.4576 -0.3254
11040TIP3    H154611   0.231   6.806  14.284  2.2106  1.1937 -0.0873
11040TIP3    H254612   0.189   6.842  14.143 -4.0394 -2.1824  0.7244
11041TIP3   OH254613   5.095   5.158   5.824  0.6034  0.1058  0.1515
11041TIP3    H154614   5.102   5.244   5.866 -0.5740 -0.4004  1.4099
11041TIP3    H254615   5.155   5.103   5.874  2.0651  0.4001 -1.2412
11042TIP3   OH254616   3.795   2.948  10.551  0.0311 -0.5636  0.3173
11042TIP3    H154617   3.870   2.890  10.566 -1.1493 -1.5600  2.4168
11042TIP3    H254618   3.719   2.897  10.575 -1.2113  1.0800 -0.0233
11043TIP3   OH254619   0.457   5.627   2.021  0.3658 -0.2191  0.1247
11043TIP3    H154620   0.520   5.558   2.040 -0.5942 -0.9866  0.5924
11043TIP3    H254621   0.395   5.587   1.960  1.3928  1.1161 -1.8312
11044TIP3   OH254622   0.907   1.843   0.602 -0.2696  0.0321 -0.4509
11044TIP3    H154623   0.903   1.793   0.520 -2.7544 -0.9913  0.2418
11044TIP3    H254624   0.865   1.926   0.582 -2.8332 -1.0450  0.3080
11045TIP3   OH254625   4.830   2.455   6.550  0.2560  0.9253  0.6976
11045TIP3    H154626   4.916   2.498   6.545 -0.2627  2.0851  1.4252
11045TIP3    H254627   4.767   2.528   6.547 -0.7254  0.0509 -0.4190
11046TIP3   OH254628   3.297   4.134   3.011 -0.5730 -0.0752  0.2539
11046TIP3    H154629   3.361   4.154   3.079 -0.1229  0.1015 -0.2160
11046TIP3    H254630   3.230   4.202   3.020  1.4040  2.2812 -1.9183
11047TIP3   OH254631   2.707   5.084  13.906 -0.6092 -0.0510  0.1514
11047TIP3    H154632   2.670   5.170  13.926  0.5104  0.6819 -0.9394
11047TIP3    H254633   2.687   5.031  13.984 -2.9604  0.6388  0.0583
11048TIP3   OH254634   0.602   0.334   5.521  0.0373 -0.1655 -0.2935
11048TIP3    H154635   0.555   0.382   5.452 -2.1209 -1.0844  0.4941
11048TIP3    H254636   0.541   0.265   5.547  1.7525 -1.2255  0.9536
11049TIP3   OH254637   2.875   5.731  14.526 -0.1642 -0.0163  0.6694
11049TIP3    H154638   2.948   5.675  14.499  1.1183  1.0287  1.8886
11049TIP3    H254639   2.916   5.799  14.579 -2.0756  0.4168  1.6171
11050TIP3   OH254640   1.524   6.065   6.569  1.1193  0.5344  0.2985
11050TIP3    H154641   1.445   6.100   6.612  1.4691 -1.7593  2.9333
11050TIP3    H254642   1.494   5.985   6.527  1.7566  0.4306  0.0412
11051TIP3   OH254643   6.094   0.030   3.283  0.3372  0.1853 -0.3131
11051TIP3    H154644   6.062  -0.060   3.289  0.8154 -0.0341 -1.0100
11051TIP3    H254645   6.189   0.021   3.281  0.3786  0.6982 -0.5368
11052TIP3   OH254646   3.901   0.311  14.871  0.5901  0.4414  0.1879
11052TIP3    H154647   3.880   0.258  14.948  0.2681  0.7228  0.2912
11052TIP3    H254648   3.987   0.279  14.843 -0.1620 -1.0132 -0.4984
11053TIP3   OH254649   1.870   4.837   0.304  0.1792  0.0875  0.0490
11053TIP3    H154650   1.825   4.808   0.224 -0.3065  0.3576  0.2231
11053TIP3    H254651   1.942   4.775   0.315  0.3300  0.1304 -0.6800
11054TIP3   OH254652   0.455   2.002   4.411  0.5632  0.0369  0.0438
11054TIP3    H154653   0.512   2.064   4.457 -0.0967  0.9837 -0.3910
11054TIP3    H254654   0.440   2.043   4.325 -0.8782 -0.1456  0.2045
11055TIP3   OH254655   1.148   5.163   4.427 -0.4053  0.3011 -0.0208
11055TIP3    H154656   1.143   5.258   4.438  0.8044  0.4931 -1.1050
11055TIP3    H254657   1.164   5.150   4.334  2.1783 -0.8629  0.5448
11056TIP3   OH254658   3.063   0.238   2.833 -0.4546 -0.4553 -0.0229
11056TIP3    H154659   2.991   0.280   2.786 -0.1860  1.0419  0.8625
11056TIP3    H254660   3.113   0.194   2.765 -1.7447 -0.8161 -0.7538
11057TIP3   OH254661   5.355   2.351  15.875 -0.5101 -1.0129 -0.6324
11057TIP3    H154662   5.345   2.425  15.936  1.0691 -0.8988 -0.4847
11057TIP3    H254663   5.309   2.279  15.918  0.4355 -0.8867  0.6330
11058TIP3   OH254664   0.044   5.690   5.897  0.2581 -0.1314 -0.1315
11058TIP3    H154665  -0.039   5.732   5.920 -0.3784 -0.6949 -1.3858
11058TIP3    H254666   0.028   5.597   5.910  0.5844 -0.2680 -0.7093
11059TIP3   OH254667   5.433   2.508  13.604 -0.3136  0.1850 -0.2508
11059TIP3    H154668   5.409   2.599  13.590  0.8150  0.3854 -0.9841
11059TIP3    H254669   5.379   2.459  13.542 -0.4523  0.4149 -0.3116
11060TIP3   OH254670   0.458   3.048   5.539 -0.8457 -1.0641 -0.2248
11060TIP3    H154671   0.538   3.023   5.492 -0.8564  1.0143 -1.4099
11060TIP3    H254672   0.388   3.038   5.474 -0.9055  1.5268 -0.5959
11061TIP3   OH254673   4.710   0.393   2.053 -0.3015  0.1679 -0.0855
11061TIP3    H154674   4.695   0.448   2.130  1.3362  1.0056 -0.3332
11061TIP3    H254675   4.754   0.315   2.088 -1.0386 -0.2068  0.0278
11062TIP3   OH254676   5.300   6.199   3.141 -0.1325  0.6747  0.1018
11062TIP3    H154677   5.234   6.219   3.207 -0.1570  0.4417  0.1474
11062TIP3    H254678   5.252   6.160   3.069  0.1219 -0.7651  0.6871
11063TIP3   OH254679   2.324   4.932  12.772  0.3474  0.4435  0.2527
11063TIP3    H154680   2.280   4.874  12.834 -0.8583  1.0279 -0.0429
11063TIP3    H254681   2.415   4.903  12.772 -0.0595 -0.8413  0.7992
11064TIP3   OH254682   6.751   5.027   4.535  0.4620  0.0407  0.1355
11064TIP3    H154683   6.659   5.044   4.550  0.2856 -1.0584  0.3929
11064TIP3    H254684   6.796   5.107   4.562 -0.5074  1.0523 -1.2107
11065TIP3   OH254685   2.372   2.091  15.328  0.1257 -0.1569 -0.1275
11065TIP3    H154686   2.408   2.179  15.331  0.8495 -0.4058 -1.0253
11065TIP3    H254687   2.422   2.042  15.394 -0.5152  0.1828  0.6168
11066TIP3   OH254688   3.669   2.365   4.147 -0.2154  0.2339  0.9081
11066TIP3    H154689   3.573   2.367   4.140 -0.2115  2.3191  1.2912
11066TIP3    H254690   3.700   2.398   4.063  0.1525  0.6530  1.2086
11067TIP3   OH254691   5.520   5.815  17.160  0.0336 -0.1490  0.1186
11067TIP3    H154692   5.454   5.771  17.107  0.0857 -0.8718  0.6394
11067TIP3    H254693   5.522   5.904  17.127 -0.1329 -0.5144 -0.9018
11068TIP3   OH254694   4.000   1.767   5.747 -0.5627  0.3120 -0.8368
11068TIP3    H154695   4.055   1.820   5.804  0.8524 -0.4116 -1.4877
11068TIP3    H254696   3.981   1.823   5.672 -0.6506  0.5531 -0.6311
11069TIP3   OH254697   1.342   4.401  16.190  0.0149  0.2531  0.4791
11069TIP3    H154698   1.377   4.440  16.271  2.6163  2.2980 -1.5350
11069TIP3    H254699   1.400   4.327  16.173 -0.4228 -0.0663  0.3719
11070TIP3   OH254700   2.025   4.170   6.968  0.6246  0.0382  0.1008
11070TIP3    H154701   1.941   4.201   7.000  1.0123  0.3177  0.8759
11070TIP3    H254702   2.028   4.195   6.876 -1.1292 -2.0297 -0.5708
11071TIP3   OH254703   2.154   5.763   5.437 -0.0598  0.6094 -0.2353
11071TIP3    H154704   2.242   5.781   5.471 -0.4946 -0.2038  1.4032
11071TIP3    H254705   2.097   5.820   5.488 -0.3233  2.5410 -2.6135
11072TIP3   OH254706   5.126   4.988   3.371  0.0153 -0.5388  0.3639
11072TIP3    H154707   5.083   4.929   3.433 -0.3727 -1.5901 -0.9051
11072TIP3    H254708   5.212   4.948   3.356  0.2315 -0.1132  0.4575
11073TIP3   OH254709   6.563   4.257   3.277 -0.1514  0.3119  0.0124
11073TIP3    H154710   6.650   4.220   3.293  0.4229 -0.3495 -3.9561
11073TIP3    H254711   6.506   4.181   3.269 -0.4522  0.5997 -0.5970
11074TIP3   OH254712   1.146   4.585  15.286 -0.0204  0.8903 -0.1361
11074TIP3    H154713   1.076   4.649  15.275 -0.2771  0.7745  0.7841
11074TIP3    H254714   1.215   4.613  15.226  0.2357  2.5347  0.8997
11075TIP3   OH254715   4.380   2.652   5.598  0.1294  0.0380  0.0769
11075TIP3    H154716   4.376   2.629   5.691 -0.3364 -0.4219 -0.0606
11075TIP3    H254717   4.398   2.746   5.598  0.2562  0.0171  0.6314
11076TIP3   OH254718   4.305   4.454   1.624 -0.4910 -0.1557  0.7176
11076TIP3    H154719   4.348   4.539   1.633 -0.5568  0.0596 -0.8344
11076TIP3    H254720   4.212   4.473   1.637 -0.3886 -0.1696  1.4500
11077TIP3   OH254721   2.973   2.098  16.653  0.6300  0.1303  0.1620
11077TIP3    H154722   2.889   2.054  16.667  0.4555 -0.3027 -2.0046
11077TIP3    H254723   3.031   2.028  16.621  0.5936  1.2573 -2.4998
11078TIP3   OH254724   1.546   3.727   3.927  0.3899  1.0428  0.1049
11078TIP3    H154725   1.627   3.754   3.884  1.8364 -1.0153  1.4714
11078TIP3    H254726   1.552   3.764   4.015  1.6642 -2.2881  1.4774
11079TIP3   OH254727   3.619   3.958  12.322  0.0996  0.1392  0.0928
11079TIP3    H154728   3.581   4.036  12.280  2.2658  0.7456 -0.7902
11079TIP3    H254729   3.619   3.979  12.415 -0.8505  0.5135  0.0151
11080TIP3   OH254730   1.089   2.388   0.378 -0.1951 -0.0860 -0.2697
11080TIP3    H154731   1.034   2.361   0.451 -1.1998  3.1998  0.2999
11080TIP3    H254732   1.168   2.423   0.420  0.1739 -0.2200 -0.8525
11081TIP3   OH254733   3.500   6.696  11.153 -0.9099 -0.2081  0.2206
11081TIP3    H154734   3.527   6.694  11.245  0.0383 -0.6200 -0.0632
11081TIP3    H254735   3.453   6.614  11.140  4.8758 -3.4939 -1.4196
11082TIP3   OH254736   5.556   0.966   2.005 -0.3215 -0.3164 -0.1937
11082TIP3    H154737   5.485   0.932   1.951 -0.4765 -0.1844 -0.0750
11082TIP3    H254738   5.621   0.997   1.942 -0.0593 -1.0685 -0.3049
11083TIP3   OH254739   0.832   2.340  17.039 -0.0005  0.3635  0.2280
11083TIP3    H154740   0.788   2.315  17.120 -0.4610 -0.2476 -0.2059
11083TIP3    H254741   0.776   2.406  16.999 -2.9213 -3.5799 -2.5535
11084TIP3   OH254742   1.539   0.323   3.463 -0.3139 -0.2467  0.2991
11084TIP3    H154743   1.510   0.386   3.397 -0.4858 -0.7655 -0.1250
11084TIP3    H254744   1.532   0.238   3.419 -2.4091 -0.8207  1.6343
11085TIP3   OH254745   3.168   1.360   4.709 -0.3068  0.4790  0.5279
11085TIP3    H154746   3.178   1.338   4.801  1.4300  3.2802  1.0745
11085TIP3    H254747   3.085   1.407   4.704 -0.2901  0.5281  0.7160
11086TIP3   OH254748   2.159   6.501  14.613  0.3708  0.0306 -0.5524
11086TIP3    H154749   2.237   6.448  14.591  0.7346  0.6602 -0.7911
11086TIP3    H254750   2.089   6.437  14.621  1.3137 -0.7668  1.6261
11087TIP3   OH254751   3.525   1.446   3.958 -0.1042  0.4360 -0.1587
11087TIP3    H154752   3.557   1.525   4.001  0.7306 -0.8795  1.7331
11087TIP3    H254753   3.437   1.433   3.995 -0.0693  0.2567 -0.1374
11088TIP3   OH254754   1.924   0.070   3.079 -0.4912  0.3419 -0.4896
11088TIP3    H154755   1.831   0.093   3.087 -0.4028  0.3831  0.4519
11088TIP3    H254756   1.926  -0.025   3.090 -0.4413  0.3259 -0.6456
11089TIP3   OH254757   0.691   3.806   1.241 -0.2869  0.4820 -0.2859
11089TIP3    H154758   0.609   3.755   1.245  0.7135 -1.0361  2.0219
11089TIP3    H254759   0.693   3.854   1.324  1.1431  0.5220 -0.3365
11090TIP3   OH254760   5.040   3.842  10.784 -0.0377  0.0818  0.0830
11090TIP3    H154761   5.125   3.886  10.778 -0.3286  0.6587  0.2169
11090TIP3    H254762   5.000   3.878  10.863  0.6990 -2.1300  1.5195
11091TIP3   OH254763   0.767   2.954  13.146 -0.1709 -0.4991 -0.2041
11091TIP3    H154764   0.858   2.969  13.171 -0.6308  1.5543  0.3022
11091TIP3    H254765   0.732   2.898  13.216  0.1478  0.3839  0.6659
11092TIP3   OH254766   5.419   3.922   0.253  0.2076 -0.6444  0.1122
11092TIP3    H154767   5.477   3.919   0.329 -0.6598  0.9424  0.8855
11092TIP3    H254768   5.455   3.992   0.198 -1.0643  0.5339  0.7250
11093TIP3   OH254769   5.499   4.129   5.938  0.0334  0.4307 -0.1364
11093TIP3    H154770   5.495   4.101   5.847 -1.3962  1.1943 -0.3102
11093TIP3    H254771   5.455   4.213   5.940 -0.8402 -0.0442  1.4306
11094TIP3   OH254772   1.453   3.282  11.471  0.4493 -0.0084 -0.2185
11094TIP3    H154773   1.426   3.288  11.380 -0.4901  2.5164  0.2009
11094TIP3    H254774   1.382   3.321  11.521  1.7330  0.2716  1.4605
11095TIP3   OH254775   1.281   1.619  11.211  0.1643 -0.1407 -0.0574
11095TIP3    H154776   1.207   1.587  11.159 -0.6883  1.4095  0.1641
11095TIP3    H254777   1.318   1.690  11.159  0.0982  0.5720  0.8532
11096TIP3   OH254778   3.891   3.660  11.533  0.2304 -0.0587  0.2779
11096TIP3    H154779   3.951   3.597  11.573 -0.5416  0.6073  2.6141
11096TIP3    H254780   3.835   3.608  11.476  1.0816 -1.1365  0.4088
11097TIP3   OH254781   3.451   4.100   0.414  0.1499 -0.3608  0.7809
11097TIP3    H154782   3.504   4.085   0.492 -0.9823  1.3085  1.8966
11097TIP3    H254783   3.472   4.189   0.387 -0.8898 -0.2486  0.3217
11098TIP3   OH254784   6.104   6.027   2.889 -0.3202 -0.1593 -0.0988
11098TIP3    H154785   6.126   5.952   2.834 -0.5405  0.3309 -0.8700
11098TIP3    H254786   6.041   5.993   2.953 -1.0793 -0.4472 -0.9839
11099TIP3   OH254787   5.210   3.824  13.979  0.4318 -0.5556  0.0943
11099TIP3    H154788   5.169   3.740  13.999 -0.4648  0.0227  0.7135
11099TIP3    H254789   5.196   3.836  13.885 -1.9414  0.2021  0.5068
11100TIP3   OH254790   5.256   2.259   1.454  0.1288 -0.0650 -0.0320
11100TIP3    H154791   5.179   2.201   1.452  0.3204 -0.3245  0.1487
11100TIP3    H254792   5.225   2.340   1.413 -0.7559  0.4798  1.6723
11101TIP3   OH254793   4.109   0.457   0.249 -0.2192 -0.3700 -0.0703
11101TIP3    H154794   4.017   0.431   0.248 -0.3161 -0.0420  0.1260
11101TIP3    H254795   4.107   0.551   0.234  0.2455 -0.7573 -2.7864
11102TIP3   OH254796   3.348   1.447  16.412 -0.4577 -0.4502  0.4475
11102TIP3    H154797   3.371   1.484  16.326  0.3090 -0.0697  0.8065
11102TIP3    H254798   3.330   1.524  16.466 -0.5615 -0.6737  0.7291
11103TIP3   OH254799   1.595   1.787  15.089 -0.1113  0.2865  0.0856
11103TIP3    H154800   1.515   1.736  15.076 -0.7046  1.0571  0.6743
11103TIP3    H254801   1.610   1.831  15.006 -0.3802  0.2501  0.0169
11104TIP3   OH254802   5.593   1.852  14.740  0.2315  0.9684  0.2266
11104TIP3    H154803   5.635   1.853  14.826 -2.0876  0.9203  1.4108
11104TIP3    H254804   5.524   1.918  14.746 -2.2030 -1.4514 -0.4136
11105TIP3   OH254805   5.355   1.898   6.133 -0.7388  0.4417  0.5019
11105TIP3    H154806   5.259   1.896   6.134 -0.7239 -2.3390  0.2568
11105TIP3    H254807   5.381   1.841   6.205  0.6906 -1.3033 -1.3280
11106TIP3   OH254808   6.655   1.475  12.741 -0.3807 -0.2499  0.1676
11106TIP3    H154809   6.706   1.402  12.776 -1.4142 -1.1186 -0.1042
11106TIP3    H254810   6.682   1.550  12.792  0.0269 -1.0093  1.0802
11107TIP3   OH254811   5.213   1.162  15.535  0.0617  0.2591 -0.2529
11107TIP3    H154812   5.283   1.097  15.527 -0.5076 -0.5437  1.0596
11107TIP3    H254813   5.159   1.148  15.457 -0.1059 -0.9213  0.0581
11108TIP3   OH254814   3.333   3.476   4.114  0.1176 -0.4474 -0.0282
11108TIP3    H154815   3.415   3.505   4.073  0.7363  2.3877  3.0093
11108TIP3    H254816   3.276   3.552   4.107 -1.2617 -1.4229  0.4833
11109TIP3   OH254817   6.495   4.937  14.812 -0.1383  0.8485  0.3697
11109TIP3    H154818   6.405   4.956  14.785 -0.3777  0.4833  0.8922
11109TIP3    H254819   6.501   4.842  14.809  0.6064  0.9311 -0.8274
11110TIP3   OH254820   0.256   6.801  16.571 -0.1143 -0.3151  0.1145
11110TIP3    H154821   0.304   6.868  16.619 -1.9201  0.5913  0.7251
11110TIP3    H254822   0.268   6.823  16.479  0.3378  0.0954  0.2730
11111TIP3   OH254823   3.195   5.204  15.296 -0.0319 -0.0788 -0.7874
11111TIP3    H154824   3.275   5.185  15.345  1.0880  3.0283 -1.3362
11111TIP3    H254825   3.141   5.253  15.357 -1.1050 -1.2239 -0.7890
11112TIP3   OH254826   3.993   2.655   3.088  0.0557  0.0201 -0.4638
11112TIP3    H154827   3.935   2.668   3.164 -0.5506 -1.2934 -0.6966
11112TIP3    H254828   4.081   2.651   3.126 -0.3099 -1.3800  0.2645
11113TIP3   OH254829   4.684   3.061  13.981 -0.2717  0.1065 -0.4045
11113TIP3    H154830   4.669   3.088  14.072  0.1612  0.4749 -0.4394
11113TIP3    H254831   4.682   2.965  13.984  1.0603  0.0922  0.2206
11114TIP3   OH254832   3.806   4.221   5.161  0.4171  0.2826  0.3590
11114TIP3    H154833   3.719   4.254   5.184 -0.3399 -1.5558  0.2336
11114TIP3    H254834   3.830   4.163   5.233  0.2299 -1.5221 -0.9759
11115TIP3   OH254835   2.133   0.925  12.466  0.0146 -0.5832  0.0719
11115TIP3    H154836   2.117   0.965  12.381  0.2000 -0.7053 -0.0182
11115TIP3    H254837   2.048   0.887  12.491 -0.8615  2.1008  1.3387
11116TIP3   OH254838   1.917   3.173  17.007  0.2764  0.4546 -0.4801
11116TIP3    H154839   1.855   3.162  17.080 -2.4908  2.6476 -2.3789
11116TIP3    H254840   1.975   3.243  17.036 -0.7941  1.3022 -0.3432
11117TIP3   OH254841   5.139   1.448   2.961 -0.2215  1.0719 -0.0648
11117TIP3    H154842   5.084   1.523   2.940 -2.0180 -0.8549 -2.6113
11117TIP3    H254843   5.200   1.441   2.888 -0.0802  0.0412  0.1386
11118TIP3   OH254844   4.238   5.641   5.770  0.1400  0.0286 -0.1116
11118TIP3    H154845   4.293   5.718   5.755 -0.0372  0.3563  0.8534
11118TIP3    H254846   4.173   5.670   5.835 -0.5712 -0.6337 -0.5162
11119TIP3   OH254847   1.061   6.408  17.001  1.3431  0.5599  0.2044
11119TIP3    H154848   0.976   6.441  17.030  1.1931 -0.2694  0.7236
11119TIP3    H254849   1.057   6.314  17.019  2.0583  0.3857 -0.5355
11120TIP3   OH254850   0.180   5.772  15.365 -0.6559  0.3190 -0.7535
11120TIP3    H154851   0.170   5.766  15.270  0.1744 -3.5115 -0.6873
11120TIP3    H254852   0.274   5.780  15.380 -0.7258  0.2500 -0.2422
11121TIP3   OH254853   5.469   0.437   4.771  0.6497  0.0845  0.4700
11121TIP3    H154854   5.531   0.491   4.820  0.1074  0.7894  0.3812
11121TIP3    H254855   5.510   0.424   4.685  0.8974  0.1313  0.5824
11122TIP3   OH254856   4.219   4.698  13.714  0.4328 -0.5855  0.0800
11122TIP3    H154857   4.214   4.793  13.702 -2.2163 -0.7444 -0.4152
11122TIP3    H254858   4.236   4.687  13.808  0.3101  0.3766  0.2224
11123TIP3   OH254859   1.660   5.900   1.456 -0.1861 -0.2314 -0.0360
11123TIP3    H154860   1.644   5.908   1.362 -0.3855  0.4851  0.0627
11123TIP3    H254861   1.576   5.871   1.492 -0.2067 -0.1577 -0.0263
11124TIP3   OH254862   4.994   2.586   0.182 -0.1780 -0.3702 -0.3493
11124TIP3    H154863   5.064   2.534   0.222 -0.1239 -1.3523 -1.6883
11124TIP3    H254864   5.026   2.676   0.186 -0.4733 -0.3451  2.4112
11125TIP3   OH254865   5.207   5.436  16.156  0.2750  0.2373 -0.0293
11125TIP3    H154866   5.147   5.453  16.083 -0.8090 -0.0676  0.7820
11125TIP3    H254867   5.294   5.459  16.121 -0.2313  0.1108 -1.4063
11126TIP3   OH254868   6.158   6.431   6.823 -0.4695 -0.3396 -0.3795
11126TIP3    H154869   6.225   6.364   6.809  1.1623  1.3162 -0.7267
11126TIP3    H254870   6.080   6.382   6.849  0.6223 -2.3779 -0.8290
11127TIP3   OH254871   5.535   1.697   4.019 -0.3445  0.0599  0.1222
11127TIP3    H154872   5.501   1.753   3.949  0.1122 -0.4944 -0.5420
11127TIP3    H254873   5.584   1.757   4.076  0.7327  0.2116 -0.9609
11128TIP3   OH254874   1.853   5.757   3.031 -0.3053 -0.1413 -0.2173
11128TIP3    H154875   1.943   5.786   3.049 -0.2382 -0.6192  0.2096
11128TIP3    H254876   1.846   5.764   2.935 -0.5246  1.9477 -0.0682
11129TIP3   OH254877   4.730   1.382  14.303  0.2308  0.2348  0.0393
11129TIP3    H154878   4.805   1.390  14.363 -0.0485 -1.8346  0.6839
11129TIP3    H254879   4.759   1.320  14.237 -0.1549  1.0837 -0.9449
11130TIP3   OH254880   5.600   1.043   0.340 -0.0177  0.7009  0.1236
11130TIP3    H154881   5.667   1.037   0.408 -0.0613  1.1111  0.2046
11130TIP3    H254882   5.534   1.103   0.377 -0.4384  0.2890  0.0562
11131TIP3   OH254883   5.116   2.593  15.848 -0.4065  0.8457  0.5269
11131TIP3    H154884   5.118   2.609  15.753 -1.0989  0.2423  0.4019
11131TIP3    H254885   5.046   2.529  15.859  0.4409  0.0565  1.3289
11132TIP3   OH254886   2.916   6.564   4.566 -0.3767 -0.4635  0.0796
11132TIP3    H154887   2.891   6.486   4.516  1.9319  0.0625 -2.0115
11132TIP3    H254888   2.934   6.532   4.654  0.3945 -2.2884 -0.7214
11133TIP3   OH254889   4.957   4.508   4.445  0.1425 -0.6008  0.4680
11133TIP3    H154890   4.878   4.561   4.461  0.6025  0.9076 -2.0699
11133TIP3    H254891   5.012   4.524   4.522 -1.1133  0.0191  1.2618
11134TIP3   OH254892   6.518   4.084   4.764  0.0465 -0.7209  0.7096
11134TIP3    H154893   6.597   4.038   4.735  0.8319  0.5179  0.8455
11134TIP3    H254894   6.481   4.121   4.683  0.5613  0.1571  0.8708
11135TIP3   OH254895   4.614   3.173   5.150  0.0571 -0.0084  0.1165
11135TIP3    H154896   4.604   3.112   5.222 -0.2879  1.8024  1.6599
11135TIP3    H254897   4.525   3.184   5.115 -0.1981  0.9844  1.0370
11136TIP3   OH254898   3.801   0.001   1.987 -0.1326 -0.0641  0.2505
11136TIP3    H154899   3.776  -0.038   2.071  0.7655  0.7367  0.9053
11136TIP3    H254900   3.773   0.092   1.994  1.8360  0.5444  0.5344
11137TIP3   OH254901   5.929   3.666   2.803 -0.2111 -1.2468 -0.1234
11137TIP3    H154902   5.840   3.642   2.776  0.1382 -1.8364 -0.7429
11137TIP3    H254903   5.975   3.682   2.721 -0.3968  1.4499  0.2283
11138TIP3   OH254904   0.956   2.413   1.381 -0.3984 -0.2001  0.4335
11138TIP3    H154905   0.921   2.336   1.426 -0.1883 -0.3512  0.3370
11138TIP3    H254906   0.882   2.474   1.377 -1.2362 -1.3112 -1.5709
11139TIP3   OH254907   1.096   2.142  16.284  0.3922  0.0939 -0.5491
11139TIP3    H154908   1.120   2.205  16.216  1.7275  0.0300 -0.1468
11139TIP3    H254909   1.155   2.068  16.269 -0.4531 -0.6167 -0.3593
11140TIP3   OH254910   0.377   1.564  15.411 -0.3269 -0.3796 -0.2860
11140TIP3    H154911   0.374   1.512  15.492 -1.7140 -1.2697 -0.8786
11140TIP3    H254912   0.316   1.636  15.426  0.6022  0.3502  0.0392
11141TIP3   OH254913   4.259   1.179  15.047  0.3849 -0.8490  0.5008
11141TIP3    H154914   4.183   1.228  15.077  0.2823 -1.0723  0.6095
11141TIP3    H254915   4.287   1.129  15.124  0.2203 -1.2965  0.2682
11142TIP3   OH254916   6.190   4.182   3.976  0.2145  0.1618 -0.7076
11142TIP3    H154917   6.105   4.204   4.014 -0.4971 -0.6824 -1.7729
11142TIP3    H254918   6.168   4.129   3.899  1.7591 -1.2019 -0.2171
11143TIP3   OH254919   4.609   0.595   4.308 -0.2859  0.2733  0.2224
11143TIP3    H154920   4.640   0.507   4.291 -1.5643 -0.5523  2.0073
11143TIP3    H254921   4.615   0.640   4.223 -1.5803 -2.1411 -1.1885
11144TIP3   OH254922   6.618   0.294   1.484  0.2531 -0.3475 -0.0136
11144TIP3    H154923   6.607   0.386   1.458  0.4982 -1.1045 -2.9042
11144TIP3    H254924   6.532   0.255   1.470  0.9017 -1.2260 -1.6720
11145TIP3   OH254925   4.198   0.919   2.988 -0.1467 -0.0526  0.6212
11145TIP3    H154926   4.128   0.984   2.975  1.0626  1.2879  0.6820
11145TIP3    H254927   4.172   0.872   3.067  0.1348  1.9851  1.9752
11146TIP3   OH254928   4.481   6.142   0.256  0.4757  0.3350  0.7843
11146TIP3    H154929   4.537   6.066   0.272  1.5644  0.7494 -0.8845
11146TIP3    H254930   4.524   6.189   0.185 -1.1653  1.5303  0.5376
11147TIP3   OH254931   0.197   6.616   6.868  0.4961 -0.6191 -0.0253
11147TIP3    H154932   0.191   6.564   6.788  0.5054 -2.5491  1.2116
11147TIP3    H254933   0.220   6.553   6.936 -1.0309  0.7511  1.7911
11148TIP3   OH254934   2.270   5.223  14.885 -0.8531  0.2034  0.3220
11148TIP3    H154935   2.246   5.275  14.808 -1.4978 -3.3811 -2.0178
11148TIP3    H254936   2.187   5.210  14.931 -0.4310  2.5454  1.8199
11149TIP3   OH254937   6.278   0.022  11.108 -0.1267 -0.1386  0.0601
11149TIP3    H154938   6.201  -0.022  11.070  0.3396 -0.7661 -0.1575
11149TIP3    H254939   6.313   0.075  11.036 -0.7546  0.6951  0.3519
11150TIP3   OH254940   1.579   2.009   5.291  0.4706  0.3414  0.0815
11150TIP3    H154941   1.614   1.941   5.348 -0.6797  0.3240  0.7991
11150TIP3    H254942   1.582   1.971   5.203 -0.7479 -0.9096  0.5525
11151TIP3   OH254943   6.774   3.706   1.991  0.7763  0.6313 -0.5745
11151TIP3    H154944   6.802   3.715   2.082 -0.3505  1.5570 -0.3079
11151TIP3    H254945   6.681   3.728   1.992 -0.0160 -2.3932 -1.4386
11152TIP3   OH254946   1.043   5.792  12.743 -0.5207  0.0110  0.6263
11152TIP3    H154947   1.117   5.845  12.712 -0.8525 -0.0058 -0.2075
11152TIP3    H254948   0.979   5.797  12.672 -0.3159 -2.0124  0.2762
11153TIP3   OH254949   2.582   4.347   5.294  0.1134 -0.4275 -0.2986
11153TIP3    H154950   2.647   4.279   5.280  0.1176 -0.4905  0.0194
11153TIP3    H254951   2.629   4.416   5.342  0.5534  0.5205 -2.0622
11154TIP3   OH254952   0.709   0.519   4.871  0.0878 -0.2860  0.0691
11154TIP3    H154953   0.660   0.567   4.939 -1.2422 -1.9894  0.3680
11154TIP3    H254954   0.796   0.505   4.909 -1.0306 -2.3628  2.0510
11155TIP3   OH254955   5.020   0.161  14.982  0.3375 -0.1924  0.2724
11155TIP3    H154956   4.938   0.201  15.014 -0.8174 -1.4362 -1.0620
11155TIP3    H254957   5.020   0.178  14.888  2.2522  0.8705  0.4543
11156TIP3   OH254958   3.905   0.271  13.304 -0.4318  0.2759 -0.0271
11156TIP3    H154959   3.841   0.234  13.366 -0.9327  0.3499 -0.4911
11156TIP3    H254960   3.860   0.347  13.266 -0.4133 -0.2060 -1.0232
11157TIP3   OH254961   2.347   0.086   2.109  0.5856 -0.0648  0.7100
11157TIP3    H154962   2.416   0.025   2.085  2.4878  1.7835  1.3868
11157TIP3    H254963   2.284   0.080   2.036  1.9783 -0.9438 -0.4589
11158TIP3   OH254964   0.294   2.813  13.515  0.0958 -0.6033 -0.3626
11158TIP3    H154965   0.288   2.842  13.606 -0.0170 -1.5215 -0.0681
11158TIP3    H254966   0.235   2.871  13.467 -0.4045 -0.5857  0.2675
11159TIP3   OH254967   6.820   2.772  17.205 -0.1762 -0.1075  0.1881
11159TIP3    H154968   6.841   2.729  17.121  1.5202 -0.7528  0.9203
11159TIP3    H254969   6.747   2.720  17.240 -1.5583  0.7492 -1.3136
11160TIP3   OH254970   1.610   0.893  15.816 -0.7665  0.2108  0.0271
11160TIP3    H154971   1.671   0.932  15.753 -1.4276 -1.3586 -1.6515
11160TIP3    H254972   1.650   0.908  15.901  1.4434  0.1660 -0.9605
11161TIP3   OH254973   0.682   3.588   3.458  0.2958 -0.4542 -0.0292
11161TIP3    H154974   0.712   3.535   3.532  1.5579  1.4645  0.8638
11161TIP3    H254975   0.595   3.619   3.484  0.5272 -0.1969  0.4309
11162TIP3   OH254976   3.721   3.975   1.950 -0.1759  0.7817 -0.0925
11162TIP3    H154977   3.684   3.893   1.919  1.0592 -0.0638  0.6256
11162TIP3    H254978   3.806   3.981   1.905  0.0228  1.3304  0.3509
11163TIP3   OH254979   4.938   0.961   5.238  0.3811 -0.0308  0.0352
11163TIP3    H154980   4.941   0.866   5.236 -3.0405 -0.3010  2.3291
11163TIP3    H254981   4.980   0.989   5.157  0.8752 -3.4827 -0.9666
11164TIP3   OH254982   2.510   3.922   2.944  0.3955 -0.0120  0.1198
11164TIP3    H154983   2.550   4.008   2.931  0.2055  0.1154  0.3810
11164TIP3    H254984   2.492   3.890   2.855  0.3147  0.2876  0.0281
11165TIP3   OH254985   6.648   5.396   3.435 -0.0829  0.2787  0.2158
11165TIP3    H154986   6.717   5.348   3.482 -0.7474  0.2379  1.1715
11165TIP3    H254987   6.638   5.477   3.485 -0.9390  0.1470  0.2685
11166TIP3   OH254988   1.686   5.670   4.788  0.5066 -0.2978  0.2502
11166TIP3    H154989   1.654   5.585   4.758  0.5545 -0.9652  2.0199
11166TIP3    H254990   1.714   5.654   4.878  0.8791  1.5098  0.4642
11167TIP3   OH254991   3.352   0.685  12.790  0.3904 -0.3334 -0.6356
11167TIP3    H154992   3.297   0.664  12.715  0.1484 -2.1880  0.0462
11167TIP3    H254993   3.342   0.780  12.801 -1.2701 -0.3787 -1.6014
11168TIP3   OH254994   3.884   5.091   0.221  0.1847 -0.4202 -0.7939
11168TIP3    H154995   3.921   5.141   0.294 -1.4314  0.1592 -0.3592
11168TIP3    H254996   3.924   5.130   0.143  1.0326 -0.2829 -0.3027
11169TIP3   OH254997   2.589   2.807   0.875  0.1946 -0.7483  0.2432
11169TIP3    H154998   2.576   2.822   0.782 -0.0413  0.1290  0.4180
11169TIP3    H254999   2.678   2.773   0.882  1.0709  1.4373 -0.0563
11170TIP3   OH255000   3.269   2.369  12.561  0.4504  0.1956  0.4548
11170TIP3    H155001   3.262   2.278  12.531  1.2704  0.1662  0.3373
11170TIP3    H255002   3.337   2.366  12.628 -0.0481  0.5946  0.9758
11171TIP3   OH255003   4.274   6.332   0.223 -0.2623 -0.1840 -0.1409
11171TIP3    H155004   4.338   6.261   0.214 -0.7252 -0.5022 -0.9575
11171TIP3    H255005   4.263   6.343   0.318 -1.5084 -2.4098  0.0101
11172TIP3   OH255006   4.930   0.077  11.486  0.1746  0.6674 -0.4880
11172TIP3    H155007   4.960   0.103  11.399  2.2544 -3.6048 -1.1585
11172TIP3    H255008   4.837   0.057  11.474  0.5037 -0.1255 -1.7903
11173TIP3   OH255009   4.508   0.899   1.721  0.0918 -0.1467  0.5142
11173TIP3    H155010   4.529   0.990   1.742  0.4902 -0.5682  2.0488
11173TIP3    H255011   4.466   0.865   1.800  2.7389 -2.1573  1.1348
11174TIP3   OH255012   6.114   0.788  14.952  0.6780  0.0071  0.1294
11174TIP3    H155013   6.042   0.757  14.897  1.2498  0.2012 -0.7246
11174TIP3    H255014   6.074   0.857  15.006  0.1432 -0.1165 -0.1016
11175TIP3   OH255015   0.711   4.170   2.988 -0.1776  0.2316 -0.2369
11175TIP3    H155016   0.729   4.219   3.068 -1.6977  0.5471 -0.0846
11175TIP3    H255017   0.701   4.080   3.016  0.3453  0.1713 -0.2265
11176TIP3   OH255018   6.260   2.396   1.077 -0.7327  0.4010 -0.1590
11176TIP3    H155019   6.301   2.397   0.990 -0.6592  0.5802 -0.1227
11176TIP3    H255020   6.194   2.327   1.071 -1.8159  1.4831 -0.8455
11177TIP3   OH255021   3.223   6.262   0.773  0.6948 -0.6796 -0.2013
11177TIP3    H155022   3.271   6.317   0.711  0.4462  1.7794  1.6771
11177TIP3    H255023   3.285   6.246   0.844 -0.1273 -0.4212  0.5876
11178TIP3   OH255024   3.565   4.359   3.699  0.5041 -0.6234  0.6590
11178TIP3    H155025   3.509   4.281   3.696 -1.2659  0.5966  1.1522
11178TIP3    H255026   3.538   4.404   3.779  1.1697  0.7554  0.1173
11179TIP3   OH255027   3.301   2.050   4.098  0.2003 -0.4548 -0.2817
11179TIP3    H155028   3.391   2.026   4.122  0.3038  1.9370  1.9627
11179TIP3    H255029   3.247   2.012   4.168 -0.4404 -0.8058 -0.9502
11180TIP3   OH255030   1.493   0.557  10.786  0.4242  0.1249 -0.2188
11180TIP3    H155031   1.529   0.598  10.865  2.5898  0.5504 -1.3905
11180TIP3    H255032   1.570   0.535  10.734 -0.9190 -1.5345 -1.5437
11181TIP3   OH255033   1.768   5.503  14.351  0.6345 -0.4343 -0.5496
11181TIP3    H155034   1.832   5.464  14.292  0.5125 -0.8826 -0.3886
11181TIP3    H255035   1.778   5.455  14.433  0.6011 -0.0113 -0.2963
11182TIP3   OH255036   0.946   4.669   4.819  0.0433  0.2690 -0.4426
11182TIP3    H155037   0.993   4.629   4.893  0.7877  2.2020  0.1712
11182TIP3    H255038   0.933   4.598   4.757  2.4204 -0.6865  0.0873
11183TIP3   OH255039   4.720   6.682   0.837 -0.7289  0.0972  0.2004
11183TIP3    H155040   4.751   6.710   0.751 -0.0170 -2.0594 -0.2779
11183TIP3    H255041   4.624   6.679   0.828 -0.7519  1.3451 -0.0368
11184TIP3   OH255042   2.731   4.698  16.286 -0.3147  0.0230  0.3662
11184TIP3    H155043   2.786   4.720  16.210 -0.2910  4.6885  1.5716
11184TIP3    H255044   2.658   4.759  16.281  0.1384  1.0870  4.5155
11185TIP3   OH255045   1.598   2.486   0.529 -0.3205  0.2090 -0.1114
11185TIP3    H155046   1.615   2.403   0.486 -1.8840 -0.8863  1.3396
11185TIP3    H255047   1.665   2.545   0.494  1.1486 -1.7863 -0.7447
11186TIP3   OH255048   4.484   5.676   1.856 -0.0324  0.2818  0.0587
11186TIP3    H155049   4.395   5.654   1.831  0.3402 -0.3452 -0.7150
11186TIP3    H255050   4.491   5.645   1.947 -0.2474 -0.6990 -0.2499
11187TIP3   OH255051   1.473   3.331  14.753  0.6580  0.4895 -0.0415
11187TIP3    H155052   1.560   3.370  14.742  1.2241 -0.1789  1.8647
11187TIP3    H255053   1.438   3.326  14.664  2.0513  1.9349 -0.7014
11188TIP3   OH255054   0.793   3.360   5.055  0.2373  0.4499  0.4718
11188TIP3    H155055   0.876   3.314   5.057  0.8966  1.5323 -0.9072
11188TIP3    H255056   0.739   3.309   4.995  0.5152  0.7293 -0.0186
11189TIP3   OH255057   3.760   3.788  10.490 -0.0682  0.1858  0.4003
11189TIP3    H155058   3.817   3.802  10.566 -1.5744 -3.0010  2.2367
11189TIP3    H255059   3.820   3.773  10.418  1.4265 -0.1033  1.6748
11190TIP3   OH255060   4.862   3.753  14.592 -0.0058 -0.4148 -0.1595
11190TIP3    H155061   4.930   3.747  14.659 -0.0506 -0.5157 -0.1234
11190TIP3    H255062   4.875   3.674  14.539 -0.0061 -0.3642 -0.2356
11191TIP3   OH255063   5.457   1.498  12.083  0.5937  0.1441  0.1568
11191TIP3    H155064   5.441   1.430  12.148 -0.7039  1.1984  0.9595
11191TIP3    H255065   5.392   1.565  12.102 -1.3362 -0.5037 -3.6318
11192TIP3   OH255066   1.384   2.649  11.444 -0.1049  0.2274 -0.2503
11192TIP3    H155067   1.478   2.633  11.458 -0.2862  1.0055  2.2646
11192TIP3    H255068   1.349   2.564  11.419  1.2588 -0.1129 -1.0528
11193TIP3   OH255069   0.768   1.180  13.955 -0.5504 -0.2541  0.1967
11193TIP3    H155070   0.785   1.274  13.960 -0.9533 -0.1876  0.3804
11193TIP3    H255071   0.834   1.141  14.013 -0.1555 -0.1135 -0.1560
11194TIP3   OH255072   2.379   1.079   3.222 -0.1198  0.8233  0.0811
11194TIP3    H155073   2.378   0.986   3.241 -0.4770  1.2491  2.3507
11194TIP3    H255074   2.290   1.098   3.192  0.3666  0.1831 -1.8145
11195TIP3   OH255075   5.045   5.375   0.186  0.2324  0.4342 -0.3233
11195TIP3    H155076   5.134   5.352   0.215 -0.2931 -2.9292 -1.2390
11195TIP3    H255077   4.993   5.375   0.267  0.4869 -0.4191 -0.1591
11196TIP3   OH255078   3.976   2.162   4.124 -0.1806 -0.2396  0.0717
11196TIP3    H155079   3.915   2.222   4.080 -0.5942  0.9789  2.2253
11196TIP3    H255080   4.030   2.219   4.179  0.2732 -1.7080  1.1822
11197TIP3   OH255081   1.131   5.985  11.051 -0.0817 -0.2216 -0.0412
11197TIP3    H155082   1.159   6.001  11.141  1.5082 -0.7751 -0.4100
11197TIP3    H255083   1.039   6.009  11.049 -0.2297 -0.6249  1.8406
11198TIP3   OH255084   0.312   6.307   5.727 -0.5179 -0.2463 -0.1183
11198TIP3    H155085   0.280   6.219   5.748 -1.2377  0.3455  1.3016
11198TIP3    H255086   0.376   6.327   5.796  0.3920 -0.0475 -1.0053
11199TIP3   OH255087   5.211   0.304  13.055  0.1545 -0.3425 -0.2995
11199TIP3    H155088   5.298   0.343  13.056 -0.2420  0.5372  0.5504
11199TIP3    H255089   5.181   0.310  13.146 -0.6640 -0.9348 -0.5241
11200TIP3   OH255090   3.439   4.903   2.845  0.4691 -0.1956 -0.0742
11200TIP3    H155091   3.435   4.812   2.816  0.7400 -0.4666  0.7201
11200TIP3    H255092   3.360   4.915   2.898  0.6997 -0.1300  0.2624
11201TIP3   OH255093   4.824   3.167   3.381  0.1386  0.6577 -0.0634
11201TIP3    H155094   4.866   3.226   3.444  0.1764  0.4942  0.0640
11201TIP3    H255095   4.892   3.105   3.357 -0.5922 -0.8773  1.7164
11202TIP3   OH255096   3.221   2.802  15.633 -0.2993  0.4296  0.0139
11202TIP3    H155097   3.129   2.800  15.608  0.1267  2.0895 -1.8203
11202TIP3    H255098   3.264   2.740  15.573 -0.1830 -0.2548  0.7868
11203TIP3   OH255099   0.977   6.318   3.282 -0.1239 -0.6846 -0.3073
11203TIP3    H155100   0.987   6.393   3.224 -0.0455  0.3845  1.0526
11203TIP3    H255101   0.926   6.352   3.355 -1.6412 -2.4443 -0.5358
11204TIP3   OH255102   0.212   6.761   2.696  0.3600 -0.6373  0.0588
11204TIP3    H155103   0.302   6.736   2.718 -0.2981 -0.4295  3.1796
11204TIP3    H255104   0.207   6.853   2.719  0.0071 -0.0054 -2.4137
11205TIP3   OH255105   2.646   1.264  14.489 -0.2090  0.1995 -0.3523
11205TIP3    H155106   2.639   1.336  14.553 -0.6755  1.4847 -1.8136
11205TIP3    H255107   2.727   1.282  14.441 -0.2775 -0.3137 -0.6640
11206TIP3   OH255108   4.435   4.150  15.263  0.3583 -0.3217 -0.0565
11206TIP3    H155109   4.420   4.209  15.190  1.7761  0.4125  0.2230
11206TIP3    H255110   4.531   4.144  15.269  0.2367 -1.2018  1.0609
11207TIP3   OH255111   3.658   1.315  15.067  0.3528  0.6260  0.0365
11207TIP3    H155112   3.668   1.319  14.971  0.4945  0.2478  0.0309
11207TIP3    H255113   3.729   1.369  15.101  1.2471 -0.4604 -0.0455
11208TIP3   OH255114   5.569   2.836  11.938 -0.7132  0.9706  0.4634
11208TIP3    H155115   5.481   2.808  11.960  0.0445 -2.8895 -0.9207
11208TIP3    H255116   5.573   2.828  11.842  1.0632  1.2714  0.4979
11209TIP3   OH255117   2.824   4.566  15.340 -0.0871  0.7966 -0.8993
11209TIP3    H155118   2.740   4.591  15.377  0.4026  1.1900 -0.0154
11209TIP3    H255119   2.887   4.625  15.383  1.0398 -1.6022  0.8659
11210TIP3   OH255120   0.953   3.241  12.261  0.3251  1.0623 -0.4232
11210TIP3    H155121   0.921   3.322  12.302 -2.5331 -0.9920  1.6527
11210TIP3    H255122   0.879   3.209  12.210  1.0634 -0.7523 -0.3946
11211TIP3   OH255123   3.311   2.566  11.666 -0.4071  0.0555 -0.3270
11211TIP3    H155124   3.358   2.567  11.583  0.4925 -2.0115  0.1180
11211TIP3    H255125   3.375   2.597  11.730 -0.7581  0.5927 -0.2298
11212TIP3   OH255126   3.986   0.108  15.682  0.0110 -0.0554 -0.2560
11212TIP3    H155127   4.062   0.137  15.732  0.1541 -1.7968  0.5746
11212TIP3    H255128   3.963   0.024  15.721 -0.0690 -1.3075 -2.9389
11213TIP3   OH255129   6.082   4.497  15.294  0.1015  0.4039 -0.1031
11213TIP3    H155130   6.053   4.432  15.230  2.1030 -0.2747 -0.3510
11213TIP3    H255131   6.007   4.556  15.305 -1.4026 -1.3933 -0.5765
11214TIP3   OH255132   6.503   2.032   2.257 -0.1595  0.4453  0.7174
11214TIP3    H155133   6.557   1.993   2.325  2.2420  2.1873 -0.0931
11214TIP3    H255134   6.549   2.011   2.175 -1.5353  0.6621 -0.1253
11215TIP3   OH255135   5.310   0.593  12.700  0.2332  0.1913 -0.4871
11215TIP3    H155136   5.380   0.593  12.634  1.9336  2.7202  1.2444
11215TIP3    H255137   5.243   0.534  12.664  1.9086  0.1097 -3.6134
11216TIP3   OH255138   4.714   5.907  16.802  0.2450  0.2170 -0.1224
11216TIP3    H155139   4.647   5.926  16.735  1.0074 -0.2998 -1.0343
11216TIP3    H255140   4.758   5.991  16.815 -1.5322  0.9448  1.5785
11217TIP3   OH255141   4.890   6.164   1.477 -0.0986 -0.4132 -0.3737
11217TIP3    H155142   4.901   6.256   1.498 -1.1330 -0.0854 -1.2315
11217TIP3    H255143   4.866   6.163   1.384 -1.1250 -1.4826 -0.1142
11218TIP3   OH255144   3.736   2.679   3.624 -0.4055 -0.1051 -0.5768
11218TIP3    H155145   3.652   2.678   3.577  0.7638  3.6077 -3.0578
11218TIP3    H255146   3.722   2.739   3.697  0.1806  0.8780 -1.2590
11219TIP3   OH255147   4.613   0.864   0.388  0.3763  0.4376 -0.3617
11219TIP3    H155148   4.526   0.831   0.364  0.4909 -0.7672  0.8191
11219TIP3    H255149   4.673   0.802   0.348  0.6469  0.4368  0.0431
11220TIP3   OH255150   6.729   0.979   4.885 -0.1003 -0.3296  0.3176
11220TIP3    H155151   6.701   0.888   4.875 -0.1370 -0.5712  2.3249
11220TIP3    H255152   6.648   1.026   4.909  0.1833 -0.0522  0.7407
11221TIP3   OH255153   0.601   4.956  15.784  0.2897  0.3232 -0.4840
11221TIP3    H155154   0.508   4.956  15.760  0.1258  2.0950  0.1132
11221TIP3    H255155   0.647   4.959  15.701 -0.1589 -1.0315 -0.8049
11222TIP3   OH255156   2.021   2.817   1.870  0.4595  0.0995  0.2856
11222TIP3    H155157   2.102   2.791   1.825  0.6087  0.8885  0.0933
11222TIP3    H255158   1.969   2.860   1.802 -0.2945 -0.7519  0.3129
11223TIP3   OH255159   4.812   3.757  11.317 -0.0695 -0.2955 -0.1900
11223TIP3    H155160   4.898   3.777  11.279 -0.4823  0.6147 -0.6394
11223TIP3    H255161   4.755   3.743  11.241 -0.4863 -0.1987  0.1050
11224TIP3   OH255162   3.026   2.985   0.738 -0.0713 -0.0182  0.5544
11224TIP3    H155163   3.073   3.069   0.734 -0.9920  0.3910 -3.1844
11224TIP3    H255164   2.934   3.010   0.750 -0.0918 -0.5777  1.5673
11225TIP3   OH255165   6.509   3.738   0.972 -0.5291 -0.1613  0.5344
11225TIP3    H155166   6.571   3.731   1.045 -1.8886  2.0973  1.9614
11225TIP3    H255167   6.533   3.819   0.928 -0.9909 -0.4880 -0.3173
11226TIP3   OH255168   5.291   2.715   1.528  0.5117 -0.1077  0.7774
11226TIP3    H155169   5.281   2.703   1.623  0.1234 -0.2473  0.7187
11226TIP3    H255170   5.202   2.710   1.494  0.6155  0.3107  0.4465
11227TIP3   OH255171   5.453   1.754   4.794  0.4355 -0.2706 -0.1585
11227TIP3    H155172   5.537   1.797   4.783 -0.7968  1.9969 -1.0945
11227TIP3    H255173   5.424   1.780   4.881  0.6658 -0.9925  0.1361
11228TIP3   OH255174   2.644   6.380  16.010  0.8167  0.3878  0.2155
11228TIP3    H155175   2.668   6.360  16.101 -0.4667 -2.1329  0.0444
11228TIP3    H255176   2.559   6.337  15.998  0.5464  1.4482 -1.9314
11229TIP3   OH255177   0.368   1.973  14.653 -0.4051 -0.0220 -0.4445
11229TIP3    H155178   0.347   1.910  14.722 -0.1386 -0.4183 -0.7222
11229TIP3    H255179   0.458   1.952  14.628 -0.6170 -0.1100 -1.1546
11230TIP3   OH255180   2.409   6.654  16.842 -0.3186  0.4087  0.6325
11230TIP3    H155181   2.357   6.723  16.883 -0.1967  0.7946  0.1445
11230TIP3    H255182   2.500   6.677  16.863 -0.3212 -0.0539  1.1622
11231TIP3   OH255183   2.444   1.052  17.072 -0.5764 -0.0110  0.0337
11231TIP3    H155184   2.451   1.068  17.166  0.2347 -1.8993  0.3230
11231TIP3    H255185   2.530   1.075  17.037 -0.8738  0.6798 -0.2535
11232TIP3   OH255186   1.750   2.664  11.107 -0.6549 -0.4363  0.0029
11232TIP3    H155187   1.680   2.659  11.172  0.2566  0.1488  1.0332
11232TIP3    H255188   1.823   2.617  11.148 -0.4328 -1.0385 -1.0677
11233TIP3   OH255189   5.797   4.249   5.669  0.0857  0.1178  0.3837
11233TIP3    H155190   5.803   4.186   5.740  0.1701 -0.8289 -0.4567
11233TIP3    H255191   5.790   4.196   5.590 -0.1546  1.1607 -0.3057
11234TIP3   OH255192   2.685   4.777   4.296  0.0863  0.0506 -0.3207
11234TIP3    H155193   2.623   4.713   4.263 -1.9037  1.3346  0.8324
11234TIP3    H255194   2.733   4.806   4.218 -0.0311 -1.7100 -1.0659
11235TIP3   OH255195   4.879   6.372  14.642  0.2553  0.1565  0.5151
11235TIP3    H155196   4.930   6.364  14.561 -2.5361 -0.9822 -1.1991
11235TIP3    H255197   4.810   6.435  14.621 -0.7180 -0.4133  1.9136
11236TIP3   OH255198   1.175   6.034  14.760  0.1071  0.2022  0.0207
11236TIP3    H155199   1.174   6.030  14.664  0.9815 -0.0542  0.0192
11236TIP3    H255200   1.132   6.117  14.780  1.7381  1.2438 -0.6759
11237TIP3   OH255201   0.689   4.818  17.291  0.6201  0.1821  0.0102
11237TIP3    H155202   0.782   4.833  17.276  1.4423 -2.0644  2.3623
11237TIP3    H255203   0.658   4.896  17.336  1.7071  0.3347  0.4886
11238TIP3   OH255204   6.726   5.172   2.465 -0.2569  0.2694  0.2364
11238TIP3    H155205   6.792   5.158   2.533  1.2092 -2.3399 -1.6269
11238TIP3    H255206   6.667   5.237   2.502 -0.0253 -1.7234  4.3953
11239TIP3   OH255207   1.828   0.268   5.857  0.0165  0.2477  0.0455
11239TIP3    H155208   1.851   0.262   5.764 -1.4508 -2.5803 -0.1858
11239TIP3    H255209   1.854   0.184   5.894  0.0481  1.1292  2.1049
11240TIP3   OH255210   1.431   3.643  14.715 -0.6029 -0.3646  0.2196
11240TIP3    H155211   1.507   3.587  14.728 -1.2886 -1.1908  0.7178
11240TIP3    H255212   1.453   3.725  14.759  1.0691  0.3682 -1.8669
11241TIP3   OH255213   6.140   1.148   3.655  0.0701  0.5198  0.0673
11241TIP3    H155214   6.166   1.237   3.679  0.2623  1.0616 -2.0242
11241TIP3    H255215   6.082   1.159   3.580 -0.6892 -1.0836  0.3792
11242TIP3   OH255216   5.120   4.890  14.171 -0.0989  0.0066 -0.4600
11242TIP3    H155217   5.119   4.986  14.169  1.1364  0.0626  0.7085
11242TIP3    H255218   5.203   4.868  14.215 -1.2734 -1.5523  1.0318
11243TIP3   OH255219   0.811   6.542  13.673  0.1138  0.0013 -0.1514
11243TIP3    H155220   0.733   6.598  13.673 -0.7942 -1.2344 -0.2799
11243TIP3    H255221   0.783   6.462  13.628  1.7306 -0.0988 -1.0130
11244TIP3   OH255222   4.815   1.055   5.735 -0.0689  0.2883  0.3081
11244TIP3    H155223   4.758   0.987   5.699  1.1032 -0.4096 -0.2445
11244TIP3    H255224   4.829   1.115   5.662  1.3410 -0.4949 -0.0892
11245TIP3   OH255225   5.974   1.064  14.931  0.3352  0.0810 -0.1113
11245TIP3    H155226   6.025   1.107  15.000  1.3669 -0.0348 -0.7866
11245TIP3    H255227   5.978   1.126  14.857  0.1996 -0.3020 -0.4410
11246TIP3   OH255228   0.531   0.441  14.597  0.8754  0.0619 -0.0693
11246TIP3    H155229   0.611   0.459  14.645  0.0424  0.9557  1.0060
11246TIP3    H255230   0.550   0.363  14.545  1.6639 -1.1242  1.9898
11247TIP3   OH255231   4.589   0.437   4.685 -0.1075  0.3490 -0.2880
11247TIP3    H155232   4.652   0.373   4.653  1.4204  1.2390  0.8714
11247TIP3    H255233   4.557   0.401   4.767  0.2543  0.7541  0.0332
11248TIP3   OH255234   1.083   1.510  15.805 -0.6381  0.4974 -0.2515
11248TIP3    H155235   1.072   1.604  15.792  0.0713  0.4838 -0.9635
11248TIP3    H255236   1.158   1.502  15.863 -0.0106  0.3372 -1.0750
11249TIP3   OH255237   5.316   3.737   3.310 -0.3186  0.3569  0.2978
11249TIP3    H155238   5.408   3.763   3.316 -0.4014  0.5989  0.5232
11249TIP3    H255239   5.268   3.808   3.353 -0.6077  0.2086  0.2238
11250TIP3   OH255240   1.694   6.696  10.474  0.1222 -0.2515 -0.1199
11250TIP3    H155241   1.633   6.648  10.530  0.9890 -0.4116  0.6791
11250TIP3    H255242   1.650   6.779  10.457 -0.4422 -0.4800  0.2179
11251TIP3   OH255243   4.501   4.651   3.768 -0.0806  0.4933  0.1669
11251TIP3    H155244   4.478   4.563   3.740  1.2294  0.0517  0.4438
11251TIP3    H255245   4.418   4.699   3.768 -0.5594 -0.3010 -1.5306
11252TIP3   OH255246   3.572   2.000   4.159 -0.0982  0.1633 -0.1702
11252TIP3    H155247   3.640   1.935   4.175 -1.5127 -1.6476 -1.3584
11252TIP3    H255248   3.607   2.081   4.198  1.1598 -1.5569  2.4654
11253TIP3   OH255249   1.406   4.368  12.943  0.1566  0.2194  0.3343
11253TIP3    H155250   1.439   4.414  12.866 -0.9585 -1.3866 -1.1494
11253TIP3    H255251   1.316   4.400  12.953  0.0356 -0.1739  0.4969
11254TIP3   OH255252   4.399   0.460   3.116 -0.2712  0.3099  0.0832
11254TIP3    H155253   4.396   0.492   3.206  1.0963 -1.0693  0.6369
11254TIP3    H255254   4.312   0.422   3.101 -0.5223  0.5974  0.7950
11255TIP3   OH255255   0.358   2.826  16.878 -0.0179 -0.0485 -0.0102
11255TIP3    H155256   0.356   2.919  16.857  0.1390  0.6236  2.7470
11255TIP3    H255257   0.269   2.805  16.903  0.0762 -0.4967 -0.0513
11256TIP3   OH255258   3.428   3.657  13.497 -0.0775 -0.3357  0.3262
11256TIP3    H155259   3.392   3.739  13.465 -0.8810  0.2694  2.6814
11256TIP3    H255260   3.497   3.634  13.434 -1.6084  0.7625 -1.8006
11257TIP3   OH255261   2.706   5.241  11.783  0.0302  0.0478 -0.6827
11257TIP3    H155262   2.799   5.259  11.769  0.1943 -0.8906 -0.8244
11257TIP3    H255263   2.704   5.161  11.835 -0.7031 -0.2516 -1.1524
11258TIP3   OH255264   4.112   0.768   2.281 -0.0088 -0.5362  0.5025
11258TIP3    H155265   4.067   0.816   2.212 -2.6623  0.0426  2.5303
11258TIP3    H255266   4.200   0.805   2.283 -1.9071  4.3608  1.9656
11259TIP3   OH255267   5.695   3.185   1.232  0.3232 -0.0021  0.6137
11259TIP3    H155268   5.694   3.200   1.327 -0.8962 -0.6276  0.7129
11259TIP3    H255269   5.629   3.244   1.198 -0.8306 -1.3802  0.4160
11260TIP3   OH255270   0.764   1.245   3.805  0.1904  0.1373  0.0254
11260TIP3    H155271   0.801   1.333   3.799 -2.0575  1.1056 -0.2321
11260TIP3    H255272   0.780   1.206   3.719  2.9345 -0.4577  0.7664
11261TIP3   OH255273   5.213   1.458  13.832 -0.2673  0.4226 -0.2271
11261TIP3    H155274   5.154   1.446  13.906 -0.7409  1.0840 -0.5027
11261TIP3    H255275   5.184   1.538  13.790  0.1502  0.1755 -0.9979
11262TIP3   OH255276   2.496   5.434   5.631 -0.2810  0.2206 -0.1023
11262TIP3    H155277   2.513   5.468   5.719 -1.6973  1.0565 -0.1251
11262TIP3    H255278   2.404   5.455   5.615  0.0383  0.3286 -1.8933
11263TIP3   OH255279   2.951   2.807  15.589 -0.8169 -0.1200  0.4288
11263TIP3    H155280   2.931   2.829  15.498  0.6096 -0.1226  0.1002
11263TIP3    H255281   2.884   2.744  15.614  0.1020 -1.8944 -1.3731
11264TIP3   OH255282   5.299   0.554   4.945  0.0284 -0.4077 -0.3220
11264TIP3    H155283   5.350   0.505   4.881  0.5715 -1.8333  1.1678
11264TIP3    H255284   5.354   0.557   5.023 -0.6332  1.2775  0.0923
11265TIP3   OH255285   1.985   2.474  12.344  0.4953  0.2109 -0.1162
11265TIP3    H155286   2.034   2.556  12.353  0.4360  0.2893 -0.5088
11265TIP3    H255287   2.006   2.443  12.256  1.0762 -0.5633  0.2901
11266TIP3   OH255288   4.195   4.164  13.361 -0.6144 -0.2552 -0.3337
11266TIP3    H155289   4.229   4.081  13.330 -1.2060 -1.1676  1.4434
11266TIP3    H255290   4.215   4.226  13.290  1.6125 -1.4694 -0.7873
11267TIP3   OH255291   5.421   3.733  15.608 -0.4509 -0.7092 -0.2961
11267TIP3    H155292   5.336   3.696  15.632 -0.9526  1.1614  0.8680
11267TIP3    H255293   5.443   3.791  15.680  1.4890 -0.6216 -0.9400
11268TIP3   OH255294   0.182   4.321   3.560 -0.1828  0.7598  0.0550
11268TIP3    H155295   0.136   4.385   3.505  0.1008  1.1717  0.2955
11268TIP3    H255296   0.112   4.274   3.605 -0.3684  1.6279  0.6884
11269TIP3   OH255297   6.296   0.227   3.791  0.1283  0.0680 -0.4804
11269TIP3    H155298   6.321   0.173   3.866  0.7752 -1.3253 -1.6888
11269TIP3    H255299   6.203   0.209   3.779 -0.9032  3.0239  2.1756
11270TIP3   OH255300   5.976   2.950   6.399 -0.3767 -0.3337  0.1333
11270TIP3    H155301   5.895   2.900   6.383 -1.0582  0.7573  0.1077
11270TIP3    H255302   5.952   3.014   6.466  0.5078 -0.0697  0.2065
11271TIP3   OH255303   1.547   3.848  11.857 -0.2541  0.5187 -0.8803
11271TIP3    H155304   1.586   3.927  11.820  1.3202  0.8577  1.3798
11271TIP3    H255305   1.461   3.842  11.816 -0.4186  3.4328 -1.0495
11272TIP3   OH255306   3.156   3.820  14.424 -0.4104  0.0229 -0.4452
11272TIP3    H155307   3.098   3.750  14.394  0.0904 -0.6808  0.2194
11272TIP3    H255308   3.186   3.863  14.344 -0.6935 -0.5383 -0.8517
11273TIP3   OH255309   5.796   3.486  14.044 -0.0417 -0.5534  0.8120
11273TIP3    H155310   5.876   3.434  14.038  0.5291  0.5448 -1.3686
11273TIP3    H255311   5.798   3.522  14.133  0.5276 -2.6320  1.6834
11274TIP3   OH255312   0.606   5.022   3.828  0.3795 -0.0997  0.9693
11274TIP3    H155313   0.605   5.113   3.798  1.5735 -0.6142 -0.7204
11274TIP3    H255314   0.697   4.994   3.814 -0.3202 -1.9826  0.1748
11275TIP3   OH255315   5.356   4.189  13.435 -0.2085 -0.2325  0.6558
11275TIP3    H155316   5.381   4.281  13.443 -0.3133 -0.1592  0.1873
11275TIP3    H255317   5.383   4.149  13.517 -1.6127  0.5486  1.5223
11276TIP3   OH255318   3.711   5.136  13.736 -0.5133 -0.4304 -0.4245
11276TIP3    H155319   3.763   5.111  13.660 -1.2081  0.0240 -1.0491
11276TIP3    H255320   3.752   5.090  13.809 -0.0850 -1.1780 -1.1319
11277TIP3   OH255321   6.173   0.077  16.693 -0.0925  0.1405  0.1034
11277TIP3    H155322   6.144   0.124  16.771  2.8026  0.5591  0.9790
11277TIP3    H255323   6.158   0.137  16.621  1.4507  1.5770  0.9388
11278TIP3   OH255324   3.714   2.033  16.410 -0.3187 -0.2479 -0.1860
11278TIP3    H155325   3.726   2.120  16.372 -3.0783  1.3887  2.3778
11278TIP3    H255326   3.790   2.020  16.465 -0.2890  0.9401  0.0702
11279TIP3   OH255327   3.156   2.504   0.117  0.2580 -0.0924 -0.1118
11279TIP3    H155328   3.186   2.416   0.093  1.0112  0.4841 -1.3091
11279TIP3    H255329   3.086   2.524   0.054 -0.7084 -0.2847  0.8817
11280TIP3   OH255330   0.744   0.158  14.332  0.3439 -0.7898  0.6313
11280TIP3    H155331   0.729   0.090  14.267 -3.5596  0.2007  0.4140
11280TIP3    H255332   0.672   0.151  14.393  1.3366  1.4099  2.1548
11281TIP3   OH255333   5.279   2.575  16.593  0.2875 -0.0202  0.3441
11281TIP3    H155334   5.221   2.564  16.518  0.3116  0.9589  0.1670
11281TIP3    H255335   5.321   2.490  16.604  1.4983  0.2700 -1.7707
11282TIP3   OH255336   1.055   1.151   2.359  0.2270 -0.3063  0.2519
11282TIP3    H155337   1.145   1.183   2.362  0.2218 -0.0409 -1.7494
11282TIP3    H255338   1.001   1.228   2.374  0.3157 -0.2090  0.0770
11283TIP3   OH255339   6.697   2.023   5.221  0.4362  0.1162 -0.0811
11283TIP3    H155340   6.757   1.992   5.153 -0.4316 -0.5823 -0.5384
11283TIP3    H255341   6.669   2.110   5.192 -1.5028 -0.9909 -1.6749
11284TIP3   OH255342   3.973   4.912   5.095  0.2019 -0.5113 -0.0738
11284TIP3    H155343   3.890   4.946   5.129  0.0377 -1.7468  0.7908
11284TIP3    H255344   3.947   4.847   5.030  0.5075 -0.8092  0.1060
11285TIP3   OH255345   0.589   6.754   5.948 -0.0683  0.2047 -0.0159
11285TIP3    H155346   0.593   6.672   5.998 -0.1420  0.1449 -0.1076
11285TIP3    H255347   0.549   6.817   6.009  0.8727  0.4247  0.3897
11286TIP3   OH255348   4.903   5.264  11.306 -0.4506  0.1623 -0.0023
11286TIP3    H155349   4.964   5.257  11.232  0.7965  0.9647  0.9122
11286TIP3    H255350   4.817   5.277  11.266  0.3018  1.2499 -1.3249
11287TIP3   OH255351   6.515   1.928   3.963 -0.1200  0.1290 -0.4616
11287TIP3    H155352   6.556   1.895   3.884  0.5860 -0.2667  0.0591
11287TIP3    H255353   6.567   2.004   3.988 -1.8693  1.8173 -1.7724
11288TIP3   OH255354   0.812   1.808  12.589 -0.0859 -0.1901  0.3146
11288TIP3    H155355   0.890   1.805  12.645 -0.1722  0.2294  0.4618
11288TIP3    H255356   0.847   1.825  12.501 -0.0267  0.2373  0.4193
11289TIP3   OH255357   6.639   0.693   6.064  0.3808  0.1661 -0.0547
11289TIP3    H155358   6.594   0.777   6.064  1.5446  0.8036 -0.1775
11289TIP3    H255359   6.576   0.632   6.101 -0.3451  1.1594  0.3679
11290TIP3   OH255360   2.580   6.483   4.723 -0.3783 -0.4753 -0.5482
11290TIP3    H155361   2.562   6.391   4.743  2.5853 -0.8546  0.6300
11290TIP3    H255362   2.551   6.531   4.800  0.5198 -0.7290 -0.0437
11291TIP3   OH255363   2.376   6.197  13.353 -0.5388  0.1139  0.7353
11291TIP3    H155364   2.322   6.162  13.423 -1.3123  0.8949  0.5426
11291TIP3    H255365   2.454   6.141  13.352 -1.7681 -1.6338  0.3793
11292TIP3   OH255366   5.632   1.403   2.488  0.3770  0.1371  0.4808
11292TIP3    H155367   5.679   1.387   2.406  0.5563 -1.2651  0.8477
11292TIP3    H255368   5.697   1.388   2.557  0.0421  0.6287  0.9142
11293TIP3   OH255369   4.748   0.425   4.147 -0.3606  0.5567 -0.7152
11293TIP3    H155370   4.737   0.460   4.058  0.1520  0.0118 -1.0057
11293TIP3    H255371   4.832   0.460   4.176  0.2334 -0.5322 -1.0716
11294TIP3   OH255372   4.173   2.068  14.538  0.6070  0.0097 -0.0469
11294TIP3    H155373   4.240   2.057  14.605  1.0972 -0.6166 -0.6390
11294TIP3    H255374   4.150   1.979  14.512  0.4016  0.2543 -0.6958
11295TIP3   OH255375   5.510   5.227   0.462  0.8236  0.0384 -0.0264
11295TIP3    H155376   5.591   5.177   0.473  1.1263  0.5045 -0.0818
11295TIP3    H255377   5.467   5.222   0.547  0.5154 -0.8849 -0.2331
11296TIP3   OH255378   5.746   2.538   0.311  0.2897  0.2755 -0.1459
11296TIP3    H155379   5.817   2.474   0.305 -0.9948 -1.1251 -0.7675
11296TIP3    H255380   5.789   2.618   0.343  1.9119 -0.8877  0.6773
11297TIP3   OH255381   2.342   2.978  15.596  0.5570  0.1343 -0.2561
11297TIP3    H155382   2.382   3.056  15.635  1.1286  0.0459 -0.6646
11297TIP3    H255383   2.265   2.961  15.651  2.7288 -1.4760  2.3796
11298TIP3   OH255384   2.300   2.419   3.703  0.0803  0.2323  0.2485
11298TIP3    H155385   2.334   2.338   3.741 -0.6667  0.5945  1.7212
11298TIP3    H255386   2.338   2.422   3.615  0.5304 -1.4460  0.3676
11299TIP3   OH255387   5.345   3.059   1.650 -0.6437  0.4368 -0.2934
11299TIP3    H155388   5.294   3.079   1.572 -1.6660  3.4203  1.0592
11299TIP3    H255389   5.280   3.037   1.717  0.2569 -2.8796 -0.4355
11300TIP3   OH255390   2.247   0.387  15.825 -0.1977  0.2432 -0.1743
11300TIP3    H155391   2.335   0.426  15.818 -0.6338  0.9611 -1.8871
11300TIP3    H255392   2.188   0.462  15.823 -0.9369 -0.3581 -0.9996
11301TIP3   OH255393   1.190   6.456   6.054  0.2579 -0.5344 -0.6694
11301TIP3    H155394   1.179   6.436   6.146  0.0367  1.2889 -0.2814
11301TIP3    H255395   1.130   6.529   6.037  0.5649 -0.5951 -2.1512
11302TIP3   OH255396   1.562   3.799  14.922 -0.3018  0.0160  0.1861
11302TIP3    H155397   1.631   3.854  14.958 -0.5368  0.1285  0.4737
11302TIP3    H255398   1.550   3.729  14.986  0.5541 -0.8363 -0.5693
11303TIP3   OH255399   1.801   3.457   1.683  0.0991 -0.4251  0.3838
11303TIP3    H155400   1.735   3.412   1.629  2.4333 -0.9180 -2.1978
11303TIP3    H255401   1.820   3.395   1.753  1.5360 -2.5385 -1.7915
11304TIP3   OH255402   6.697   2.579   0.662  0.8410 -0.8260  0.4621
11304TIP3    H155403   6.672   2.595   0.753  0.4508  1.1557  0.0329
11304TIP3    H255404   6.615   2.586   0.613  1.2215 -0.7154 -0.1707
11305TIP3   OH255405   4.990   3.190  16.160 -0.2409 -0.7517  0.0858
11305TIP3    H155406   4.985   3.286  16.161 -0.4255 -0.7633  2.3263
11305TIP3    H255407   5.084   3.171  16.171 -0.3072 -0.8146  0.5761
11306TIP3   OH255408   5.697   0.377   0.655  0.1138 -0.4524 -0.6447
11306TIP3    H155409   5.739   0.379   0.741  1.8963  1.5384 -1.5428
11306TIP3    H255410   5.734   0.451   0.607 -2.2926 -0.3647 -2.4824
11307TIP3   OH255411   5.460   1.781  14.166 -0.5500 -0.0987  1.2210
11307TIP3    H155412   5.449   1.809  14.257  3.2082  0.0523  1.7215
11307TIP3    H255413   5.418   1.849  14.114 -0.8704  0.9209  2.7885
11308TIP3   OH255414   4.628   0.531   2.500  0.6662 -0.0888 -0.4115
11308TIP3    H155415   4.659   0.449   2.464 -0.0706  0.1096 -1.5146
11308TIP3    H255416   4.665   0.534   2.588  0.3471 -1.8051 -0.1951
11309TIP3   OH255417   1.901   3.156  11.626 -0.3196 -0.8647 -0.1627
11309TIP3    H155418   1.815   3.140  11.665 -0.3731 -0.7517 -0.2310
11309TIP3    H255419   1.963   3.135  11.695 -0.4250 -0.3111  0.1114
11310TIP3   OH255420   5.911   2.500  12.828  0.9758  0.4196  0.1074
11310TIP3    H155421   5.989   2.543  12.792 -0.4745  1.1085 -2.3849
11310TIP3    H255422   5.920   2.409  12.800  1.2458  0.3395  0.4526
11311TIP3   OH255423   5.778   6.158   2.607  0.2937  0.1920 -0.2884
11311TIP3    H155424   5.727   6.237   2.591 -0.0888 -0.2961 -1.5269
11311TIP3    H255425   5.860   6.172   2.559  0.8900  0.5282  0.8270
11312TIP3   OH255426   4.352   3.568   3.970  0.1358  0.1406 -0.3604
11312TIP3    H155427   4.366   3.590   4.062  0.0135 -1.2845  0.0058
11312TIP3    H255428   4.299   3.641   3.936  2.0848  1.8252  0.0981
11313TIP3   OH255429   2.343   1.318  14.253 -0.2663 -0.3801  0.0728
11313TIP3    H155430   2.358   1.275  14.338 -1.0960  2.4115  1.7206
11313TIP3    H255431   2.424   1.366  14.237 -0.6115  0.1588 -0.0557
11314TIP3   OH255432   4.635   4.148   5.997  0.0958 -0.0543 -0.2006
11314TIP3    H155433   4.541   4.130   5.997  0.1472 -0.3261 -0.3793
11314TIP3    H255434   4.642   4.239   6.023 -0.2469  0.1123 -0.6956
11315TIP3   OH255435   5.693   1.543  17.035  0.1286  0.0709 -0.0888
11315TIP3    H155436   5.614   1.596  17.029 -0.2418 -0.5628 -0.8844
11315TIP3    H255437   5.709   1.534  17.129  0.7813  2.4345  0.0620
11316TIP3   OH255438   2.261   1.937  11.435 -0.1713  0.2728 -0.4480
11316TIP3    H155439   2.191   1.968  11.493 -0.2565 -0.0120 -0.3982
11316TIP3    H255440   2.328   1.904  11.494 -0.1654  0.1827 -0.5055
11317TIP3   OH255441   0.097   1.966   0.724 -0.3498  0.1053 -0.5283
11317TIP3    H155442   0.054   1.939   0.805 -1.8371 -0.1275 -1.3693
11317TIP3    H255443   0.137   2.051   0.745 -1.0326  0.2143  0.3484
11318TIP3   OH255444   5.402   6.359   1.320  0.5937 -0.3403  0.1890
11318TIP3    H155445   5.481   6.395   1.280 -0.2048 -0.5535 -1.6228
11318TIP3    H255446   5.431   6.326   1.405  1.8315  2.3812  0.8726
11319TIP3   OH255447   2.401   6.235   4.302  0.1827 -0.4367 -0.1429
11319TIP3    H155448   2.340   6.289   4.351  0.9743  0.7115 -0.4093
11319TIP3    H255449   2.450   6.188   4.369  0.6700  0.4745  0.1450
11320TIP3   OH255450   5.504   1.556  12.889 -0.4573  0.2295 -0.2032
11320TIP3    H155451   5.420   1.589  12.918 -1.3982 -0.7758 -1.7013
11320TIP3    H255452   5.504   1.569  12.794 -0.0302 -2.1555 -0.5805
11321TIP3   OH255453   2.378   3.853  15.586  0.3983 -0.2781 -0.4456
11321TIP3    H155454   2.399   3.777  15.640 -1.0694 -0.5419 -0.2301
11321TIP3    H255455   2.404   3.928  15.639  1.5828 -0.6202 -0.5421
11322TIP3   OH255456   0.684   0.958   3.920  0.0436 -1.0970 -0.3919
11322TIP3    H155457   0.650   0.870   3.935  0.9414 -1.2011  1.0401
11322TIP3    H255458   0.605   1.013   3.914 -0.4368 -1.5688  1.4126
11323TIP3   OH255459   6.009   2.003   2.416  0.5164  0.1601  0.0061
11323TIP3    H155460   5.998   2.098   2.420  0.1009  0.0523  1.5538
11323TIP3    H255461   5.953   1.969   2.485  1.5314 -1.1447  0.2082
11324TIP3   OH255462   3.621   5.677   2.927  0.2567  0.6702  0.0278
11324TIP3    H155463   3.713   5.688   2.951  0.2294  1.4399 -0.2089
11324TIP3    H255464   3.572   5.702   3.005  0.2171  1.3820 -0.2251
11325TIP3   OH255465   4.623   0.571  11.395 -0.1640  0.1914  0.1206
11325TIP3    H155466   4.694   0.625  11.361 -1.2666  1.7997  0.3351
11325TIP3    H255467   4.598   0.515  11.322  0.4431  0.5445 -0.3583
11326TIP3   OH255468   2.902   6.050  15.476 -0.4688  0.0815 -0.4435
11326TIP3    H155469   2.854   5.999  15.541  0.8511 -1.6798 -0.8244
11326TIP3    H255470   2.963   5.988  15.436 -1.0209  1.1728 -3.1615
11327TIP3   OH255471   1.103   6.517  10.494  0.0990 -0.1269 -0.4743
11327TIP3    H155472   1.196   6.525  10.515 -0.2956 -0.1419  1.3685
11327TIP3    H255473   1.065   6.600  10.522 -0.5412 -0.3522 -0.6786
11328TIP3   OH255474   6.516   2.867   4.645  0.3359  0.0392 -0.0350
11328TIP3    H155475   6.563   2.840   4.566  2.4001 -1.7069  1.7561
11328TIP3    H255476   6.496   2.786   4.691 -1.9767  0.9510  0.6567
11329TIP3   OH255477   5.594   1.096  14.413 -0.1985 -0.3067  0.7563
11329TIP3    H155478   5.519   1.154  14.423  0.1533 -0.0963  2.2429
11329TIP3    H255479   5.592   1.040  14.491  0.7743 -0.7808  0.4535
11330TIP3   OH255480   6.258   4.586  16.801  0.2085  0.5343 -0.3112
11330TIP3    H155481   6.279   4.664  16.852  1.9838  0.0991 -0.3517
11330TIP3    H255482   6.257   4.616  16.710  0.9022  0.5280 -0.3279
11331TIP3   OH255483   5.200   0.004   1.295  0.2847 -0.9952 -0.0903
11331TIP3    H155484   5.156   0.080   1.334  1.6806 -0.0225 -0.3786
11331TIP3    H255485   5.139  -0.026   1.228 -0.4774 -0.3843  0.3163
11332TIP3   OH255486   4.789   1.216  15.404  0.9112 -0.2656 -0.2246
11332TIP3    H155487   4.861   1.198  15.344  0.7975 -2.0497  0.1291
11332TIP3    H255488   4.795   1.146  15.469  0.6845  1.3003  1.5210
11333TIP3   OH255489   2.406   1.852  16.390  0.1334  0.1516 -0.1602
11333TIP3    H155490   2.314   1.831  16.372  0.3096 -0.2356 -0.6130
11333TIP3    H255491   2.435   1.901  16.313 -0.0322  1.3070  0.5131
11334TIP3   OH255492   6.331   4.232   3.709 -0.7056 -0.1359  0.7839
11334TIP3    H155493   6.370   4.159   3.661 -3.8592 -2.3046  1.3795
11334TIP3    H255494   6.348   4.213   3.801  0.6550  1.2425  0.8440
11335TIP3   OH255495   0.162   1.607  14.346  0.0326 -0.2880  0.0384
11335TIP3    H155496   0.158   1.512  14.353 -1.8393 -0.2895 -0.8467
11335TIP3    H255497   0.074   1.634  14.319  0.8978  1.5730 -1.0594
11336TIP3   OH255498   2.054   5.398   1.224  0.3667 -0.1290  0.0739
11336TIP3    H155499   2.094   5.464   1.281  1.7602 -0.1521 -0.8682
11336TIP3    H255500   2.070   5.430   1.136 -0.4127 -0.8965 -0.3462
11337TIP3   OH255501   6.346   3.281   5.058  0.2105 -0.2903  0.1824
11337TIP3    H155502   6.390   3.359   5.023 -0.3672 -0.7297 -1.6234
11337TIP3    H255503   6.365   3.281   5.151  0.0192  2.1588  0.2453
11338TIP3   OH255504   0.235   0.520   2.710 -0.1982 -0.2049 -0.4534
11338TIP3    H155505   0.311   0.557   2.756  0.3663 -1.2037 -0.5724
11338TIP3    H255506   0.257   0.528   2.617  0.3094 -1.5970 -0.4703
11339TIP3   OH255507   2.268   5.427  11.513  0.2442  0.1797 -0.2806
11339TIP3    H155508   2.213   5.359  11.475  1.3732 -1.3167  0.7243
11339TIP3    H255509   2.226   5.509  11.487 -1.5875 -0.9074 -0.8215
11340TIP3   OH255510   0.571   3.778   2.813 -0.3072  0.0398 -0.0753
11340TIP3    H155511   0.617   3.697   2.835 -1.7014 -0.7849 -0.1186
11340TIP3    H255512   0.630   3.824   2.753  1.1470 -0.2271  1.1030
11341TIP3   OH255513   2.346   4.801   4.607 -0.7599 -0.5316 -0.2311
11341TIP3    H155514   2.412   4.853   4.562 -0.6200  0.5645  1.2402
11341TIP3    H255515   2.388   4.716   4.621  0.3732  0.1809  0.7724
11342TIP3   OH255516   2.794   2.016  11.651 -0.1338  0.3815  0.5097
11342TIP3    H155517   2.854   2.090  11.646  0.5323 -0.1894 -0.1822
11342TIP3    H255518   2.799   1.975  11.565 -1.3478  0.1915  0.5292
11343TIP3   OH255519   3.721   0.013   0.636 -0.6774 -0.2767 -0.0773
11343TIP3    H155520   3.647   0.070   0.616 -0.3827 -0.2858 -1.2240
11343TIP3    H255521   3.796   0.056   0.595 -0.1519 -0.5748  0.5717
11344TIP3   OH255522   1.405   5.523   4.354  0.1555 -0.3294 -0.1546
11344TIP3    H155523   1.390   5.582   4.280 -0.3056 -0.6180 -0.2992
11344TIP3    H255524   1.332   5.460   4.348  0.9448 -1.2411 -0.3433
11345TIP3   OH255525   3.788   3.260   2.145  0.2548 -0.4079  0.0524
11345TIP3    H155526   3.810   3.354   2.145  1.4516 -0.6782  0.2449
11345TIP3    H255527   3.863   3.218   2.187 -0.2683 -1.4600 -0.0519
11346TIP3   OH255528   4.007   2.991   3.720  0.3521 -0.0330 -0.2137
11346TIP3    H155529   4.073   2.924   3.735  0.1186  0.2069  2.0753
11346TIP3    H255530   4.037   3.066   3.772 -0.6717  0.7898 -0.7880
11347TIP3   OH255531   4.027   4.623  13.962 -0.3441  0.4242 -0.2944
11347TIP3    H155532   4.093   4.559  13.988 -1.4590 -0.1812  1.1429
11347TIP3    H255533   4.066   4.707  13.985 -0.8501 -0.0324  2.4818
11348TIP3   OH255534   6.426   5.090  16.122 -0.2316  0.1194  0.9030
11348TIP3    H155535   6.368   5.014  16.125 -0.6647  0.4707  1.5738
11348TIP3    H255536   6.375   5.158  16.076  0.1387  0.0219  0.3413
11349TIP3   OH255537   1.620   6.512   5.673  0.5184 -0.5110 -0.2187
11349TIP3    H155538   1.528   6.535   5.655  0.5918  0.9123  1.1071
11349TIP3    H255539   1.659   6.502   5.586 -1.0642 -1.9404 -0.8138
11350TIP3   OH255540   0.771   3.405  13.798  0.3912  0.5596 -0.4696
11350TIP3    H155541   0.690   3.426  13.845  0.1988  0.2759 -0.6712
11350TIP3    H255542   0.783   3.480  13.739  0.6557  0.9352  0.0530
11351TIP3   OH255543   6.494   4.751   4.736  0.4667 -0.5326  0.0626
11351TIP3    H155544   6.514   4.814   4.805 -2.7655  0.2719  0.3168
11351TIP3    H255545   6.552   4.777   4.664  0.4523  1.6314  0.7893
11352TIP3   OH255546   0.219   1.188   2.626 -0.1843 -0.3589  0.2683
11352TIP3    H155547   0.272   1.179   2.705 -0.4780 -2.4353  0.2695
11352TIP3    H255548   0.172   1.105   2.620 -3.6990  1.5324  0.4366
11353TIP3   OH255549   1.886   5.960   0.895 -0.6800 -0.4756  0.6660
11353TIP3    H155550   1.877   5.915   0.811 -0.6527 -0.2653  0.5497
11353TIP3    H255551   1.941   5.902   0.948  0.1589 -0.1155  0.1838
11354TIP3   OH255552   2.098   6.281   0.413 -0.2815 -0.1038 -0.3685
11354TIP3    H155553   2.068   6.267   0.503 -0.5667  3.1594  0.0782
11354TIP3    H255554   2.194   6.280   0.419 -0.2889 -1.2893 -0.2889
11355TIP3   OH255555   2.237   0.554   5.347  0.2892 -0.0951 -0.5602
11355TIP3    H155556   2.263   0.638   5.308  0.6854 -0.0449 -0.1876
11355TIP3    H255557   2.293   0.490   5.304 -0.2768 -0.2140 -1.1187
11356TIP3   OH255558   5.843   6.207   5.886 -0.2048  0.5230 -0.9858
11356TIP3    H155559   5.832   6.131   5.829  0.3333  0.3196 -0.8182
11356TIP3    H255560   5.764   6.208   5.940  0.1057 -0.3290 -0.5082
11357TIP3   OH255561   0.270   6.435   5.482  0.0054  0.0268  0.3639
11357TIP3    H155562   0.310   6.412   5.566 -1.0961 -0.4980  0.7521
11357TIP3    H255563   0.205   6.366   5.467  2.1884 -1.5091 -2.3457
11358TIP3   OH255564   4.694   1.081   1.206  0.0347  0.0463 -0.1740
11358TIP3    H155565   4.624   1.061   1.269  0.0874 -0.9709 -0.4311
11358TIP3    H255566   4.756   1.135   1.256 -0.5193  0.2430  0.3034
11359TIP3   OH255567   6.116   1.184   3.214  0.1842 -0.1860  0.3378
11359TIP3    H155568   6.133   1.097   3.178  2.4655  0.0147  0.8186
11359TIP3    H255569   6.190   1.237   3.184 -0.0600  1.0427  1.8358
11360TIP3   OH255570   0.792   4.203  16.929 -0.2050  0.5560 -0.1862
11360TIP3    H155571   0.823   4.204  17.020  2.1388 -1.5807 -0.9042
11360TIP3    H255572   0.711   4.152  16.932  1.0563 -1.4614  0.3976
11361TIP3   OH255573   4.195   4.960   4.747  0.2621 -0.1339 -0.0732
11361TIP3    H155574   4.114   4.908   4.744  0.1019  0.0877  0.3975
11361TIP3    H255575   4.186   5.013   4.825  1.5264 -1.1956  0.8126
11362TIP3   OH255576   3.912   0.728  12.094 -0.3534 -0.0276  0.1853
11362TIP3    H155577   3.850   0.707  12.025 -0.2344 -0.7792  0.3080
11362TIP3    H255578   3.859   0.732  12.174 -0.5950  1.4576 -0.0361
11363TIP3   OH255579   2.073   4.232   2.708  0.5560 -0.2325 -0.9480
11363TIP3    H155580   2.062   4.311   2.654 -1.1357  0.1621 -0.0746
11363TIP3    H255581   2.087   4.266   2.796  1.0726 -0.8939 -0.7803
11364TIP3   OH255582   0.569   3.800   5.013 -0.7566  0.3264 -0.2334
11364TIP3    H155583   0.513   3.724   4.994  1.5141 -2.5531  3.7458
11364TIP3    H255584   0.650   3.782   4.966 -0.1459  0.1312  0.8699
11365TIP3   OH255585   4.830   0.753   3.594  0.5216 -0.0834 -0.3376
11365TIP3    H155586   4.751   0.710   3.625  0.3202 -0.4413 -1.3263
11365TIP3    H255587   4.845   0.716   3.506  2.2760 -0.7028  0.1840
11366TIP3   OH255588   3.503   2.652  12.789 -0.1817 -0.4226  0.3215
11366TIP3    H155589   3.462   2.668  12.874 -1.0257  0.8564 -0.3191
11366TIP3    H255590   3.446   2.589  12.746 -1.0163  0.6907 -0.2176
11367TIP3   OH255591   2.063   0.220  12.991  0.2949 -0.1965 -0.2232
11367TIP3    H155592   2.023   0.268  13.062  0.2033  0.4941 -0.7411
11367TIP3    H255593   2.051   0.128  13.014  0.4057  0.0258  0.7253
11368TIP3   OH255594   0.931   2.358   6.376  1.1659 -0.1869 -0.2190
11368TIP3    H155595   1.021   2.381   6.399  0.5639  1.6389  0.3677
11368TIP3    H255596   0.877   2.402   6.441 -0.1728 -1.1467 -0.6527
11369TIP3   OH255597   3.679   0.548   5.325  0.4548 -0.0358  0.1111
11369TIP3    H155598   3.625   0.530   5.248  0.1777 -0.7331  0.4693
11369TIP3    H255599   3.617   0.554   5.397  0.8485 -0.7493  0.5079
11370TIP3   OH255600   1.387   4.138  13.597 -0.3458 -0.7961 -0.4073
11370TIP3    H155601   1.441   4.216  13.610 -0.3759 -1.2326  2.8746
11370TIP3    H255602   1.314   4.168  13.543 -0.4105  1.5127  0.8699
11371TIP3   OH255603   6.047   2.897  16.128  0.4746 -0.1895  0.0223
11371TIP3    H155604   6.061   2.806  16.103 -0.1174 -0.0967 -0.6693
11371TIP3    H255605   5.987   2.894  16.202  1.8226 -0.4409  1.1378
11372TIP3   OH255606   3.680   5.331   4.186 -0.2258 -0.0469 -0.4523
11372TIP3    H155607   3.598   5.369   4.154 -0.3713  0.3494  0.3748
11372TIP3    H255608   3.727   5.405   4.225 -0.1172 -0.5423  0.3620
11373TIP3   OH255609   2.137   6.636   5.169  0.4264  0.1207 -0.1020
11373TIP3    H155610   2.133   6.669   5.079 -0.8746 -0.4270 -0.2669
11373TIP3    H255611   2.223   6.597   5.177  1.2581  1.8139 -0.5196
11374TIP3   OH255612   1.432   5.765   1.480  0.3869  0.4713 -0.0298
11374TIP3    H155613   1.392   5.852   1.489  1.1973  0.6572  2.0013
11374TIP3    H255614   1.415   5.740   1.390 -1.1378  2.1220 -0.2235
11375TIP3   OH255615   5.193   1.257   1.257 -0.1373  0.1828 -0.2595
11375TIP3    H155616   5.118   1.313   1.237 -0.0864  1.0277  1.8290
11375TIP3    H255617   5.257   1.315   1.298 -0.3618 -1.4841  2.6133
11376TIP3   OH255618   5.756   2.802  12.307 -0.1607 -0.1420  0.2845
11376TIP3    H155619   5.795   2.882  12.271 -1.6207  1.5842  2.4378
11376TIP3    H255620   5.672   2.831  12.343 -0.9534 -2.7741  0.5961
11377TIP3   OH255621   5.436   2.336  15.526 -0.2204  0.2569 -0.5935
11377TIP3    H155622   5.391   2.374  15.602  0.4662  0.9665 -0.5365
11377TIP3    H255623   5.386   2.368  15.451  1.1976  2.4965 -0.6315
11378TIP3   OH255624   4.535   3.895   3.025 -0.2013 -0.3796 -0.0578
11378TIP3    H155625   4.467   3.829   3.013  0.9077 -1.6737  0.7674
11378TIP3    H255626   4.615   3.854   2.991  0.3225  0.8695 -0.3677
11379TIP3   OH255627   4.516   1.860  14.897  0.3577 -0.4085 -0.0151
11379TIP3    H155628   4.528   1.787  14.836  0.5781 -0.0217 -0.4417
11379TIP3    H255629   4.589   1.853  14.958  1.6321  0.7249 -1.3696
11380TIP3   OH255630   2.049   0.222  17.020  0.6144 -0.2779 -0.7724
11380TIP3    H155631   2.115   0.276  17.063 -0.0356  0.6280 -0.9068
11380TIP3    H255632   2.010   0.171  17.091  0.7675 -0.0871 -0.5510
11381TIP3   OH255633   3.219   1.405   0.568  0.4808  0.5056 -0.0577
11381TIP3    H155634   3.227   1.330   0.626 -1.3520 -0.4608 -0.9812
11381TIP3    H255635   3.264   1.379   0.488  0.9197  0.8797  0.0679
11382TIP3   OH255636   3.455   1.386   0.961  0.7283  0.3829  0.2309
11382TIP3    H155637   3.431   1.326   0.891  0.3839  0.1092  0.5764
11382TIP3    H255638   3.399   1.360   1.034 -1.1357  2.6728 -0.3365
11383TIP3   OH255639   3.176   5.547  13.972  0.0195  0.2418 -1.0286
11383TIP3    H155640   3.204   5.464  14.011 -0.4395  0.3207 -0.5323
11383TIP3    H255641   3.130   5.593  14.043 -0.1315  0.7197 -1.4351
11384TIP3   OH255642   0.118   3.649  15.602  0.1107  0.1793  0.0644
11384TIP3    H155643   0.186   3.650  15.668 -1.1542 -0.5888  1.4086
11384TIP3    H255644   0.040   3.680  15.648 -0.6613  0.1463 -1.2033
11385TIP3   OH255645   5.551   6.136   4.171 -0.2146  0.3128  0.0874
11385TIP3    H155646   5.490   6.172   4.107 -0.3913 -1.5438 -0.8429
11385TIP3    H255647   5.519   6.168   4.255 -2.2683 -0.2835 -0.4239
11386TIP3   OH255648   5.579   4.997   5.451 -0.0085  0.3060 -0.1332
11386TIP3    H155649   5.653   4.936   5.461 -2.1702 -2.5220 -0.7724
11386TIP3    H255650   5.537   4.997   5.536  0.4503  1.5903  0.1041
11387TIP3   OH255651   3.386   3.032  10.471  0.6837  0.5085  0.0789
11387TIP3    H155652   3.314   3.055  10.530 -0.1610 -0.3964 -0.5817
11387TIP3    H255653   3.441   2.974  10.524 -0.1781 -0.4655 -0.0728
11388TIP3   OH255654   3.315   2.333   4.275  0.3502 -0.4190 -0.0326
11388TIP3    H155655   3.342   2.285   4.197  0.0138 -1.2539  0.3573
11388TIP3    H255656   3.255   2.400   4.242  0.0165 -0.9269 -0.4566
11389TIP3   OH255657   6.006   3.724  14.112 -0.2953 -0.6064 -0.5774
11389TIP3    H155658   5.997   3.819  14.102 -1.1027 -0.7882 -1.6434
11389TIP3    H255659   6.026   3.693  14.024 -1.7353 -1.6087 -0.5608
11390TIP3   OH255660   4.167   6.653   2.428 -0.1355  0.0818  0.0279
11390TIP3    H155661   4.193   6.743   2.406 -0.6299 -0.2915 -2.1502
11390TIP3    H255662   4.207   6.599   2.361 -3.3605 -0.8873 -1.2248
11391TIP3   OH255663   1.852   1.141  15.381 -0.7109 -0.0925 -0.0920
11391TIP3    H155664   1.929   1.174  15.334 -0.6563  1.1962  0.8608
11391TIP3    H255665   1.779   1.158  15.321 -0.2445 -1.4490 -1.0601
11392TIP3   OH255666   5.320   3.541   6.319 -0.0477  0.0864 -0.0626
11392TIP3    H155667   5.238   3.551   6.369 -0.4224  0.4295 -0.7468
11392TIP3    H255668   5.301   3.471   6.256  0.7159 -0.9733  0.8561
11393TIP3   OH255669   3.504   1.996   0.698  0.5348 -0.8220  0.6503
11393TIP3    H155670   3.416   1.968   0.675  0.5354  0.4576 -0.9745
11393TIP3    H255671   3.552   1.914   0.711 -0.6091 -1.5389  0.4651
11394TIP3   OH255672   0.060   2.378  16.975  0.3587  0.4120 -0.4544
11394TIP3    H155673   0.097   2.377  16.887 -0.1052 -0.0485 -0.6491
11394TIP3    H255674  -0.016   2.320  16.970  0.9702 -0.4877  0.5281
11395TIP3   OH255675   5.600   0.215  17.080  0.3568 -0.6046 -0.6189
11395TIP3    H155676   5.662   0.249  17.145  0.2809 -1.1967 -0.2330
11395TIP3    H255677   5.655   0.174  17.013  0.3700 -1.5851 -0.0182
11396TIP3   OH255678   3.921   6.144   5.318  0.5777  0.4289 -0.1952
11396TIP3    H155679   3.923   6.124   5.225  0.4634  0.9302 -0.3082
11396TIP3    H255680   3.921   6.059   5.362 -0.8815  0.1534 -0.6827
11397TIP3   OH255681   4.538   0.797   0.094  0.0579  0.1045  0.4602
11397TIP3    H155682   4.517   0.889   0.108  0.5420  0.0711  1.4406
11397TIP3    H255683   4.467   0.764   0.039  0.2707  1.2357 -0.4998
11398TIP3   OH255684   6.497   2.843  16.319  0.5009 -0.1625  0.1249
11398TIP3    H155685   6.551   2.893  16.257 -0.3803 -0.4455 -0.8874
11398TIP3    H255686   6.436   2.907  16.355  1.8877  0.2783  1.7056
11399TIP3   OH255687   5.344   4.393   5.318  0.3765 -0.2642  0.4024
11399TIP3    H155688   5.340   4.300   5.340 -0.7993 -0.0502  1.1058
11399TIP3    H255689   5.380   4.435   5.396  0.1305 -0.0312  0.3921
11400TIP3   OH255690   2.948   0.085  15.424 -0.4161  0.2913  0.2346
11400TIP3    H155691   2.929   0.028  15.498 -1.5155  1.1841  0.6531
11400TIP3    H255692   3.025   0.046  15.382 -0.0773 -0.4805  1.5624
11401TIP3   OH255693   1.923   5.710   1.076 -0.3050 -0.1188  0.6115
11401TIP3    H155694   1.926   5.653   1.153 -0.6755 -0.2499  0.5320
11401TIP3    H255695   2.010   5.751   1.073  0.1094 -0.9941  0.4300
11402TIP3   OH255696   4.962   2.926  16.755 -0.7119 -0.0703  0.0690
11402TIP3    H155697   4.991   2.837  16.740  0.9993  0.3165  0.9478
11402TIP3    H255698   4.898   2.943  16.686 -0.4969 -1.7077 -0.5401
11403TIP3   OH255699   5.054   5.927   5.978 -0.0213 -0.3496  0.2684
11403TIP3    H155700   4.966   5.951   5.949 -0.3424 -0.5544  1.0707
11403TIP3    H255701   5.060   5.833   5.958 -0.7649 -0.8127  2.1650
11404TIP3   OH255702   1.058   1.666   3.214 -0.0860 -0.2018 -0.0695
11404TIP3    H155703   0.990   1.690   3.277  1.5266  0.2405  1.5433
11404TIP3    H255704   1.023   1.587   3.171 -2.0985  0.6606 -0.0880
11405TIP3   OH255705   2.764   2.991   1.983  0.0787  0.4337  0.4001
11405TIP3    H155706   2.769   2.915   2.041 -2.4392 -0.9725 -1.1552
11405TIP3    H255707   2.703   3.051   2.028  1.7830  1.4420  1.4477
11406TIP3   OH255708   0.779   2.924   3.514 -0.0069 -0.5792 -0.0956
11406TIP3    H155709   0.831   2.948   3.591  0.6101 -2.1190 -0.0367
11406TIP3    H255710   0.843   2.908   3.445 -0.6433  5.4913 -2.4184
11407TIP3   OH255711   3.805   6.167   1.624 -0.4832  0.5868  0.3688
11407TIP3    H155712   3.748   6.236   1.658 -2.0117 -0.0224 -0.8870
11407TIP3    H255713   3.812   6.104   1.696  0.9994  2.0556  1.5591
11408TIP3   OH255714   6.364   3.810   6.148  0.6298 -0.0827 -0.2633
11408TIP3    H155715   6.318   3.853   6.220 -0.5947  1.8610 -2.1094
11408TIP3    H255716   6.456   3.829   6.164  0.3315  0.7914  0.5232
11409TIP3   OH255717   0.986   4.581   0.203  0.6010  0.2877  0.1012
11409TIP3    H155718   1.041   4.658   0.217 -0.5392  1.4133 -1.4931
11409TIP3    H255719   0.901   4.616   0.178  0.0048 -1.4835 -0.4326
11410TIP3   OH255720   0.444   6.242   0.583 -0.0921  0.4925  0.0418
11410TIP3    H155721   0.368   6.254   0.640 -1.4788  2.3756 -2.1561
11410TIP3    H255722   0.423   6.164   0.532  0.8740 -0.8275  1.6191
11411TIP3   OH255723   3.583   4.939  15.075 -0.3950  0.6554 -0.1592
11411TIP3    H155724   3.550   5.019  15.115 -1.7820  0.0848 -0.1516
11411TIP3    H255725   3.505   4.888  15.052  0.4690 -1.0230  0.4786
11412TIP3   OH255726   6.628   4.923  13.672  0.2182 -0.3949  0.1391
11412TIP3    H155727   6.709   4.882  13.702  0.6734 -1.3794 -2.2904
11412TIP3    H255728   6.582   4.854  13.623 -1.1509  0.7086 -0.1915
11413TIP3   OH255729   0.606   5.071  14.708 -0.3316  0.8279  0.0988
11413TIP3    H155730   0.547   5.031  14.771 -0.4022 -0.2458 -0.6328
11413TIP3    H255731   0.690   5.076  14.753 -0.4479  0.3166  0.3683
11414TIP3   OH255732   0.716   3.218   1.619 -0.0324  0.3134  0.0508
11414TIP3    H155733   0.683   3.136   1.655 -2.5789  1.7161  1.0656
11414TIP3    H255734   0.787   3.243   1.678  0.8661 -1.2165 -0.3639
11415TIP3   OH255735   4.819   6.670   1.796  0.2621  0.0996  0.2998
11415TIP3    H155736   4.855   6.594   1.750 -0.6740 -0.4786  0.5080
11415TIP3    H255737   4.886   6.692   1.861  0.0115 -1.3201  1.0673
11416TIP3   OH255738   3.014   6.751  14.601 -0.0578 -1.0852 -0.1597
11416TIP3    H155739   2.948   6.799  14.551 -0.8828 -1.3838  0.6215
11416TIP3    H255740   2.992   6.659  14.588 -0.3854 -1.1637  0.8577
11417TIP3   OH255741   6.059   1.745  11.161 -0.8238 -0.1572 -0.1148
11417TIP3    H155742   6.054   1.790  11.245 -0.0412 -0.7911  0.2804
11417TIP3    H255743   6.147   1.764  11.129 -0.3211 -1.7333  0.2601
11418TIP3   OH255744   6.048   2.362  14.930  0.2012  0.1395  0.2152
11418TIP3    H155745   6.074   2.441  14.883  0.6845 -0.0532  0.1505
11418TIP3    H255746   6.049   2.293  14.864 -2.4859  0.4883 -0.2436
11419TIP3   OH255747   5.182   2.297  11.735 -0.2370 -0.5765 -0.4550
11419TIP3    H155748   5.126   2.264  11.805 -1.3498  0.0063 -1.0514
11419TIP3    H255749   5.247   2.350  11.780 -0.4002 -0.9445  0.2247
11420TIP3   OH255750   0.292   2.141   2.105 -0.1825  0.1897  0.0138
11420TIP3    H155751   0.295   2.107   2.015  1.1361 -1.4866  0.6704
11420TIP3    H255752   0.378   2.181   2.118 -1.1485  2.4041 -0.1869
11421TIP3   OH255753   0.528   0.412   2.544  0.6340 -0.2277 -0.0341
11421TIP3    H155754   0.538   0.483   2.481  0.8870 -0.2661 -0.0366
11421TIP3    H255755   0.594   0.430   2.611 -0.5574  0.5902  0.9486
11422TIP3   OH255756   1.120   6.270   4.506 -0.4354  1.0922  0.0030
11422TIP3    H155757   1.041   6.217   4.517 -1.3586  2.0419 -1.8363
11422TIP3    H255758   1.100   6.351   4.553 -0.7009  1.4775 -0.7747
11423TIP3   OH255759   4.856   5.074  14.536  0.1547  0.1560 -0.6650
11423TIP3    H155760   4.933   5.093  14.590  0.0408  0.9685 -0.7834
11423TIP3    H255761   4.850   5.148  14.476  0.4216 -0.8533 -1.9611
11424TIP3   OH255762   0.715   1.243  11.502 -0.2543 -0.3572  0.1305
11424TIP3    H155763   0.634   1.197  11.525 -0.2502 -0.0586  0.7597
11424TIP3    H255764   0.718   1.240  11.407 -1.4914  0.4577  0.0599
11425TIP3   OH255765   3.808   3.886   3.493 -0.2225  0.5565 -0.1112
11425TIP3    H155766   3.830   3.821   3.559 -0.9364 -0.0633 -0.4758
11425TIP3    H255767   3.749   3.840   3.433 -0.8678  1.5768 -0.2745
11426TIP3   OH255768   0.690   5.880  13.577 -0.7476 -0.0661 -0.0089
11426TIP3    H155769   0.679   5.959  13.630 -4.8289 -2.3454  2.8965
11426TIP3    H255770   0.628   5.891  13.505  1.1524  0.8447 -1.5137
11427TIP3   OH255771   3.319   5.871  12.313 -0.1610 -0.7205 -0.5246
11427TIP3    H155772   3.295   5.952  12.270  1.7759  0.3841  0.4097
11427TIP3    H255773   3.413   5.879  12.330 -0.8521 -0.9177  4.1643
11428TIP3   OH255774   5.548   2.355  15.214 -0.0695 -0.0983 -0.4027
11428TIP3    H155775   5.503   2.416  15.155 -0.1623  0.1030 -0.1284
11428TIP3    H255776   5.498   2.360  15.296  1.4724  1.4595  0.4885
11429TIP3   OH255777   5.290   2.020   4.508 -0.3816 -0.3539  0.0211
11429TIP3    H155778   5.247   1.960   4.568 -0.8525 -0.0256  0.0159
11429TIP3    H255779   5.347   2.074   4.563 -1.0409  0.1511  0.2199
11430TIP3   OH255780   3.927   2.091   2.795 -0.1733  0.0894  0.4550
11430TIP3    H155781   3.943   2.105   2.702 -1.0475  0.4979  0.3619
11430TIP3    H255782   3.944   2.176   2.835  1.2921 -0.3619  0.8297
11431TIP3   OH255783   6.618   1.254  13.059  0.2532 -0.1751  0.6153
11431TIP3    H155784   6.614   1.319  13.129  1.2553  0.0100  0.5084
11431TIP3    H255785   6.708   1.258  13.027 -0.3513  0.1632 -1.0961
11432TIP3   OH255786   4.163   0.180  15.873 -0.4233 -0.1319  0.5341
11432TIP3    H155787   4.103   0.223  15.935 -1.0871 -1.2463  0.6937
11432TIP3    H255788   4.226   0.247  15.849 -1.7027  1.0551  0.4319
11433TIP3   OH255789   5.468   1.715  17.259  0.0167  0.6307  0.1603
11433TIP3    H155790   5.531   1.757  17.200 -0.3928  0.4565 -0.3981
11433TIP3    H255791   5.414   1.787  17.291  0.6289  0.8098  0.8005
11434TIP3   OH255792   2.490   2.340   1.430  0.5089 -0.0438 -0.2413
11434TIP3    H155793   2.454   2.258   1.399  0.6001 -0.4562  0.7255
11434TIP3    H255794   2.416   2.401   1.431  0.3510 -0.2336 -0.5373
11435TIP3   OH255795   5.463   0.460  11.519  0.4040 -0.0398 -0.1944
11435TIP3    H155796   5.453   0.488  11.428  2.0687 -0.6545 -0.5957
11435TIP3    H255797   5.537   0.511  11.552  0.1486 -0.2075  0.6424
11436TIP3   OH255798   6.489   0.448  17.122 -0.3004 -0.7284 -0.2080
11436TIP3    H155799   6.529   0.381  17.177  0.4430  0.6583  0.9803
11436TIP3    H255800   6.405   0.467  17.165  0.9881  1.5146  1.4381
11437TIP3   OH255801   6.318   5.529   3.957 -0.0645 -0.3818  0.0098
11437TIP3    H155802   6.412   5.515   3.954 -0.0216 -0.2937  0.8528
11437TIP3    H255803   6.300   5.587   3.883  0.6813  0.3845  0.4185
11438TIP3   OH255804   1.414   6.566  10.329 -0.1314 -0.0205 -0.0236
11438TIP3    H155805   1.393   6.562  10.422 -1.0928 -0.0813 -0.2410
11438TIP3    H255806   1.370   6.645  10.297 -0.1488 -0.2244 -0.5139
11439TIP3   OH255807   1.817   2.299  12.149  0.1444  0.6315 -0.1310
11439TIP3    H155808   1.900   2.266  12.183  1.2000  3.1296 -0.1887
11439TIP3    H255809   1.751   2.241  12.187  1.6254  0.8274  2.8138
11440TIP3   OH255810   4.937   0.332   5.246 -0.4360 -0.1065 -0.3386
11440TIP3    H155811   4.909   0.410   5.294  1.8037 -1.0771  2.6743
11440TIP3    H255812   4.982   0.366   5.168 -0.7354  1.5781  0.2209
11441TIP3   OH255813   0.581   1.347   4.991  0.0483 -0.9010  0.5860
11441TIP3    H155814   0.607   1.409   5.060 -0.2476 -2.2604  1.9640
11441TIP3    H255815   0.580   1.399   4.911  0.3768  0.7405  1.6141
11442TIP3   OH255816   0.847   3.523  14.225  0.3821  0.2792 -0.3420
11442TIP3    H155817   0.798   3.547  14.147  0.7397  3.3781  0.3379
11442TIP3    H255818   0.921   3.584  14.228  2.0282 -1.6838  0.8520
11443TIP3   OH255819   0.702   4.454   1.665  0.2689 -0.0326  0.4970
11443TIP3    H155820   0.698   4.419   1.754  0.0848 -0.8677  0.1678
11443TIP3    H255821   0.635   4.404   1.617  2.6162 -1.9432 -0.9039
11444TIP3   OH255822   4.077   3.652  16.463 -0.4752 -0.5706 -0.4225
11444TIP3    H155823   4.036   3.731  16.426  1.2869 -0.1399 -1.5227
11444TIP3    H255824   4.170   3.663  16.445 -0.0084 -2.1047  0.9593
11445TIP3   OH255825   2.552   4.238  12.588 -0.2130 -0.0242 -0.0888
11445TIP3    H155826   2.559   4.262  12.681 -0.2548  0.9928 -0.3484
11445TIP3    H255827   2.577   4.146  12.586  1.5129  0.4145  0.6752
11446TIP3   OH255828   3.910   4.604   4.248  0.1587 -0.7282 -0.0083
11446TIP3    H155829   3.827   4.635   4.212  0.4394 -0.0246 -0.0599
11446TIP3    H255830   3.889   4.580   4.339 -0.0702 -0.3982  0.0280
11447TIP3   OH255831   6.458   0.103   0.706  0.0086  0.4048  0.1276
11447TIP3    H155832   6.482   0.138   0.620  0.4165  0.1587  0.1411
11447TIP3    H255833   6.390   0.038   0.688 -1.4017  1.8235  0.1772
11448TIP3   OH255834   6.256   1.366   0.891  0.3084  0.2822  0.0257
11448TIP3    H155835   6.169   1.398   0.865  0.4993  1.2846  0.6092
11448TIP3    H255836   6.297   1.338   0.809 -0.3855  0.2455 -0.3121
11449TIP3   OH255837   4.032   2.579  12.927 -0.5673 -0.3642 -0.4962
11449TIP3    H155838   3.945   2.617  12.935 -0.2091  0.4072 -0.1096
11449TIP3    H255839   4.046   2.568  12.833 -0.5249  0.8531 -0.6439
11450TIP3   OH255840   0.365   4.085   1.190  0.5715  0.4884  0.6872
11450TIP3    H155841   0.388   4.057   1.101  1.1440  3.2372 -0.0845
11450TIP3    H255842   0.341   4.177   1.181  0.4138  0.7548  3.3506
11451TIP3   OH255843   3.769   4.804  10.899  0.6868  0.3233 -0.4796
11451TIP3    H155844   3.703   4.869  10.873  1.6124  1.5035  0.0613
11451TIP3    H255845   3.728   4.720  10.879 -1.8826  0.9177  1.8719
11452TIP3   OH255846   1.263   6.402   4.917 -0.6815 -0.0724  0.0862
11452TIP3    H155847   1.311   6.390   4.998  0.5001 -0.4563 -0.6619
11452TIP3    H255848   1.171   6.390   4.941 -0.6646  3.1224  2.0106
11453TIP3   OH255849   6.725   1.555   1.700 -0.3899 -0.1033 -0.4043
11453TIP3    H155850   6.631   1.541   1.715 -0.6457 -0.4238 -2.2263
11453TIP3    H255851   6.743   1.512   1.616  1.4530 -0.2960  0.0584
11454TIP3   OH255852   5.232   5.956  15.092 -0.1323 -0.8145  0.0414
11454TIP3    H155853   5.207   5.939  15.002  0.3132  1.1480 -0.4630
11454TIP3    H255854   5.185   6.035  15.117  0.3965 -0.8586  1.2532
11455TIP3   OH255855   4.318   2.356  16.463 -0.0693 -0.1638 -0.1003
11455TIP3    H155856   4.330   2.447  16.435 -0.9194 -0.3174 -0.9748
11455TIP3    H255857   4.252   2.321  16.403  0.3333 -1.3882  0.1654
11456TIP3   OH255858   2.110   0.769   3.817  0.6856  0.3485 -0.1810
11456TIP3    H155859   2.062   0.771   3.735 -1.2557  0.7767  0.9518
11456TIP3    H255860   2.094   0.855   3.857  2.8612  0.7315 -0.0288
11457TIP3   OH255861   5.286   2.921  16.566  0.2465  0.0686  0.1469
11457TIP3    H155862   5.353   2.855  16.549  0.1289  0.2228 -0.9898
11457TIP3    H255863   5.304   2.952  16.655  0.4507 -1.3084  0.5860
11458TIP3   OH255864   2.904   0.484   3.401  0.5470  0.2087  0.5669
11458TIP3    H155865   2.821   0.482   3.354  0.7984 -1.9811  0.1646
11458TIP3    H255866   2.885   0.534   3.480 -1.1045 -0.1373  0.4113
11459TIP3   OH255867   0.782   6.407  11.643 -0.1872  0.2212  0.0416
11459TIP3    H155868   0.850   6.467  11.614 -0.0804 -0.3242 -0.8444
11459TIP3    H255869   0.827   6.325  11.660 -0.8363 -0.6410 -2.1640
11460TIP3   OH255870   5.337   4.312   3.611  0.1639  0.1525 -0.2527
11460TIP3    H155871   5.422   4.309   3.655 -0.8926  0.2577  1.8606
11460TIP3    H255872   5.278   4.352   3.675 -1.8007 -1.2649 -1.1166
11461TIP3   OH255873   6.442   1.339   1.085 -0.2194 -0.3119  0.2678
11461TIP3    H155874   6.379   1.336   1.013  0.7894  1.6667 -0.7530
11461TIP3    H255875   6.407   1.405   1.145 -0.8048 -1.6012  1.3659
11462TIP3   OH255876   1.031   5.467  16.224 -0.2059  0.3300 -0.1582
11462TIP3    H155877   1.033   5.525  16.148  0.2356  1.3639  0.6209
11462TIP3    H255878   0.948   5.488  16.267 -1.0085 -1.1030 -0.9993
11463TIP3   OH255879   5.542   3.276   2.796 -0.5710 -0.5435 -0.3519
11463TIP3    H155880   5.613   3.217   2.771  0.4100  0.5793 -0.2031
11463TIP3    H255881   5.483   3.275   2.720  0.5525 -0.0190 -1.2391
11464TIP3   OH255882   0.182   4.164  15.190 -0.2974  0.2366  0.9335
11464TIP3    H155883   0.092   4.145  15.215  0.4569 -1.8814  2.2243
11464TIP3    H255884   0.176   4.202  15.102 -2.2477 -3.0789 -0.4622
11465TIP3   OH255885   2.663   1.869   0.186 -0.3439  0.2925 -0.4158
11465TIP3    H155886   2.706   1.947   0.219  0.4239  0.6004 -2.0989
11465TIP3    H255887   2.570   1.892   0.183 -0.5558 -0.0110  2.2052
11466TIP3   OH255888   2.638   1.630   3.068  0.0006  0.1464 -0.5461
11466TIP3    H155889   2.602   1.572   3.001 -2.1262  0.9979 -0.1799
11466TIP3    H255890   2.718   1.665   3.029  0.2177 -1.4237 -1.5771
11467TIP3   OH255891   6.555   1.079  11.580  0.5233 -0.3610  0.6506
11467TIP3    H155892   6.528   1.096  11.490 -2.0096 -2.6546  0.9068
11467TIP3    H255893   6.517   1.150  11.631  2.3989  1.2317 -0.1180
11468TIP3   OH255894   5.271   3.010   2.788  0.1025  0.3289  0.2275
11468TIP3    H155895   5.209   2.941   2.766  1.5183 -1.1494  0.7381
11468TIP3    H255896   5.242   3.042   2.874 -1.2464  1.1961 -0.5424
11469TIP3   OH255897   4.011   4.597   5.917 -0.3333 -0.1779 -0.4900
11469TIP3    H155898   4.028   4.631   5.829 -0.7070 -0.5670 -0.7136
11469TIP3    H255899   3.923   4.558   5.911 -1.1686  1.4908  0.5517
11470TIP3   OH255900   1.017   0.596  15.774 -0.0853  0.1094  0.1554
11470TIP3    H155901   1.101   0.642  15.771 -0.0429 -0.0260 -0.6745
11470TIP3    H255902   1.036   0.515  15.821  0.3718 -0.1886 -0.5519
11471TIP3   OH255903   3.184   3.686  13.067 -0.1924  0.0771  0.5761
11471TIP3    H155904   3.142   3.631  13.133 -0.4427 -1.2478 -0.6599
11471TIP3    H255905   3.115   3.704  13.003  0.4083  0.1708 -0.0539
11472TIP3   OH255906   4.705   4.134   2.544  0.1312 -0.0620  0.0207
11472TIP3    H155907   4.740   4.060   2.593  0.1390  0.5289  0.9237
11472TIP3    H255908   4.782   4.181   2.513  0.1302  0.2122  0.4338
11473TIP3   OH255909   5.527   1.756  12.639 -0.0666  0.2332 -0.7076
11473TIP3    H155910   5.574   1.802  12.709  1.0979 -0.0356 -1.2899
11473TIP3    H255911   5.472   1.823  12.599 -2.1340 -0.0125  1.6269
11474TIP3   OH255912   1.297   2.302  14.837  0.7022 -0.4823 -0.1958
11474TIP3    H155913   1.262   2.223  14.880  1.0710 -0.1397  0.7405
11474TIP3    H255914   1.223   2.338  14.789  0.0887 -0.4714  0.7482
11475TIP3   OH255915   1.252   2.072  11.068  0.0881 -0.4738 -0.2016
11475TIP3    H155916   1.252   2.149  11.125  1.0950 -0.5632 -0.0631
11475TIP3    H255917   1.341   2.037  11.076 -0.8543 -2.6704  1.1157
11476TIP3   OH255918   4.565   3.601  13.679 -1.0576 -0.3283  0.7323
11476TIP3    H155919   4.493   3.650  13.719 -0.1030 -0.1092  2.2528
11476TIP3    H255920   4.536   3.582  13.590 -2.0741  1.6775  0.6103
11477TIP3   OH255921   1.453   4.729  16.096  0.2870  0.6345  0.2732
11477TIP3    H155922   1.438   4.666  16.167  0.5096 -0.6440 -0.8071
11477TIP3    H255923   1.441   4.815  16.138 -0.0629 -0.1116  1.7461
11478TIP3   OH255924   6.361   3.294  11.946 -0.5264 -0.5618 -0.1019
11478TIP3    H155925   6.395   3.376  11.909 -1.7850 -0.4935 -1.1508
11478TIP3    H255926   6.268   3.312  11.962 -0.4969 -1.3362  0.9988
11479TIP3   OH255927   2.858   3.035  15.684  0.1100 -0.3399  0.0556
11479TIP3    H155928   2.893   3.050  15.772 -0.0918  0.6989 -0.0340
11479TIP3    H255929   2.892   2.949  15.660  1.4111  0.0114  0.5534
11480TIP3   OH255930   1.826   3.195   5.220 -0.0885 -0.1011  0.7485
11480TIP3    H155931   1.779   3.278   5.232 -0.1591  0.1337 -1.0219
11480TIP3    H255932   1.842   3.190   5.126  0.6109 -1.7342  0.9382
11481TIP3   OH255933   2.501   2.301   3.140 -0.5662 -0.1992 -0.5803
11481TIP3    H155934   2.427   2.310   3.201  0.8428 -0.0207  1.1515
11481TIP3    H255935   2.557   2.235   3.181  1.1748  1.0550 -0.8989
11482TIP3   OH255936   3.610   2.584  13.885 -0.3556 -0.5501  0.3413
11482TIP3    H155937   3.568   2.648  13.942 -0.1458 -0.4884  0.4263
11482TIP3    H255938   3.643   2.516  13.944 -1.1692 -1.0782  0.1994
11483TIP3   OH255939   1.478   0.947   5.457 -0.0176  0.1315 -0.7210
11483TIP3    H155940   1.410   0.887   5.427  0.4637 -1.4937  1.3130
11483TIP3    H255941   1.558   0.917   5.412  0.2164 -0.7746  0.2688
11484TIP3   OH255942   2.912   6.143   1.543 -0.4177  0.3531 -0.2253
11484TIP3    H155943   2.986   6.116   1.488  2.9282  1.0834  3.6582
11484TIP3    H255944   2.923   6.237   1.553 -0.2704  0.0779  2.5285
11485TIP3   OH255945   5.885   2.684   4.920  0.6304 -0.4707  0.1568
11485TIP3    H155946   5.827   2.636   4.980 -0.4062 -0.7780 -1.0689
11485TIP3    H255947   5.859   2.776   4.932  0.1735 -0.5663 -0.0853
11486TIP3   OH255948   5.197   4.902  10.936 -0.3570 -0.7004  0.4544
11486TIP3    H155949   5.231   4.860  11.015  0.5437 -1.0478 -0.1169
11486TIP3    H255950   5.135   4.968  10.969 -0.3351 -1.1570  1.4268
11487TIP3   OH255951   2.968   0.388   1.218  0.2043 -0.4374 -0.2757
11487TIP3    H155952   3.002   0.477   1.210 -1.0287 -0.0738 -1.5766
11487TIP3    H255953   2.947   0.379   1.311  1.8277  0.0593  0.1519
11488TIP3   OH255954   1.359   1.501  10.761 -0.4622  0.4864 -0.3168
11488TIP3    H155955   1.392   1.510  10.671 -0.5434 -0.3698 -0.4279
11488TIP3    H255956   1.438   1.483  10.813 -0.6264 -0.6574 -0.4535
11489TIP3   OH255957   1.232   4.961  11.746 -0.1805  0.0356 -0.1855
11489TIP3    H155958   1.259   5.024  11.679 -0.0714  1.5938  1.3131
11489TIP3    H255959   1.280   4.987  11.824 -1.6306 -0.7281  0.9686
11490TIP3   OH255960   6.423   0.517  13.336 -0.1428 -0.1350  0.6525
11490TIP3    H155961   6.366   0.463  13.389  0.6806 -2.1565 -0.4486
11490TIP3    H255962   6.403   0.492  13.245 -0.7584  2.4469  0.0536
11491TIP3   OH255963   6.243   6.728   3.677  0.5765 -0.3204 -0.3994
11491TIP3    H155964   6.183   6.797   3.707  0.8838 -0.2790  0.1319
11491TIP3    H255965   6.199   6.689   3.602  1.3014  1.7804 -1.9536
11492TIP3   OH255966   1.182   2.318  13.873  0.5657  0.0978 -0.8987
11492TIP3    H155967   1.151   2.393  13.824 -1.4704  0.1949  0.4617
11492TIP3    H255968   1.177   2.345  13.965  1.6011 -1.0462 -0.4886
11493TIP3   OH255969   3.373   3.868   0.306  0.4791 -0.1826  0.1197
11493TIP3    H155970   3.391   3.945   0.359  0.0920  1.0297 -1.4917
11493TIP3    H255971   3.287   3.837   0.337  0.0947  0.7168 -0.0532
11494TIP3   OH255972   4.363   6.714   1.738  0.2549  0.3106 -0.3928
11494TIP3    H155973   4.443   6.679   1.776  1.3113  1.6720 -1.3334
11494TIP3    H255974   4.363   6.807   1.760  0.4808  0.9574 -2.9550
11495TIP3   OH255975   6.483   4.305  16.034  0.3073  0.0030  0.1035
11495TIP3    H155976   6.399   4.285  15.992 -0.1973  1.2065  0.5351
11495TIP3    H255977   6.532   4.352  15.967  0.8202 -1.0856 -0.3001
11496TIP3   OH255978   0.423   3.854  15.513 -0.1180 -0.3978 -0.0699
11496TIP3    H155979   0.502   3.856  15.567  0.3427 -1.2382 -0.7028
11496TIP3    H255980   0.414   3.763  15.487 -2.4845 -0.7139  1.7118
11497TIP3   OH255981   5.133   2.877  13.454  0.4933 -0.7231 -0.1151
11497TIP3    H155982   5.130   2.972  13.452  0.8215 -0.7255 -0.9270
11497TIP3    H255983   5.081   2.850  13.378  0.4962 -1.1826  0.0461
11498TIP3   OH255984   4.438   5.915   4.264  0.4178 -0.3961 -0.1134
11498TIP3    H155985   4.451   5.929   4.358 -1.4583  0.7088  0.0090
11498TIP3    H255986   4.364   5.853   4.260 -0.3043  0.5136 -0.8743
11499TIP3   OH255987   5.288   2.211   2.446  0.7116  0.1791  0.4740
11499TIP3    H155988   5.260   2.140   2.388  0.5542 -0.7243  1.6404
11499TIP3    H255989   5.384   2.206   2.446  0.7178  0.3031  0.1421
11500TIP3   OH255990   3.102   3.285  15.290 -0.3527 -0.7295  0.0063
11500TIP3    H155991   3.126   3.372  15.260 -0.2303 -0.1770  1.6533
11500TIP3    H255992   3.018   3.267  15.248 -0.5919  0.3562  0.0108
11501TIP3   OH255993   3.212   6.108   2.593 -0.2881 -0.4516 -0.2336
11501TIP3    H155994   3.206   6.170   2.665  0.7109 -0.6825  0.0662
11501TIP3    H255995   3.167   6.150   2.520 -0.3034  0.2816  0.1988
11502TIP3   OH255996   4.773   2.875  17.067  0.1773 -0.3713 -0.2247
11502TIP3    H155997   4.838   2.893  17.135 -0.3818 -0.8364  0.4470
11502TIP3    H255998   4.798   2.789  17.033  0.9558  0.2346 -1.2029
11503TIP3   OH255999   1.463   3.464   5.470  0.7635  0.1340  0.4798
11503TIP3    H156000   1.554   3.493   5.472  0.9190 -0.4009  1.4273
11503TIP3    H256001   1.455   3.416   5.387  1.4462 -0.1623  0.5829
11504TIP3   OH256002   0.283   2.184   0.133  0.5592  0.0198  0.0156
11504TIP3    H156003   0.375   2.193   0.157  1.2906 -2.1171 -1.8216
11504TIP3    H256004   0.272   2.236   0.054  1.3702 -3.3095 -2.4094
11505TIP3   OH256005   1.202   3.326   3.395  0.0469  0.3348  0.5106
11505TIP3    H156006   1.227   3.361   3.310 -0.3667 -2.4326 -0.8027
11505TIP3    H256007   1.285   3.309   3.439  0.3517 -1.1797 -0.6117
11506TIP3   OH256008   2.101   5.215   6.309 -0.4251 -0.1832  0.7896
11506TIP3    H156009   2.043   5.274   6.358  1.2404  1.1252  1.2115
11506TIP3    H256010   2.170   5.271   6.276  0.2992 -1.6406 -0.2102
11507TIP3   OH256011   3.274   1.278  17.176 -0.0187 -0.1588 -0.2726
11507TIP3    H156012   3.186   1.272  17.213  0.0557 -0.0303 -0.0759
11507TIP3    H256013   3.260   1.272  17.081 -0.2529 -0.0259 -0.2497
11508TIP3   OH256014   0.078   0.245   3.239 -0.0880 -0.1660 -0.3610
11508TIP3    H156015   0.075   0.239   3.335 -1.5557  1.1701 -0.2984
11508TIP3    H256016   0.166   0.216   3.216  1.7024  3.3790  1.7115
11509TIP3   OH256017   4.038   2.628   0.949  0.1995 -0.1069  0.2144
11509TIP3    H156018   4.130   2.609   0.929  0.6566  1.2088  1.0070
11509TIP3    H256019   4.035   2.633   1.045 -1.1317 -2.1886  0.3121
11510TIP3   OH256020   1.972   6.801  14.821  0.8760 -0.0049  0.4211
11510TIP3    H156021   2.044   6.757  14.777  1.4263  0.8299  0.4795
11510TIP3    H256022   1.987   6.894  14.804 -1.7513  0.0647 -2.0196
11511TIP3   OH256023   5.698   3.183   0.126  0.0597 -0.8890  0.0107
11511TIP3    H156024   5.712   3.272   0.159 -0.0025 -0.7699 -0.2847
11511TIP3    H256025   5.635   3.193   0.055  0.0353 -1.1742 -0.0099
11512TIP3   OH256026   6.449   0.141  15.935 -0.5732  0.2398  0.1487
11512TIP3    H156027   6.357   0.121  15.950 -0.7052  1.2406  0.6996
11512TIP3    H256028   6.490   0.055  15.921 -1.0116 -0.5067  3.1237
11513TIP3   OH256029   0.904   5.304  11.764  0.2301  0.5337 -0.1832
11513TIP3    H156030   0.855   5.376  11.803  1.7161  2.0534 -1.0932
11513TIP3    H256031   0.991   5.310  11.802  0.7725  0.0737 -1.3225
11514TIP3   OH256032   6.445   2.506   5.459 -0.1376 -0.2512  0.3797
11514TIP3    H156033   6.496   2.572   5.412 -1.8365  0.1314 -0.9550
11514TIP3    H256034   6.373   2.555   5.497 -1.2922 -1.2971 -0.4320
11515TIP3   OH256035   3.198   5.552   1.179  0.4368 -0.0575 -0.4840
11515TIP3    H156036   3.202   5.561   1.084  0.9373 -0.6315 -0.5170
11515TIP3    H256037   3.153   5.469   1.194 -2.0461  1.3125 -0.1912
11516TIP3   OH256038   0.078   3.666  14.804  0.1106  0.0378  0.4624
11516TIP3    H156039   0.027   3.648  14.725  1.8299  0.9000 -0.8748
11516TIP3    H256040   0.148   3.600  14.803 -2.2694 -2.7120  3.5575
11517TIP3   OH256041   4.425   0.370  11.721 -0.0514 -0.0871 -0.1098
11517TIP3    H156042   4.384   0.420  11.650  0.7301  0.9454  0.1410
11517TIP3    H256043   4.517   0.365  11.696  0.0621 -0.4835  0.3947
11518TIP3   OH256044   5.510   3.445   2.014 -0.1016 -0.1033  0.5863
11518TIP3    H156045   5.598   3.471   2.043 -0.7193  0.4108  2.0418
11518TIP3    H256046   5.504   3.353   2.037  0.8460 -0.6933 -1.4861
11519TIP3   OH256047   0.110   0.222   1.474 -0.4973  0.2836  0.2011
11519TIP3    H156048   0.147   0.213   1.562 -1.9414  1.5145  0.9645
11519TIP3    H256049   0.016   0.229   1.489 -0.8134 -0.1684 -1.5067
11520TIP3   OH256050   6.157   5.707   2.907 -0.1105 -0.0925 -0.1778
11520TIP3    H156051   6.130   5.695   2.998  2.0673 -0.5264  0.4473
11520TIP3    H256052   6.243   5.666   2.902  1.2649  2.7796 -1.5836
11521TIP3   OH256053   6.721   5.619   6.394  0.2147 -0.1803  0.1588
11521TIP3    H156054   6.767   5.535   6.399  0.3460 -0.0408  1.4102
11521TIP3    H256055   6.761   5.673   6.463 -0.9152  0.3894  0.3835
11522TIP3   OH256056   0.193   2.543  16.441  0.1302 -0.3781 -0.0490
11522TIP3    H156057   0.281   2.577  16.456  0.5992 -1.2653 -0.7711
11522TIP3    H256058   0.173   2.564  16.350 -0.2071 -0.6238 -0.0348
11523TIP3   OH256059   3.449   4.819   5.630  0.4766  0.7862  0.0359
11523TIP3    H156060   3.509   4.809   5.703  1.2434  0.4371 -0.6394
11523TIP3    H256061   3.408   4.733   5.620 -1.0634  1.3414  1.2782
11524TIP3   OH256062   6.457   4.008  10.438  0.0732 -0.1324  0.2539
11524TIP3    H156063   6.401   4.019  10.515  0.9911 -1.7030  1.1847
11524TIP3    H256064   6.420   4.067  10.373 -1.3285  0.4902  1.5715
11525TIP3   OH256065   2.963   0.369   5.739 -0.2689  0.3481  0.2692
11525TIP3    H156066   2.952   0.352   5.646  0.5616 -1.7472  0.5172
11525TIP3    H256067   3.049   0.411   5.746  0.5522 -1.2611  0.2427
11526TIP3   OH256068   3.973   1.164   5.700 -0.2898  0.2536  0.0817
11526TIP3    H156069   3.878   1.162   5.701 -0.2839  0.0748  1.8906
11526TIP3    H256070   3.998   1.082   5.658 -0.9283  0.7890 -1.3771
11527TIP3   OH256071   0.690   4.066  15.788 -1.0213  0.1896  0.1067
11527TIP3    H156072   0.609   4.065  15.839  0.0122  0.0491  1.7445
11527TIP3    H256073   0.757   4.098  15.848  0.5522 -1.6772 -0.5974
11528TIP3   OH256074   4.749   5.031   5.573  0.1227 -0.1302 -0.3892
11528TIP3    H156075   4.772   4.938   5.574  0.7587  0.0439  1.5012
11528TIP3    H256076   4.771   5.063   5.660 -0.1055  1.8060 -1.0170
11529TIP3   OH256077   3.777   4.445  14.712  0.2388 -0.0407 -0.4642
11529TIP3    H156078   3.760   4.533  14.676  0.5172  1.0837  2.0751
11529TIP3    H256079   3.843   4.408  14.653 -0.1678  1.2981 -1.7966
11530TIP3   OH256080   2.793   5.399  15.529 -0.3409  0.3928  0.3939
11530TIP3    H156081   2.721   5.400  15.466  0.2702  1.1360 -0.3091
11530TIP3    H256082   2.751   5.418  15.613 -0.7387  2.6272 -0.2730
11531TIP3   OH256083   0.796   1.687   4.617  0.2009  0.3254 -0.0897
11531TIP3    H156084   0.854   1.623   4.576  0.0929  0.0496  0.1816
11531TIP3    H256085   0.814   1.769   4.571 -0.1479 -0.0473 -0.8994
11532TIP3   OH256086   1.437   5.406   2.593  0.6357  0.5110  0.2323
11532TIP3    H156087   1.393   5.473   2.645 -0.3758 -0.1806  0.2776
11532TIP3    H256088   1.367   5.346   2.567  1.6703 -1.0729  1.0475
11533TIP3   OH256089   5.225   4.653  16.130  0.1373 -0.5516 -0.0600
11533TIP3    H156090   5.284   4.683  16.199  0.3761  0.0067 -0.5072
11533TIP3    H256091   5.262   4.688  16.049 -0.4582 -0.7203 -0.4097
11534TIP3   OH256092   6.231   6.412  14.242 -0.0905  0.2582 -0.3045
11534TIP3    H156093   6.150   6.362  14.254 -0.1247  0.8357  2.4085
11534TIP3    H256094   6.215   6.467  14.165 -1.8314 -0.4931 -0.4936
11535TIP3   OH256095   6.060   0.653  15.909 -0.2711 -0.3240 -0.0678
11535TIP3    H156096   6.016   0.591  15.967 -1.0918  1.2477  1.0320
11535TIP3    H256097   6.135   0.684  15.960  1.1750 -1.7278 -1.2967
11536TIP3   OH256098   4.658   5.126   2.223  0.7749  0.0281  0.3987
11536TIP3    H156099   4.618   5.041   2.204 -2.1925  1.1944  1.1491
11536TIP3    H256100   4.751   5.112   2.207  0.5845 -3.7841  1.9044
11537TIP3   OH256101   2.503   1.119  12.467 -0.5568  0.2329  0.2564
11537TIP3    H156102   2.494   1.085  12.378  2.6206  0.8813 -0.3760
11537TIP3    H256103   2.538   1.045  12.517 -0.3811  0.4734  0.4898
11538TIP3   OH256104   0.328   3.621   5.349  0.1883 -0.1018  0.1651
11538TIP3    H156105   0.268   3.547   5.350 -1.1095  0.9269  0.3496
11538TIP3    H256106   0.312   3.665   5.265  0.1826  0.5671  0.5068
11539TIP3   OH256107   5.961   3.106   0.119  0.2769  0.2454  0.2375
11539TIP3    H156108   6.002   3.021   0.131 -0.9787 -0.1253  2.2166
11539TIP3    H256109   5.867   3.089   0.129 -0.1036  1.6133 -0.8393
11540TIP3   OH256110   4.476   1.338   4.489 -0.2646  0.2639  0.2744
11540TIP3    H156111   4.474   1.417   4.435 -1.4799  0.1313  0.1181
11540TIP3    H256112   4.426   1.362   4.567  0.0126 -0.1089  0.5675
11541TIP3   OH256113   1.124   6.067   2.188 -0.2288  0.4355 -0.3358
11541TIP3    H156114   1.092   5.979   2.165 -0.1064  0.2023  0.3748
11541TIP3    H256115   1.116   6.117   2.107 -0.3619 -0.2158 -0.7322
11542TIP3   OH256116   5.132   4.505   2.621 -0.2447  0.3489 -0.1306
11542TIP3    H156117   5.199   4.449   2.660  0.1860 -0.0142 -1.3879
11542TIP3    H256118   5.057   4.496   2.680 -0.3340 -1.8901 -0.5353
11543TIP3   OH256119   6.547   4.722  15.113  0.4877 -0.2532  0.2040
11543TIP3    H156120   6.522   4.808  15.146  1.4172 -0.7297  2.1948
11543TIP3    H256121   6.475   4.665  15.137  1.3195 -0.6703  1.7479
11544TIP3   OH256122   6.078   2.748  10.617 -0.2716  0.1913 -0.0163
11544TIP3    H156123   6.108   2.659  10.630 -3.0146 -0.3218  4.0176
11544TIP3    H256124   6.011   2.741  10.549 -0.4367 -0.8662  0.2408
11545TIP3   OH256125   4.574   2.444  13.955 -0.3305  0.4272 -0.0196
11545TIP3    H156126   4.654   2.494  13.971 -1.0328  1.9695 -1.1730
11545TIP3    H256127   4.505   2.510  13.948 -1.2433 -0.6551 -1.8400
11546TIP3   OH256128   6.115   0.481  17.007  0.4096  0.1901 -0.6918
11546TIP3    H156129   6.090   0.571  16.985  0.5714  0.3574 -0.1798
11546TIP3    H256130   6.148   0.485  17.096 -2.6098 -0.9172  0.5541
11547TIP3   OH256131   4.898   2.812  13.803  0.1035  0.3078 -0.7405
11547TIP3    H156132   4.828   2.800  13.739 -2.2053  1.4654  1.5085
11547TIP3    H256133   4.962   2.867  13.757  0.7830 -2.7344 -3.6634
11548TIP3   OH256134   3.354   4.430   3.435 -0.1800  0.1057 -0.3150
11548TIP3    H156135   3.331   4.352   3.486  0.3766 -0.3356 -0.7340
11548TIP3    H256136   3.427   4.469   3.483  0.4428 -0.3945 -0.8615
11549TIP3   OH256137   2.259   2.509   4.624  0.1939 -0.4759 -0.2490
11549TIP3    H156138   2.292   2.420   4.617  0.8541 -0.1312 -1.6884
11549TIP3    H256139   2.278   2.549   4.539 -1.7044  0.4916 -0.2522
11550TIP3   OH256140   2.607   4.652   1.603  0.1220  0.5624  0.4823
11550TIP3    H156141   2.617   4.671   1.696  1.2453  0.8079  0.3124
11550TIP3    H256142   2.606   4.556   1.599  2.5613  0.5123  0.5015
11551TIP3   OH256143   3.630   0.194   3.901 -1.0364 -0.4720  0.2077
11551TIP3    H156144   3.635   0.098   3.906  2.6689 -0.3587  0.3293
11551TIP3    H256145   3.621   0.212   3.808 -0.7529 -0.9256  0.0875
11552TIP3   OH256146   5.133   2.492   4.052  0.0331 -0.4595 -0.2262
11552TIP3    H156147   5.058   2.433   4.050 -0.4912  0.1952  0.2412
11552TIP3    H256148   5.184   2.463   4.128 -1.0456  0.7015  0.9502
11553TIP3   OH256149   4.940   1.783  12.557 -0.1355 -0.1787  0.2664
11553TIP3    H156150   4.853   1.823  12.552 -0.5596 -1.1346 -0.3555
11553TIP3    H256151   4.933   1.722  12.631  0.0264 -0.2167  0.2502
11554TIP3   OH256152   2.744   4.192  15.349 -0.1432  0.2818 -0.4118
11554TIP3    H156153   2.802   4.118  15.365  0.1032  0.4032 -0.7424
11554TIP3    H256154   2.747   4.243  15.430 -1.6284 -0.9646  0.4417
11555TIP3   OH256155   6.016   5.516  12.988  0.2867  0.8083 -0.4463
11555TIP3    H156156   5.987   5.511  13.079  1.4246 -1.6416 -0.1642
11555TIP3    H256157   5.950   5.467  12.939  1.2869 -0.5570 -0.4727
11556TIP3   OH256158   0.979   2.519  15.538 -0.5158  0.1948 -0.1272
11556TIP3    H156159   0.915   2.568  15.590 -0.6211  0.7333 -0.7564
11556TIP3    H256160   1.007   2.580  15.471 -0.8483 -0.6912 -1.0864
11557TIP3   OH256161   6.265   3.894   1.722  0.6023  0.2654  0.1552
11557TIP3    H156162   6.309   3.879   1.805 -0.4081  0.4159  0.7310
11557TIP3    H256163   6.289   3.983   1.697  0.7596  0.2833  0.3727
11558TIP3   OH256164   0.764   0.859   1.726  0.1798 -0.1089 -0.0108
11558TIP3    H156165   0.702   0.813   1.669  0.9515 -1.8730  0.5280
11558TIP3    H256166   0.722   0.943   1.745 -1.2432 -0.5650 -1.0623
11559TIP3   OH256167   1.230   5.472  15.828 -0.1424  0.2000 -0.4909
11559TIP3    H156168   1.320   5.440  15.832 -0.5367 -1.1986 -2.1009
11559TIP3    H256169   1.210   5.476  15.734 -1.9831 -0.2126 -0.1533
11560TIP3   OH256170   2.210   6.141   2.992  0.0206 -0.1771  0.0886
11560TIP3    H156171   2.166   6.224   2.974 -0.7799 -0.1716  1.8656
11560TIP3    H256172   2.282   6.164   3.050  0.1863 -0.6354  0.0671
11561TIP3   OH256173   3.682   6.135  12.037  0.2361  0.0251 -0.0070
11561TIP3    H156174   3.632   6.102  11.963  2.2880  2.8116 -2.7497
11561TIP3    H256175   3.755   6.074  12.046  1.0472  0.7678 -1.5404
11562TIP3   OH256176   1.901   3.230  16.229 -0.5434 -0.1440 -0.0659
11562TIP3    H156177   1.813   3.192  16.233 -0.0027 -1.5168 -0.9752
11562TIP3    H256178   1.901   3.284  16.150 -0.2985 -0.8198 -0.5251
11563TIP3   OH256179   1.709   6.769   3.395  0.2044  0.1041 -0.5443
11563TIP3    H156180   1.664   6.750   3.477  0.0873 -1.2823 -0.9168
11563TIP3    H256181   1.640   6.804   3.338 -0.2157 -1.0809 -0.7871
11564TIP3   OH256182   3.816   4.580  17.126 -1.3232 -0.1734  0.3043
11564TIP3    H156183   3.748   4.537  17.074 -0.3958  0.0200 -1.0847
11564TIP3    H256184   3.788   4.672  17.130 -1.3205 -0.1617  0.0357
11565TIP3   OH256185   4.041   4.415  12.685 -0.3760  0.1082 -0.1956
11565TIP3    H156186   4.136   4.418  12.681 -0.3500 -0.9424 -0.6833
11565TIP3    H256187   4.011   4.492  12.638  0.2409  1.0436  0.9141
11566TIP3   OH256188   5.406   3.545   3.893 -0.1556 -0.1532 -0.8992
11566TIP3    H156189   5.492   3.513   3.866 -0.0075 -1.1423  0.6774
11566TIP3    H256190   5.346   3.472   3.875 -0.7632  0.7092 -2.4502
11567TIP3   OH256191   5.517   6.153   6.481  0.4095 -0.2784  0.0210
11567TIP3    H156192   5.564   6.130   6.561  0.1576 -2.1498 -0.3392
11567TIP3    H256193   5.584   6.156   6.413  0.2801 -1.1929 -0.1575
11568TIP3   OH256194   3.696   4.441  13.783 -0.6788  0.0232  0.0908
11568TIP3    H156195   3.653   4.358  13.799  0.2325 -0.1113  1.9805
11568TIP3    H256196   3.789   4.423  13.798 -0.2738  0.9603 -1.2195
11569TIP3   OH256197   0.563   6.478   6.085  0.1323 -0.1115  0.4599
11569TIP3    H156198   0.623   6.503   6.154  0.7730 -1.0679  0.2581
11569TIP3    H256199   0.476   6.493   6.122  0.4531 -1.2611  1.7351
11570TIP3   OH256200   1.893   6.593   3.051  0.3759  0.1520  0.3662
11570TIP3    H156201   1.808   6.549   3.048  0.4972 -0.0162 -0.6655
11570TIP3    H256202   1.920   6.587   3.143 -1.5381  1.7887  1.0688
11571TIP3   OH256203   1.810   1.884   2.672 -0.3694  0.2160  0.8231
11571TIP3    H156204   1.840   1.793   2.681 -0.8818 -0.2751 -1.8704
11571TIP3    H256205   1.884   1.929   2.631  0.2618  1.2815  3.0824
11572TIP3   OH256206   2.455   6.219   5.671 -0.2962 -0.4005  0.5057
11572TIP3    H156207   2.478   6.145   5.728 -1.2883 -0.5771  0.6772
11572TIP3    H256208   2.459   6.296   5.728  1.2927 -0.2387  0.1973
11573TIP3   OH256209   6.463   1.771  13.918 -0.0746 -0.8542 -0.4984
11573TIP3    H156210   6.384   1.717  13.912 -0.9344 -0.0163  2.5770
11573TIP3    H256211   6.527   1.716  13.962  0.2405 -0.6295 -0.6721
11574TIP3   OH256212   1.243   0.509  16.690  0.3350  0.3358  0.8469
11574TIP3    H156213   1.312   0.451  16.720 -0.0396 -0.9172 -0.6629
11574TIP3    H256214   1.288   0.587  16.660  1.1149 -0.5692 -0.3452
11575TIP3   OH256215   6.166   5.666  16.590  0.2920  0.4793  0.1780
11575TIP3    H156216   6.083   5.694  16.551  0.1078  0.5477  0.6224
11575TIP3    H256217   6.228   5.733  16.564  0.2166  0.4100 -0.1846
11576TIP3   OH256218   2.972   0.543   0.449 -0.4338 -0.0995 -0.0322
11576TIP3    H156219   2.973   0.497   0.365  0.9907  1.8675 -1.1184
11576TIP3    H256220   2.912   0.617   0.435  1.2446  1.3005  0.0855
11577TIP3   OH256221   0.313   5.617   2.856  0.5400 -0.1035  0.0289
11577TIP3    H156222   0.297   5.662   2.772 -0.3099 -1.1662 -0.3887
11577TIP3    H256223   0.408   5.614   2.864  0.6265 -0.0825 -0.9380
11578TIP3   OH256224   0.470   0.745  11.099 -0.4772 -0.2140 -0.1391
11578TIP3    H156225   0.407   0.673  11.101  0.1104 -0.7449 -0.6102
11578TIP3    H256226   0.454   0.788  11.015 -0.9183  0.2879  0.2003
11579TIP3   OH256227   5.354   1.225   4.975 -0.4981 -0.1827  0.6910
11579TIP3    H156228   5.388   1.314   4.983  0.6669 -0.6933  1.6156
11579TIP3    H256229   5.313   1.222   4.889 -0.4569  1.2212  0.6188
11580TIP3   OH256230   0.776   1.186   3.543  0.7379  0.5158 -0.2002
11580TIP3    H156231   0.853   1.141   3.507 -1.9433 -2.4431 -2.6694
11580TIP3    H256232   0.759   1.257   3.481  0.4389  0.0290 -0.6820
11581TIP3   OH256233   6.176   2.266  12.120  0.5931 -0.5388  0.6408
11581TIP3    H156234   6.268   2.243  12.131  0.9450  0.3464 -0.3943
11581TIP3    H256235   6.173   2.361  12.123 -0.5785 -0.6164  2.7366
11582TIP3   OH256236   4.879   0.648  13.927  0.7993 -0.0699 -0.4468
11582TIP3    H156237   4.856   0.560  13.958 -0.7746  0.5817  0.3085
11582TIP3    H256238   4.803   0.675  13.875  0.0115  1.9452  1.6758
11583TIP3   OH256239   1.155   1.324  12.450  0.4730  0.2370  0.2474
11583TIP3    H156240   1.133   1.231  12.451  1.2383  0.0272 -1.1929
11583TIP3    H256241   1.109   1.361  12.526 -1.3328 -0.9602 -0.2520
11584TIP3   OH256242   6.378   1.303   0.634  0.7508 -0.4994 -0.4285
11584TIP3    H156243   6.437   1.375   0.609  0.1204 -0.0463 -0.6303
11584TIP3    H256244   6.298   1.319   0.584  0.5698 -1.2963 -0.4030
11585TIP3   OH256245   0.313   3.910   2.697 -0.3802 -0.0774  0.1188
11585TIP3    H156246   0.376   3.875   2.760 -1.1445  0.9008  1.4541
11585TIP3    H256247   0.235   3.930   2.749 -0.7272  1.5432 -0.9772
11586TIP3   OH256248   5.652   4.582   3.786 -0.7279  0.2007  0.3409
11586TIP3    H156249   5.693   4.578   3.699  0.7164 -0.2849  1.0163
11586TIP3    H256250   5.600   4.502   3.792 -1.6788  0.7413 -0.4669
11587TIP3   OH256251   5.894   4.462  13.027 -0.2757  0.2180  0.2823
11587TIP3    H156252   5.977   4.497  12.995 -0.5786  0.5363 -0.1545
11587TIP3    H256253   5.877   4.385  12.972 -0.4306  0.3392  0.1588
11588TIP3   OH256254   6.474   0.034  10.477 -0.0098  0.1094 -0.2417
11588TIP3    H156255   6.443  -0.056  10.464 -1.3061  0.7489 -1.6999
11588TIP3    H256256   6.400   0.089  10.453 -0.4467  1.5864  4.0879
11589TIP3   OH256257   1.668   0.163   3.115  0.3924 -0.3493 -0.4390
11589TIP3    H156258   1.592   0.129   3.164 -0.5457  2.5306  0.1913
11589TIP3    H256259   1.631   0.189   3.031  0.6534  1.1858 -0.0778
11590TIP3   OH256260   5.191   3.020  12.335  0.2007 -0.1551 -0.0452
11590TIP3    H156261   5.161   3.110  12.322 -1.8164 -0.8506 -0.4115
11590TIP3    H256262   5.199   2.985  12.247  0.4805 -0.4885  0.1142
11591TIP3   OH256263   4.372   0.673   4.847  0.3991 -0.0669  0.1367
11591TIP3    H156264   4.439   0.679   4.779 -0.1570  0.0628 -0.4057
11591TIP3    H256265   4.309   0.609   4.813 -0.2819  0.5724  0.1698
11592TIP3   OH256266   5.376   5.475  12.675 -0.9469 -0.7089 -0.0643
11592TIP3    H156267   5.341   5.563  12.659 -1.1660 -0.7912 -0.0323
11592TIP3    H256268   5.461   5.475  12.631 -1.4648 -0.8716 -1.0753
11593TIP3   OH256269   1.418   2.398   3.566 -0.4335  0.2147 -0.1551
11593TIP3    H156270   1.476   2.438   3.631 -1.3005 -0.3638  0.9897
11593TIP3    H256271   1.474   2.337   3.519  0.4067  1.2518 -0.5410
11594TIP3   OH256272   3.185   4.465   4.949 -0.2076 -0.1456 -0.4576
11594TIP3    H156273   3.196   4.374   4.924  2.1047 -0.6655  2.1917
11594TIP3    H256274   3.091   4.475   4.965 -0.2765 -2.5120  0.7887
11595TIP3   OH256275   1.224   2.766   2.828  0.2221 -0.0240 -0.0530
11595TIP3    H156276   1.151   2.802   2.879  2.1483 -0.1070  2.8642
11595TIP3    H256277   1.183   2.732   2.749 -2.6283  1.8261  0.5588
11596TIP3   OH256278   0.799   1.546  15.672  0.2707  0.5233 -0.0792
11596TIP3    H156279   0.864   1.481  15.646  0.2234  0.0326  1.0256
11596TIP3    H256280   0.754   1.569  15.590  3.0433  2.2458 -1.1986
11597TIP3   OH256281   3.374   1.855  15.413  0.3340 -0.2514 -0.2361
11597TIP3    H156282   3.423   1.926  15.373  0.5674 -0.4299 -0.2691
11597TIP3    H256283   3.411   1.847  15.501 -0.8847  0.8380  0.4007
11598TIP3   OH256284   2.345   2.670  11.412  0.4177 -0.0931 -0.3150
11598TIP3    H156285   2.413   2.621  11.364 -0.1229 -0.2761 -0.8972
11598TIP3    H256286   2.273   2.608  11.421  0.5023 -0.0519  0.7248
11599TIP3   OH256287   3.303   2.923  14.776  0.5185  0.4315 -0.0999
11599TIP3    H156288   3.387   2.940  14.819  0.0381 -1.2872  1.5711
11599TIP3    H256289   3.299   2.828  14.767 -0.7975  0.5700 -1.1254
11600TIP3   OH256290   4.332   2.390  15.359 -0.3389 -0.6498 -0.2006
11600TIP3    H156291   4.378   2.424  15.435  1.1651  0.1505 -1.4245
11600TIP3    H256292   4.322   2.466  15.301  1.3488 -1.8624 -2.1467
11601TIP3   OH256293   4.608   3.552  12.320  0.0159 -0.1707 -0.8137
11601TIP3    H156294   4.627   3.638  12.358  1.7776 -0.6039 -0.7001
11601TIP3    H256295   4.514   3.555  12.300  0.1611  1.9508 -1.2671
11602TIP3   OH256296   0.458   0.947  16.340  0.0653  0.2324  0.7633
11602TIP3    H156297   0.405   0.949  16.260  0.4089  0.9123  0.5485
11602TIP3    H256298   0.533   0.892  16.317  0.4911  0.9563  0.4067
11603TIP3   OH256299   0.204   4.050  17.160  0.3616  0.3685  0.1611
11603TIP3    H156300   0.161   4.131  17.186  0.1303 -0.1066  1.2971
11603TIP3    H256301   0.179   4.037  17.068 -0.6509  0.8987  0.3611
11604TIP3   OH256302   1.666   4.467   1.007 -0.5094 -0.0174  0.0958
11604TIP3    H156303   1.626   4.550   1.030 -0.3549  0.5769 -1.6865
11604TIP3    H256304   1.609   4.431   0.938 -1.1449 -1.8757  1.5368
11605TIP3   OH256305   6.669   0.947  16.581  0.4106 -0.3242  0.2351
11605TIP3    H156306   6.630   0.939  16.668  0.5965 -1.1351  0.2464
11605TIP3    H256307   6.628   1.025  16.543 -0.6160 -0.7022  0.5646
11606TIP3   OH256308   0.400   4.818  13.727 -0.4097  0.6290 -0.2108
11606TIP3    H156309   0.388   4.856  13.814 -0.4771  1.0107 -0.3867
11606TIP3    H256310   0.452   4.739  13.743 -0.3963  0.7108  0.1706
11607TIP3   OH256311   1.994   6.327  15.736 -0.0283  0.0772  0.4843
11607TIP3    H156312   1.975   6.381  15.813  2.7522  0.3427  1.0218
11607TIP3    H256313   2.031   6.387  15.672 -0.1610 -0.5682 -0.2070
11608TIP3   OH256314   2.998   2.441   4.994  0.5573 -0.2801  0.3039
11608TIP3    H156315   3.068   2.499   5.024 -0.1844  0.3351  0.8606
11608TIP3    H256316   3.040   2.355   4.986  1.2163 -0.0685  1.3144
11609TIP3   OH256317   0.732   5.976  10.708  0.4258 -0.6167 -0.5122
11609TIP3    H156318   0.727   6.017  10.622 -0.7948  1.3101  0.4496
11609TIP3    H256319   0.675   6.029  10.764  2.3140 -0.9447  1.8264
11610TIP3   OH256320   0.042   2.564  14.107  0.0869 -0.0617 -0.6249
11610TIP3    H156321   0.019   2.471  14.111 -0.2229  0.0565  0.6616
11610TIP3    H256322  -0.041   2.609  14.096  0.1641  0.0935 -0.5734
11611TIP3   OH256323   4.333   1.850  12.139 -0.1014 -0.1105 -0.1391
11611TIP3    H156324   4.249   1.896  12.146  0.1060  0.7575 -2.7699
11611TIP3    H256325   4.398   1.920  12.133  0.6471 -0.7723  0.2040
11612TIP3   OH256326   3.287   4.337  12.579  0.6096  0.3162 -0.1580
11612TIP3    H156327   3.281   4.430  12.601  1.6095  0.4606 -0.4480
11612TIP3    H256328   3.236   4.329  12.498  0.8569  0.6986 -0.3577
11613TIP3   OH256329   2.435   4.690   5.224  0.4028 -0.3991  0.2512
11613TIP3    H156330   2.339   4.691   5.225  0.4065 -0.2366  1.2023
11613TIP3    H256331   2.460   4.765   5.170  0.0078  1.0325  2.0219
11614TIP3   OH256332   2.121   2.070  16.294 -0.3755 -0.6642 -0.1957
11614TIP3    H156333   2.201   2.105  16.253  0.0687 -1.7145 -0.2351
11614TIP3    H256334   2.087   2.008  16.230 -0.5926 -1.0792  0.3197
11615TIP3   OH256335   0.507   6.258  14.964 -0.1886  0.5742 -0.0874
11615TIP3    H156336   0.487   6.164  14.956  1.0586  0.3973 -1.4537
11615TIP3    H256337   0.602   6.262  14.972 -0.1978  1.7470 -0.4496
11616TIP3   OH256338   6.274   2.676   1.315 -0.0471 -0.1635 -0.4086
11616TIP3    H156339   6.188   2.642   1.290 -0.3936 -1.1251  1.9406
11616TIP3    H256340   6.319   2.601   1.354  1.7796  0.3900 -1.4127
11617TIP3   OH256341   6.132   1.971  17.123 -0.0906 -0.0412 -0.1770
11617TIP3    H156342   6.099   1.886  17.092  0.7708 -0.8505  1.0728
11617TIP3    H256343   6.221   1.952  17.153 -0.1432  1.1631  0.7600
11618TIP3   OH256344   6.452   0.003  14.912 -0.1077  0.0448 -0.7639
11618TIP3    H156345   6.367  -0.023  14.946  0.5108 -0.5165  0.3900
11618TIP3    H256346   6.470   0.087  14.956 -0.0413  0.1425 -0.9752
11619TIP3   OH256347   1.250   1.137  14.908  0.0868  0.1223 -0.5561
11619TIP3    H156348   1.342   1.154  14.887 -0.3117  1.6766 -1.0633
11619TIP3    H256349   1.201   1.200  14.856 -1.4499 -2.5688 -2.5315
11620TIP3   OH256350   1.300   0.598  11.178  0.6606  0.3851  0.1495
11620TIP3    H156351   1.326   0.602  11.270 -1.1932  1.6454  0.6307
11620TIP3    H256352   1.336   0.677  11.139  0.1702  0.6005  0.1317
11621TIP3   OH256353   1.510   2.650  15.703 -0.2408  0.4863  0.4357
11621TIP3    H156354   1.555   2.704  15.637  0.5592 -0.0910  0.4975
11621TIP3    H256355   1.417   2.661  15.683 -0.0227  0.6703 -0.5154
11622TIP3   OH256356   0.616   4.758   1.045 -0.0952 -0.3388  0.0006
11622TIP3    H156357   0.664   4.705   1.109  0.3165  1.3952  1.1847
11622TIP3    H256358   0.660   4.742   0.962 -0.3015 -2.2177  0.2375
11623TIP3   OH256359   4.740   3.911   5.933 -0.1156 -0.2303  0.1118
11623TIP3    H156360   4.694   3.985   5.971  0.3126 -1.3796  3.0389
11623TIP3    H256361   4.799   3.949   5.868 -0.0873  1.9530  1.3797
11624TIP3   OH256362   0.620   1.785   5.140 -0.4145  0.3877 -0.4319
11624TIP3    H156363   0.564   1.839   5.195  0.2717 -0.1485  0.8395
11624TIP3    H256364   0.681   1.847   5.100 -1.5226  0.8966 -1.3542
11625TIP3   OH256365   1.345   0.152  13.809 -0.0600  0.3273  0.2844
11625TIP3    H156366   1.270   0.093  13.814 -0.7655  0.8472 -3.0877
11625TIP3    H256367   1.421   0.093  13.809 -0.7067 -0.5338 -1.6526
11626TIP3   OH256368   5.421   1.671  16.882 -0.5513 -0.2854  0.2381
11626TIP3    H156369   5.369   1.747  16.906 -1.3260 -0.5210 -0.6287
11626TIP3    H256370   5.417   1.614  16.958 -0.7297  0.1458  0.5525
11627TIP3   OH256371   0.315   2.449   3.367 -0.3185  0.3197  0.6558
11627TIP3    H156372   0.285   2.487   3.284  0.9076  1.9098  0.9126
11627TIP3    H256373   0.409   2.436   3.355 -0.2705 -0.1663  1.5263
11628TIP3   OH256374   5.332   1.364  13.509 -0.2888  0.0843  0.0375
11628TIP3    H156375   5.257   1.308  13.486  0.0006 -0.2431 -0.1078
11628TIP3    H256376   5.308   1.403  13.593  0.2919 -1.6561  1.0190
11629TIP3   OH256377   6.312   3.978   0.948  0.0800 -0.9656 -0.3388
11629TIP3    H156378   6.401   3.960   0.917  0.4549  0.3493 -0.0533
11629TIP3    H256379   6.292   3.906   1.007  0.2166 -2.3016 -1.8702
11630TIP3   OH256380   1.851   3.622   1.318 -0.0991  0.4175 -0.6458
11630TIP3    H156381   1.946   3.620   1.332  0.2679  0.4151 -2.9150
11630TIP3    H256382   1.820   3.698   1.368  0.8504 -0.4986  1.3931
11631TIP3   OH256383   3.198   3.944   4.281 -0.0382 -0.1167 -0.1585
11631TIP3    H156384   3.111   3.940   4.319 -0.3644  0.0516 -0.8780
11631TIP3    H256385   3.209   3.859   4.237  0.1255 -0.1031 -0.1466
11632TIP3   OH256386   3.986   0.344   2.495  0.4462 -0.2514 -0.7647
11632TIP3    H156387   3.973   0.329   2.402 -2.1571  1.2061 -0.7016
11632TIP3    H256388   3.977   0.439   2.506 -1.5273 -0.6032  1.2244
11633TIP3   OH256389   5.791   1.473   5.443  0.0187  0.3149 -0.3161
11633TIP3    H156390   5.750   1.554   5.471 -1.4529 -1.1072  1.8416
11633TIP3    H256391   5.738   1.444   5.368 -1.2996 -0.1516  0.7806
11634TIP3   OH256392   1.948   5.261   3.848 -0.4461 -0.3799 -0.0850
11634TIP3    H156393   1.948   5.283   3.755 -0.6512 -0.6953 -0.1600
11634TIP3    H256394   2.040   5.266   3.874 -0.5853  1.4096  0.1032
11635TIP3   OH256395   1.319   3.139  16.828  0.0200 -0.7448 -0.5590
11635TIP3    H156396   1.382   3.101  16.766  2.3756  0.1300  1.2178
11635TIP3    H256397   1.353   3.115  16.914 -1.3543  0.8763  0.4497
11636TIP3   OH256398   4.514   2.715   0.470  0.4982  0.1516  0.4121
11636TIP3    H156399   4.448   2.781   0.451  0.2664 -0.5952 -1.6266
11636TIP3    H256400   4.595   2.751   0.433  0.8842  0.3532  1.4529
11637TIP3   OH256401   3.197   2.504   4.101  0.6254 -0.0959  0.6140
11637TIP3    H156402   3.122   2.543   4.145 -1.4922 -2.0951 -1.0840
11637TIP3    H256403   3.160   2.458   4.026  3.5327 -1.3052 -0.1745
11638TIP3   OH256404   3.789   4.409  16.310  0.0380 -0.2480 -0.2485
11638TIP3    H156405   3.823   4.438  16.226 -0.4506  1.7193  0.2138
11638TIP3    H256406   3.785   4.488  16.364 -1.3062 -1.1604  1.0603
11639TIP3   OH256407   2.030   0.088   4.086  0.1766 -0.8582 -0.1490
11639TIP3    H156408   1.976   0.130   4.019 -0.6140 -1.1222  0.3217
11639TIP3    H256409   2.068   0.161   4.135 -0.2112 -0.6802 -0.1120
11640TIP3   OH256410   4.748   1.174   5.227  0.1861 -0.2833 -0.3157
11640TIP3    H156411   4.707   1.104   5.176  1.1742 -2.1415  1.4108
11640TIP3    H256412   4.839   1.147   5.237  0.6865  1.4587  0.0366
11641TIP3   OH256413   4.789   1.526  15.129 -0.2671  0.1686 -0.2738
11641TIP3    H156414   4.801   1.578  15.208 -0.5318 -1.3597  0.8051
11641TIP3    H256415   4.828   1.441  15.151  0.7344  0.0935 -2.2094
11642TIP3   OH256416   3.359   6.760  11.856 -0.0375  0.4024 -0.1252
11642TIP3    H156417   3.307   6.689  11.818 -0.0772 -1.2734  2.9000
11642TIP3    H256418   3.294   6.822  11.891 -0.0286 -0.3551  1.2632
11643TIP3   OH256419   0.481   1.893  17.243  0.1995  0.3384 -0.0701
11643TIP3    H156420   0.392   1.924  17.229  0.4198  1.6628  1.3786
11643TIP3    H256421   0.471   1.811  17.290 -0.3107 -0.7541 -2.0113
11644TIP3   OH256422   2.792   6.362  16.285 -0.0561 -0.4340  0.2839
11644TIP3    H156423   2.845   6.326  16.356  2.2056 -0.1599 -1.2090
11644TIP3    H256424   2.830   6.325  16.206  0.9186  3.3923 -1.1605
11645TIP3   OH256425   2.419   4.893   0.160  0.5718 -0.1672 -0.3068
11645TIP3    H156426   2.479   4.938   0.101  0.2608  0.8589  0.1553
11645TIP3    H256427   2.455   4.805   0.168  1.8514  0.3525 -0.2697
11646TIP3   OH256428   4.051   4.074   3.757 -0.3365 -0.1551 -0.0359
11646TIP3    H156429   4.023   4.097   3.669  1.0790 -0.1606 -0.5110
11646TIP3    H256430   3.975   4.090   3.812 -1.1069  0.2378 -1.2028
11647TIP3   OH256431   2.086   0.597   5.073  0.0392  0.3109  0.2423
11647TIP3    H156432   2.124   0.682   5.095 -0.3952  0.3412  0.8736
11647TIP3    H256433   2.051   0.609   4.985 -0.6116  0.9841  0.5898
11648TIP3   OH256434   4.782   5.408   2.485  0.4988  0.1112  0.5095
11648TIP3    H156435   4.773   5.442   2.395  2.2417  0.3824  0.4258
11648TIP3    H256436   4.876   5.399   2.498  0.2543 -0.0542  2.2768
11649TIP3   OH256437   1.740   4.425   5.185 -0.0391 -0.1549  0.0602
11649TIP3    H156438   1.811   4.424   5.121 -1.0703 -0.0853 -1.0949
11649TIP3    H256439   1.682   4.495   5.156 -1.2138 -1.0142  0.2884
11650TIP3   OH256440   1.124   0.949   2.840 -0.0682  0.4461 -0.3654
11650TIP3    H156441   1.066   1.022   2.819 -0.1680  0.5352  0.2254
11650TIP3    H256442   1.073   0.894   2.899  0.2070  0.1791 -0.3755
11651TIP3   OH256443   2.891   4.906  14.063  0.3649 -0.1289 -0.4287
11651TIP3    H156444   2.850   4.829  14.023  0.8509  0.4296 -2.0124
11651TIP3    H256445   2.818   4.953  14.103 -0.1282 -0.6674 -0.6758
11652TIP3   OH256446   2.155   6.085  14.124  0.0036  0.3326 -0.2376
11652TIP3    H156447   2.062   6.069  14.136 -0.1793  0.4894 -1.4360
11652TIP3    H256448   2.173   6.163  14.176  0.1891 -1.6291  2.7946
11653TIP3   OH256449   2.681   3.551   4.437  0.1942  0.2453  0.0413
11653TIP3    H156450   2.680   3.467   4.389  0.3459 -0.2370  0.8756
11653TIP3    H256451   2.609   3.601   4.399  0.5719  0.0341 -0.9875
11654TIP3   OH256452   2.897   5.454   1.753 -0.4741  0.0194 -0.2102
11654TIP3    H156453   2.830   5.397   1.716 -0.7192 -0.2812  0.6780
11654TIP3    H256454   2.851   5.534   1.776 -0.8448 -0.7467  1.7854
11655TIP3   OH256455   5.683   0.574   6.486 -0.0275  0.2047  0.1900
11655TIP3    H156456   5.722   0.624   6.557  0.0028  2.7534 -1.5752
11655TIP3    H256457   5.744   0.502   6.471  2.6431  2.5803 -0.6901
11656TIP3   OH256458   6.773   3.655  17.054  0.5982  0.0670 -0.0575
11656TIP3    H156459   6.727   3.668  16.972 -0.6470  0.6667  0.7096
11656TIP3    H256460   6.822   3.573  17.042  1.7449  1.0003 -1.9460
11657TIP3   OH256461   1.366   3.206   2.955 -0.1368  0.0291 -0.4217
11657TIP3    H156462   1.320   3.136   2.907 -0.2355  0.0479 -0.3552
11657TIP3    H256463   1.436   3.234   2.896  1.6575 -2.0255  0.7006
11658TIP3   OH256464   4.692   2.744  16.296  0.1939  1.1387  0.1820
11658TIP3    H156465   4.631   2.815  16.274  2.1248  2.8460  0.0842
11658TIP3    H256466   4.677   2.727  16.389 -0.3510  1.6379  0.1924
11659TIP3   OH256467   5.519   4.145  15.621 -0.0387  0.5505 -0.0366
11659TIP3    H156468   5.516   4.083  15.694 -0.1910  1.1549  0.4871
11659TIP3    H256469   5.597   4.121  15.572  0.4358  0.5401  0.7044
11660TIP3   OH256470   5.643   4.322   1.994 -0.3555 -0.3336  0.1753
11660TIP3    H156471   5.606   4.375   2.065  1.3919 -1.5347  2.0158
11660TIP3    H256472   5.686   4.386   1.937  0.5289  0.3853  1.6191
11661TIP3   OH256473   4.179   4.750  11.872  0.0543  0.1912  0.3434
11661TIP3    H156474   4.205   4.712  11.788  0.2779  0.8247  0.1308
11661TIP3    H256475   4.103   4.804  11.851 -0.6143 -0.5651  0.7417
11662TIP3   OH256476   1.557   2.809  16.692 -0.0366  0.3596 -0.2445
11662TIP3    H156477   1.615   2.844  16.759 -0.0062  1.8807 -1.0525
11662TIP3    H256478   1.501   2.747  16.738  1.2606 -0.0388  0.8104
11663TIP3   OH256479   4.667   1.603   1.190 -0.1576  0.5514  0.3667
11663TIP3    H156480   4.681   1.695   1.210  1.2244  0.2545  0.7923
11663TIP3    H256481   4.610   1.571   1.260  0.5333  0.7451  1.0251
11664TIP3   OH256482   6.425   1.960   5.111 -0.1241  0.2419 -0.0599
11664TIP3    H156483   6.505   2.008   5.134  0.5327 -1.0172  0.3132
11664TIP3    H256484   6.436   1.874   5.152 -0.9457 -0.4956 -1.3617
11665TIP3   OH256485   0.577   6.050  12.451 -0.2353  0.4052  0.1572
11665TIP3    H156486   0.671   6.051  12.433 -0.3175 -1.4449 -0.3964
11665TIP3    H256487   0.568   6.100  12.533  1.2869  0.1060  0.5149
11666TIP3   OH256488   3.447   4.407  12.023  0.1030  0.5043 -0.3145
11666TIP3    H156489   3.497   4.415  12.104 -0.0857 -0.6599 -0.0728
11666TIP3    H256490   3.394   4.487  12.019 -1.0280 -0.1300  1.5046
11667TIP3   OH256491   0.536   6.676  14.292 -0.3188 -0.0496 -0.1697
11667TIP3    H156492   0.459   6.626  14.320 -0.2710  0.5932  1.1614
11667TIP3    H256493   0.501   6.746  14.236 -0.5857 -0.4158 -0.4584
11668TIP3   OH256494   2.465   1.710  13.806  0.4274 -0.4030  0.1643
11668TIP3    H156495   2.424   1.671  13.884  0.1533 -0.9345 -0.2410
11668TIP3    H256496   2.468   1.804  13.825 -0.9567 -0.3544  0.2201
11669TIP3   OH256497   4.392   6.657  13.985 -0.1227 -0.4613 -0.0052
11669TIP3    H156498   4.313   6.644  13.933  0.6276 -1.1832 -1.0024
11669TIP3    H256499   4.374   6.615  14.068 -1.5456  1.1832  0.5401
11670TIP3   OH256500   3.429   5.191   2.627 -0.5538  0.4188  0.2469
11670TIP3    H156501   3.415   5.280   2.594 -0.1391  0.1487 -0.6625
11670TIP3    H256502   3.391   5.192   2.715  1.0876  2.0336  0.9784
11671TIP3   OH256503   5.589   5.164  15.079 -0.5495 -0.4903  0.2011
11671TIP3    H156504   5.609   5.071  15.090 -2.2318 -0.9081 -0.0026
11671TIP3    H256505   5.495   5.165  15.060 -0.5463  1.2590  0.2410
11672TIP3   OH256506   2.469   0.922   0.581 -0.5225  0.9545 -0.1915
11672TIP3    H156507   2.479   0.890   0.671 -0.5223 -0.7211 -0.7579
11672TIP3    H256508   2.429   1.008   0.590 -0.6590  0.7441  1.4074
11673TIP3   OH256509   1.644   0.149  15.082  0.1370  0.0514 -0.3809
11673TIP3    H156510   1.683   0.195  15.007  0.9841 -0.7268 -0.4329
11673TIP3    H256511   1.557   0.188  15.092 -0.4980 -0.7028 -2.5794
11674TIP3   OH256512   2.044   4.817  16.080  0.2254  0.0307 -0.3045
11674TIP3    H156513   1.976   4.750  16.074 -0.3454  0.5789 -0.1674
11674TIP3    H256514   2.050   4.836  16.174  1.4042 -0.8401 -0.1949
11675TIP3   OH256515   0.839   2.107   4.796 -0.2770  0.4703 -0.6276
11675TIP3    H156516   0.907   2.128   4.732  0.9683  1.4422  0.9540
11675TIP3    H256517   0.866   2.154   4.875  0.1126 -3.4668  1.6966
11676TIP3   OH256518   3.856   1.030  13.812  0.1979 -0.3571 -0.2353
11676TIP3    H156519   3.822   0.957  13.864  0.3886 -1.6686 -1.9048
11676TIP3    H256520   3.780   1.064  13.766 -0.5513  2.7382  3.0928
11677TIP3   OH256521   3.635   4.377   3.131 -0.5564 -0.2829  0.2731
11677TIP3    H156522   3.541   4.382   3.147 -0.2879  0.8455  1.5872
11677TIP3    H256523   3.667   4.465   3.151  0.6460 -0.4058 -1.0400
11678TIP3   OH256524   5.864   2.208  13.550  0.1786 -0.3600  0.7116
11678TIP3    H156525   5.952   2.175  13.568  0.5499 -0.6605 -1.4542
11678TIP3    H256526   5.879   2.290  13.502 -0.7369  0.4801  1.8225
11679TIP3   OH256527   1.381   2.302  16.634  0.2334 -0.2472  0.2021
11679TIP3    H156528   1.296   2.321  16.593  1.3630  0.7880 -1.7103
11679TIP3    H256529   1.405   2.384  16.679 -0.9306 -1.3268  2.9020
11680TIP3   OH256530   2.919   1.706  16.575  0.3032  0.0386  0.0916
11680TIP3    H156531   2.938   1.612  16.574  0.2123  0.0059  0.8509
11680TIP3    H256532   3.001   1.746  16.606  0.4296  0.2386 -0.4874
11681TIP3   OH256533   4.016   1.131   1.852  0.0700  1.3719  0.6714
11681TIP3    H156534   4.061   1.096   1.775 -3.3387 -0.3842 -0.6239
11681TIP3    H256535   4.024   1.226   1.843  0.3884  1.1667 -1.4574
11682TIP3   OH256536   1.020   6.118   1.577  0.1067 -0.1377  0.4213
11682TIP3    H156537   1.065   6.034   1.569  0.9537  0.3338  0.2124
11682TIP3    H256538   1.088   6.183   1.566 -0.7419  0.6008 -0.6140
11683TIP3   OH256539   6.797   3.832  14.576  0.4107 -0.4917 -0.0986
11683TIP3    H156540   6.724   3.878  14.619  0.3403  0.1381 -0.8735
11683TIP3    H256541   6.757   3.789  14.500  0.3418 -2.4776  1.0463
11684TIP3   OH256542   2.089   2.503   3.059 -0.3253 -0.2087  0.3631
11684TIP3    H156543   2.032   2.496   3.135 -1.9298  1.4429 -0.6613
11684TIP3    H256544   2.101   2.413   3.029 -1.1131 -0.6970  1.5001
11685TIP3   OH256545   0.251   0.960   0.903  0.3458 -0.4993 -0.2764
11685TIP3    H156546   0.168   1.005   0.923  0.5026 -0.5010  0.4021
11685TIP3    H256547   0.249   0.883   0.960  0.7151 -0.6138 -0.4238
11686TIP3   OH256548   1.639   3.075  13.790 -0.3623  0.5454  0.3447
11686TIP3    H156549   1.672   3.073  13.700  0.6013  0.2812  0.6940
11686TIP3    H256550   1.544   3.071  13.782 -0.2394 -0.3250 -0.6228
11687TIP3   OH256551   3.608   4.760   0.722  0.1391 -0.6080  0.4223
11687TIP3    H156552   3.554   4.836   0.697  0.9447 -0.3530 -0.5570
11687TIP3    H256553   3.621   4.712   0.640  1.1984 -0.8013  0.7022
11688TIP3   OH256554   3.671   0.825  14.202 -0.5723  0.4350 -0.3814
11688TIP3    H156555   3.633   0.881  14.135  0.5034  0.2752 -1.1413
11688TIP3    H256556   3.762   0.856  14.210  0.3550 -1.8666 -1.5854
11689TIP3   OH256557   0.961   3.876   1.640  0.1739  0.0996 -0.0848
11689TIP3    H156558   0.873   3.896   1.607 -0.2819  0.2280  1.1600
11689TIP3    H256559   0.949   3.869   1.735  1.6309  0.7425  0.1535
11690TIP3   OH256560   2.306   5.123  12.265 -0.2248 -0.5640  0.0917
11690TIP3    H156561   2.298   5.040  12.312 -2.4016  0.6144  1.8887
11690TIP3    H256562   2.279   5.189  12.328  0.6543  1.4627 -1.5918
11691TIP3   OH256563   1.189   5.483  14.230 -0.0340 -0.3970 -0.5306
11691TIP3    H156564   1.108   5.432  14.228  0.0810 -0.5817 -0.4482
11691TIP3    H256565   1.255   5.422  14.261 -0.4490  0.5638  2.4140
11692TIP3   OH256566   5.262   0.511  15.350  0.1210 -0.4900  0.2053
11692TIP3    H156567   5.230   0.556  15.428 -1.8184 -1.3181 -0.0775
11692TIP3    H256568   5.243   0.419  15.366  1.9489 -0.9567 -0.2052
11693TIP3   OH256569   4.890   5.013  17.081 -0.0519  0.0245 -0.0435
11693TIP3    H156570   4.938   5.095  17.092 -0.8661  0.3942  0.8732
11693TIP3    H256571   4.893   4.972  17.168  0.3742 -0.9259 -0.5071
11694TIP3   OH256572   0.679   4.430  15.287 -0.2776 -0.0383 -0.0454
11694TIP3    H156573   0.726   4.368  15.231 -0.0561 -0.5994  0.7477
11694TIP3    H256574   0.719   4.419  15.373 -1.2855  0.0858  0.4465
11695TIP3   OH256575   5.768   2.570   0.031 -0.4900  0.3549 -0.1708
11695TIP3    H156576   5.732   2.583   0.118  0.2543  0.3803  0.1359
11695TIP3    H256577   5.826   2.494   0.040 -0.1746  0.5485 -0.5685
11696TIP3   OH256578   6.770   4.659   4.888 -0.1928  0.4045 -0.1105
11696TIP3    H156579   6.713   4.694   4.819  1.7284 -0.9168 -2.4094
11696TIP3    H256580   6.734   4.572   4.907 -2.0460  1.5852  2.2103
11697TIP3   OH256581   3.473   5.939  17.045  0.0076  0.4891  0.6274
11697TIP3    H156582   3.471   5.874  17.115  1.7344  0.1173  0.3468
11697TIP3    H256583   3.413   5.905  16.979  0.1726 -0.3372  0.8978
11698TIP3   OH256584   5.281   2.488   5.695  0.5300 -0.5916 -0.0897
11698TIP3    H156585   5.203   2.444   5.728 -0.0072 -1.1291 -2.0385
11698TIP3    H256586   5.248   2.549   5.629  1.7067 -0.4463 -0.5591
11699TIP3   OH256587   1.416   5.250   4.566 -0.1389  0.0668  0.0156
11699TIP3    H156588   1.326   5.239   4.536  0.6595 -1.5383 -1.9418
11699TIP3    H256589   1.414   5.328   4.620 -2.4946  0.6843 -0.8985
11700TIP3   OH256590   5.824   0.417  13.946 -0.1948 -0.0958  0.7829
11700TIP3    H156591   5.818   0.351  14.015 -0.2732 -2.0967 -1.0702
11700TIP3    H256592   5.734   0.450  13.937 -0.4734 -0.8592  0.6784
11701TIP3   OH256593   2.685   1.852  14.199  0.2020 -0.5891  0.7953
11701TIP3    H156594   2.744   1.912  14.155 -1.0722 -0.2412 -0.4540
11701TIP3    H256595   2.712   1.765  14.169  1.1815 -0.5633  1.5753
11702TIP3   OH256596   6.617   2.057  16.033  0.0490 -0.5258  0.5218
11702TIP3    H156597   6.678   1.983  16.029 -0.0366 -0.6190  1.0013
11702TIP3    H256598   6.537   2.020  16.070 -0.7374 -0.7049 -1.2643
11703TIP3   OH256599   6.754   3.383  12.125  0.2048  0.0409  0.2928
11703TIP3    H156600   6.813   3.448  12.163 -1.6894  1.5044  0.8492
11703TIP3    H256601   6.749   3.407  12.032 -0.1058  0.3882  0.3978
11704TIP3   OH256602   1.206   3.372   6.479  0.0815 -0.1297  0.3413
11704TIP3    H156603   1.243   3.460   6.469 -0.7200  0.1866  0.1568
11704TIP3    H256604   1.138   3.382   6.546  0.1062 -0.6485  0.4468
11705TIP3   OH256605   1.205   4.242  11.852 -0.3508 -0.4229  0.0555
11705TIP3    H156606   1.184   4.232  11.759  0.7952 -0.8233 -0.1703
11705TIP3    H256607   1.201   4.336  11.867 -1.9118 -0.4592 -0.0623
11706TIP3   OH256608   1.469   2.163  15.358 -0.4821  0.5218  0.4521
11706TIP3    H156609   1.382   2.153  15.318  0.9181 -1.6543 -2.1692
11706TIP3    H256610   1.478   2.086  15.414  0.2307  0.1229 -0.2101
11707TIP3   OH256611   3.556   2.329  11.184  0.6115 -0.6379 -0.1241
11707TIP3    H156612   3.491   2.269  11.147 -1.8095  2.1970 -0.6549
11707TIP3    H256613   3.508   2.410  11.199  3.8352  1.2684  0.3518
11708TIP3   OH256614   5.506   3.109   0.736 -0.0958  0.6550  0.1756
11708TIP3    H156615   5.542   3.158   0.809 -0.0989  0.6861  0.1562
11708TIP3    H256616   5.525   3.163   0.659  0.3486  0.3824  0.0965
11709TIP3   OH256617   4.041   0.885   4.838 -0.0190 -0.2794  0.6887
11709TIP3    H156618   4.118   0.941   4.851 -1.1372  1.1783  1.2192
11709TIP3    H256619   4.064   0.803   4.881  1.8534 -0.4488 -0.5380
11710TIP3   OH256620   3.002   0.675  15.222 -0.6751  0.1418  0.2528
11710TIP3    H156621   3.042   0.720  15.296  0.0019  2.1488 -1.2934
11710TIP3    H256622   2.911   0.705  15.223 -0.2840  1.3879 -0.6327
11711TIP3   OH256623   5.917   5.510   2.000  0.6378  0.3482 -0.4895
11711TIP3    H156624   5.930   5.562   2.079 -0.5330 -0.1529  0.0440
11711TIP3    H256625   5.822   5.507   1.988  0.6503 -2.1132 -0.1871
11712TIP3   OH256626   6.588   2.851   1.036 -0.2940 -0.3056  0.3230
11712TIP3    H156627   6.518   2.880   1.094  1.3502  1.2292  1.6048
11712TIP3    H256628   6.643   2.794   1.091 -0.4194 -1.3520 -0.6122
11713TIP3   OH256629   0.708   4.718  15.919  0.3209 -0.2379 -0.2037
11713TIP3    H156630   0.733   4.649  15.856  2.6372  0.4098 -0.0485
11713TIP3    H256631   0.710   4.799  15.867  1.1313  0.1525  0.4269
11714TIP3   OH256632   3.585   3.080   3.821 -0.7870  0.2362 -0.1918
11714TIP3    H156633   3.548   3.165   3.843  2.1712  1.2147  1.2058
11714TIP3    H256634   3.613   3.089   3.730 -2.2592  0.0667 -0.6812
11715TIP3   OH256635   0.873   1.835   3.538  0.7039 -0.5973  0.2085
11715TIP3    H156636   0.818   1.841   3.616  1.9450  3.2239  0.8754
11715TIP3    H256637   0.817   1.792   3.473 -2.1452  0.8099  1.6429
11716TIP3   OH256638   6.163   5.728   4.218  0.2465 -0.0151  0.2534
11716TIP3    H156639   6.207   5.743   4.302  1.7007  1.4652 -0.7359
11716TIP3    H256640   6.230   5.748   4.152 -0.9140 -1.0172 -1.2599
11717TIP3   OH256641   2.711   4.032  15.674 -0.1648  0.0697 -0.3745
11717TIP3    H156642   2.753   4.101  15.623  0.8593  0.3846  0.8808
11717TIP3    H256643   2.631   4.073  15.708  0.3970  0.6147  0.2968
11718TIP3   OH256644   4.987   0.112  10.871 -0.0919  0.1394 -0.1200
11718TIP3    H156645   4.999   0.196  10.914 -0.3927  0.5608 -0.8579
11718TIP3    H256646   5.076   0.082  10.852  0.0021  0.4540 -0.1713
11719TIP3   OH256647   5.986   4.339  11.719  0.4903 -0.7812  0.1772
11719TIP3    H156648   6.060   4.279  11.705  1.5919  0.7497 -0.7521
11719TIP3    H256649   6.000   4.409  11.655 -0.7049  0.5356  1.3301
11720TIP3   OH256650   4.305   4.203   1.357 -0.6845 -0.4378  0.5847
11720TIP3    H156651   4.330   4.291   1.331 -2.3108  0.2042  1.1137
11720TIP3    H256652   4.312   4.203   1.452 -0.7373 -0.8748  0.5911
11721TIP3   OH256653   2.789   1.653  15.694  0.2048 -0.0871  0.5060
11721TIP3    H156654   2.835   1.716  15.638  0.5694 -2.2514 -1.7143
11721TIP3    H256655   2.699   1.687  15.697  0.5631  0.9619 -0.0070
11722TIP3   OH256656   1.843   1.647   1.959  0.0589 -0.0162  0.3800
11722TIP3    H156657   1.789   1.608   1.891 -1.2821 -0.2482  1.5445
11722TIP3    H256658   1.853   1.738   1.933 -1.0317  0.0641  0.2110
11723TIP3   OH256659   3.469   5.705   3.171  0.2755  0.3376  0.1385
11723TIP3    H156660   3.440   5.788   3.135  1.3155  0.4933 -0.3617
11723TIP3    H256661   3.442   5.708   3.263  1.0176  1.5861  0.3338
11724TIP3   OH256662   1.130   5.502   0.758 -0.0008 -0.3179 -0.1348
11724TIP3    H156663   1.115   5.486   0.664 -1.5308 -0.0989  0.0572
11724TIP3    H256664   1.214   5.548   0.761 -0.6059  0.9383 -1.5390
11725TIP3   OH256665   3.607   2.021   6.015  0.0408  0.1926 -0.2318
11725TIP3    H156666   3.687   2.035   6.066 -0.0874  0.2579 -0.0483
11725TIP3    H256667   3.599   2.100   5.961  0.1919  0.1111 -0.3716
11726TIP3   OH256668   6.475   6.661   5.062 -0.0670  0.5043 -0.3695
11726TIP3    H156669   6.416   6.613   5.120  1.1125 -3.3778 -2.1827
11726TIP3    H256670   6.533   6.708   5.121 -1.3385 -0.2383  1.5337
11727TIP3   OH256671   4.279   1.838   5.197 -0.2739 -0.1923 -0.2767
11727TIP3    H156672   4.188   1.864   5.190 -0.2536  0.8116  2.6234
11727TIP3    H256673   4.328   1.906   5.150 -0.8570  0.5231  0.1474
11728TIP3   OH256674   3.805   4.564  15.713  0.0665  0.1684 -0.0332
11728TIP3    H156675   3.857   4.537  15.789  0.8032 -1.2740 -1.0110
11728TIP3    H256676   3.714   4.552  15.740  0.1962  2.9000  1.7616
11729TIP3   OH256677   5.450   5.359   1.852  0.0861 -1.0488  0.0367
11729TIP3    H156678   5.428   5.301   1.925 -1.0473 -1.8953 -0.9512
11729TIP3    H256679   5.366   5.372   1.807  0.7280 -0.3076 -0.9404
11730TIP3   OH256680   4.703   2.039  12.662 -0.2319 -0.2147 -0.2666
11730TIP3    H156681   4.665   2.101  12.599  0.3754 -0.1396 -0.5590
11730TIP3    H256682   4.793   2.069  12.674  0.1380 -1.1867 -0.5985
11731TIP3   OH256683   2.593   0.318  11.828  0.9231  0.6743 -0.1873
11731TIP3    H156684   2.578   0.264  11.905  0.0220 -0.1035 -0.8940
11731TIP3    H256685   2.514   0.308  11.776  0.5330  3.0364 -0.1286
11732TIP3   OH256686   0.496   4.036  14.526 -0.1597 -0.5936 -0.8181
11732TIP3    H156687   0.416   4.004  14.485 -1.3790  1.6732 -0.2598
11732TIP3    H256688   0.506   4.126  14.494  0.9568 -0.0995  0.8243
11733TIP3   OH256689   0.162   5.866  14.627 -0.9787  0.0886  0.0363
11733TIP3    H156690   0.194   5.805  14.693 -0.5787 -2.3303 -2.2932
11733TIP3    H256691   0.240   5.917  14.602 -0.3223 -1.3822 -1.0093
11734TIP3   OH256692   5.774   5.703  15.818  0.0601  0.5494 -0.3920
11734TIP3    H156693   5.761   5.786  15.771 -0.1003  1.2642  0.8923
11734TIP3    H256694   5.780   5.728  15.910  3.2757 -0.5175 -0.2445
11735TIP3   OH256695   1.936   2.708  13.417 -0.5601 -0.1326  0.1452
11735TIP3    H156696   1.990   2.631  13.432 -1.4065 -0.7699 -0.0769
11735TIP3    H256697   1.920   2.708  13.323  0.9966  1.3670 -0.1650
11736TIP3   OH256698   6.457   0.230   4.350 -0.0934  0.0943 -0.3927
11736TIP3    H156699   6.364   0.240   4.331 -0.7967 -1.1559  2.2226
11736TIP3    H256700   6.474   0.137   4.337 -0.3117 -0.5691  3.5600
11737TIP3   OH256701   2.261   0.613  16.141 -0.2172 -0.0307 -0.5536
11737TIP3    H156702   2.267   0.520  16.161 -0.5567  0.4791  2.1373
11737TIP3    H256703   2.338   0.632  16.089  0.5775 -1.5474  0.0421
11738TIP3   OH256704   2.352   0.754   4.152  0.2325 -0.3053  0.0952
11738TIP3    H156705   2.391   0.815   4.215  0.5944 -1.2268  0.7719
11738TIP3    H256706   2.406   0.764   4.073  0.7770 -0.3310  0.4621
11739TIP3   OH256707   6.409   5.030   4.524 -0.1933 -0.7737 -0.4206
11739TIP3    H156708   6.452   5.114   4.504  0.1175 -0.4948  1.3247
11739TIP3    H256709   6.375   5.042   4.613  1.3964 -3.1183  0.5297
11740TIP3   OH256710   3.101   0.031  11.091 -0.3439 -0.3168  0.5474
11740TIP3    H156711   3.118  -0.063  11.078 -1.3077 -0.5881  1.1855
11740TIP3    H256712   3.006   0.037  11.096 -0.3592  0.8807 -0.7686
11741TIP3   OH256713   4.146   2.462  15.762  0.5360 -0.5344  0.0597
11741TIP3    H156714   4.120   2.399  15.694  0.7627 -0.7900  0.2072
11741TIP3    H256715   4.231   2.431  15.792 -0.0139 -1.0025  1.1614
11742TIP3   OH256716   2.527   6.230   4.754  0.3102 -0.0600 -0.7452
11742TIP3    H156717   2.435   6.217   4.777  0.8443 -0.2934  1.4041
11742TIP3    H256718   2.534   6.200   4.663 -1.5070 -1.1072 -0.5625
11743TIP3   OH256719   3.551   0.936   5.440  0.2130  0.0702 -0.3850
11743TIP3    H156720   3.631   0.884   5.440  0.2779  0.0741  2.0549
11743TIP3    H256721   3.579   1.024   5.415  0.7906 -0.1699 -0.5888
11744TIP3   OH256722   1.769   2.486  12.956 -0.0663  0.3850 -0.0549
11744TIP3    H156723   1.726   2.423  13.014 -0.6580  0.2243 -0.6692
11744TIP3    H256724   1.848   2.442  12.926 -0.2510  0.1058 -0.1303
11745TIP3   OH256725   4.397   3.788  12.702  0.1802 -0.1555  0.0226
11745TIP3    H156726   4.488   3.789  12.671  0.6031 -0.5421  1.2341
11745TIP3    H256727   4.389   3.705  12.747  0.1489  1.2291  2.6409
11746TIP3   OH256728   5.064   0.233   6.497  0.3117  0.0701  0.1390
11746TIP3    H156729   5.093   0.319   6.466  1.0304  0.3523  1.5833
11746TIP3    H256730   5.109   0.221   6.580 -1.6621 -0.6516  1.1278
11747TIP3   OH256731   4.658   4.874   0.272 -0.2240  0.4740  0.9987
11747TIP3    H156732   4.746   4.895   0.239 -0.0059  0.0402  1.3029
11747TIP3    H256733   4.605   4.950   0.247 -0.0122  0.2576 -0.1373
11748TIP3   OH256734   5.404   5.859   6.212  0.2475  0.1791  0.1352
11748TIP3    H156735   5.342   5.827   6.278  2.8663 -2.2815  1.5100
11748TIP3    H256736   5.463   5.917   6.260  0.5288  0.5332 -0.6283
11749TIP3   OH256737   4.626   6.709  11.988  0.4011  0.0810 -0.3396
11749TIP3    H156738   4.678   6.782  12.022  0.8780 -0.4767  0.1336
11749TIP3    H256739   4.647   6.705  11.895  1.6228 -0.4822 -0.0528
11750TIP3   OH256740   6.416   2.892   1.250  0.0244  0.0224  0.1533
11750TIP3    H156741   6.362   2.834   1.304  1.6022 -0.6259  1.0715
11750TIP3    H256742   6.358   2.965   1.228 -0.2193  1.1044  4.0398
11751TIP3   OH256743   5.061   1.390   0.361 -0.3020 -0.1395  0.2111
11751TIP3    H156744   5.145   1.348   0.346 -0.0138  0.2827  0.6098
11751TIP3    H256745   5.027   1.350   0.441 -0.8714 -0.9045 -0.4051
11752TIP3   OH256746   3.862   4.456  13.137  0.0456 -0.3852 -0.4152
11752TIP3    H156747   3.799   4.405  13.086 -3.2105  0.2741  2.7690
11752TIP3    H256748   3.888   4.398  13.208 -0.0260  0.6982  0.5198
11753TIP3   OH256749   4.374   1.092  12.596 -0.0931  0.2131 -0.2853
11753TIP3    H156750   4.365   1.149  12.672 -0.4556  0.9475 -0.8736
11753TIP3    H256751   4.418   1.147  12.530 -2.1406  0.4324 -1.5050
11754TIP3   OH256752   4.548   2.636  15.022  0.1584  0.1069 -0.1096
11754TIP3    H156753   4.590   2.721  15.028 -0.7676  0.6604 -1.2186
11754TIP3    H256754   4.602   2.578  15.075  1.0715  1.2761  0.2451
11755TIP3   OH256755   3.653   0.009   0.123 -0.0699 -0.3349  0.4654
11755TIP3    H156756   3.677   0.083   0.179 -0.8177 -0.0969  0.4701
11755TIP3    H256757   3.588  -0.040   0.173 -1.1050  0.1431 -0.3858
11756TIP3   OH256758   4.435   3.561   3.378  0.8543 -0.2869 -0.3109
11756TIP3    H156759   4.522   3.601   3.382  1.5554 -1.7159 -1.0070
11756TIP3    H256760   4.413   3.542   3.469  1.1293  0.3457 -0.1063
11757TIP3   OH256761   4.379   6.086  12.101 -0.2890 -0.3828 -0.4596
11757TIP3    H156762   4.468   6.121  12.108  0.0076 -1.5011  1.5476
11757TIP3    H256763   4.373   6.020  12.170 -1.7786 -2.2827 -2.3151
11758TIP3   OH256764   5.382   4.545  11.785 -0.1903 -0.3746 -0.5661
11758TIP3    H156765   5.330   4.491  11.725 -1.6551  0.1630  0.2006
11758TIP3    H256766   5.318   4.581  11.846  1.3419 -1.1722  1.5438
11759TIP3   OH256767   0.320   0.105  12.493 -0.1960  0.3901 -0.6612
11759TIP3    H156768   0.225   0.091  12.497 -0.1676  0.4523  0.5315
11759TIP3    H256769   0.332   0.197  12.514  0.1957  0.1132  0.3716
11760TIP3   OH256770   5.862   6.727  13.377 -0.5076  0.0382 -0.2694
11760TIP3    H156771   5.951   6.723  13.413 -0.6995 -0.0057  0.2036
11760TIP3    H256772   5.814   6.661  13.426 -1.0946  0.8766  0.2980
11761TIP3   OH256773   4.805   4.124  12.093  0.3315 -0.1707 -0.3761
11761TIP3    H156774   4.891   4.161  12.115  0.2488 -0.1684 -0.0454
11761TIP3    H256775   4.816   4.030  12.106  1.0659 -0.4738 -2.9804
11762TIP3   OH256776   3.153   6.594   4.452  0.5302  0.3992 -0.1905
11762TIP3    H156777   3.072   6.588   4.503 -0.7390  2.6405 -1.8122
11762TIP3    H256778   3.175   6.504   4.431  0.1632 -0.4571  2.8498
11763TIP3   OH256779   2.985   3.269  13.115 -0.2468  0.0763  0.2477
11763TIP3    H156780   2.965   3.313  13.032  0.5364 -0.7009 -0.3555
11763TIP3    H256781   3.057   3.209  13.094  0.3467  0.2901  1.6088
11764TIP3   OH256782   5.531   3.812  13.274  0.1658 -0.0853 -0.1835
11764TIP3    H156783   5.556   3.835  13.363 -0.8617  2.0481 -0.3956
11764TIP3    H256784   5.454   3.867  13.256  0.3384 -0.4999 -2.3593
11765TIP3   OH256785   2.018   1.773  12.121  0.0498 -0.3120  0.0161
11765TIP3    H156786   1.961   1.698  12.107 -0.3156  0.0948 -0.7683
11765TIP3    H256787   2.064   1.754  12.202 -1.4958 -0.4728  0.8860
11766TIP3   OH256788   5.308   4.858  15.018 -0.4168  0.2625 -0.0570
11766TIP3    H156789   5.337   4.791  15.079 -0.1564  0.9520  0.5841
11766TIP3    H256790   5.224   4.888  15.054 -1.6249 -1.2358 -1.5191
11767TIP3   OH256791   6.535   1.078  15.082  0.0693 -0.3009 -0.1661
11767TIP3    H156792   6.501   1.103  14.997 -0.5665 -0.4257  0.0471
11767TIP3    H256793   6.630   1.076  15.071 -0.0004 -0.0441 -0.7919
11768TIP3   OH256794   5.587   1.984  11.608  0.2754  0.2575 -0.2537
11768TIP3    H156795   5.627   2.023  11.530  1.3664 -0.7321 -0.1950
11768TIP3    H256796   5.557   2.059  11.660  0.6897  0.9585 -1.0159
11769TIP3   OH256797   5.271   4.942  16.718  0.6105  0.2397  0.6226
11769TIP3    H156798   5.326   4.916  16.792  0.9991  0.0010  0.2509
11769TIP3    H256799   5.331   4.988  16.659  0.7999 -1.6036 -0.6380
11770TIP3   OH256800   4.929   0.457   2.411 -0.5926  0.1513  0.5021
11770TIP3    H156801   4.993   0.449   2.341 -0.9471  2.9668 -0.2002
11770TIP3    H256802   4.861   0.393   2.389  0.8473 -1.2646  0.0629
11771TIP3   OH256803   1.032   2.085  13.905 -0.0222  0.0458 -0.2186
11771TIP3    H156804   1.090   2.159  13.883 -0.4721  0.8444  1.2500
11771TIP3    H256805   0.956   2.096  13.848  0.1609  0.3974 -0.3948
11772TIP3   OH256806   0.643   0.175  17.065  0.0110  0.0943 -0.2927
11772TIP3    H156807   0.636   0.265  17.097  1.6572 -1.0880  3.7298
11772TIP3    H256808   0.615   0.121  17.139 -0.9627 -2.7171 -2.6391
11773TIP3   OH256809   3.342   1.009   0.981  0.0534 -0.2757 -0.2361
11773TIP3    H156810   3.314   1.088   0.933 -0.5369  0.3419  1.1120
11773TIP3    H256811   3.428   0.989   0.945 -0.3804  0.1865 -1.5641
11774TIP3   OH256812   0.046   5.199  12.680 -0.8014  0.2140  0.5000
11774TIP3    H156813  -0.000   5.126  12.639 -0.6783  0.7157 -0.5412
11774TIP3    H256814  -0.014   5.274  12.672  0.7625  1.2270 -2.1767
11775TIP3   OH256815   5.221   1.719   5.259 -0.0198  0.1631  0.2583
11775TIP3    H156816   5.174   1.638   5.240 -0.2044 -0.0281  1.5122
11775TIP3    H256817   5.154   1.787   5.259  0.0543  0.2371 -0.2586
11776TIP3   OH256818   2.133   5.657  15.111 -0.7021 -0.1126 -0.0472
11776TIP3    H156819   2.086   5.732  15.147  1.1394  0.5312  1.0514
11776TIP3    H256820   2.143   5.678  15.018 -0.4231  0.8866  0.2023
11777TIP3   OH256821   4.636   2.230  15.285  0.5462 -0.7157 -0.3759
11777TIP3    H156822   4.549   2.262  15.310  0.4545 -0.0947 -1.5007
11777TIP3    H256823   4.693   2.257  15.358 -0.0958 -0.6654  0.1132
11778TIP3   OH256824   5.129   2.514   2.550 -0.4803  0.1115 -0.5082
11778TIP3    H156825   5.063   2.580   2.524 -0.6091  0.2859  0.2548
11778TIP3    H256826   5.079   2.434   2.562 -0.4270  0.0420 -0.7395
11779TIP3   OH256827   4.212   2.713   3.972  0.3559 -0.4654  0.7333
11779TIP3    H156828   4.221   2.748   3.884  0.2808 -0.7664  0.6064
11779TIP3    H256829   4.298   2.728   4.013 -0.1019  1.1267  1.1380
11780TIP3   OH256830   3.843   3.487   0.621  0.0048  0.7535  0.1855
11780TIP3    H156831   3.922   3.537   0.598  0.9013 -0.5130  0.4589
11780TIP3    H256832   3.866   3.396   0.602 -1.4958  0.3980  0.0079
11781TIP3   OH256833   4.762   5.566  14.857 -0.2347 -0.4149 -0.2470
11781TIP3    H156834   4.672   5.582  14.830 -0.4415  0.0850  0.6854
11781TIP3    H256835   4.799   5.654  14.868  0.0751 -0.6089  0.2860
11782TIP3   OH256836   2.750   1.917   5.137  0.0292  0.2397  0.0314
11782TIP3    H156837   2.707   1.962   5.064  0.9037  0.8130 -0.1359
11782TIP3    H256838   2.780   1.834   5.100 -0.0944  0.2495 -0.0925
11783TIP3   OH256839   2.931   1.750   5.377 -0.9546  0.7302 -1.2612
11783TIP3    H156840   2.974   1.835   5.378 -0.8387  0.7023 -2.8310
11783TIP3    H256841   2.996   1.690   5.342 -0.7203 -0.2068  0.7068
11784TIP3   OH256842   4.700   6.602   5.058  0.1406  0.2411  0.0978
11784TIP3    H156843   4.768   6.536   5.046  0.0227 -0.0843  1.1546
11784TIP3    H256844   4.659   6.579   5.142 -2.6302 -0.8093 -1.4643
11785TIP3   OH256845   0.084   5.395  11.416 -0.1956 -0.0223  0.6353
11785TIP3    H156846   0.139   5.464  11.454 -1.2212 -0.8654  3.7250
11785TIP3    H256847  -0.006   5.426  11.430 -0.6202 -1.1194  0.3682
11786TIP3   OH256848   2.384   1.974   2.412  0.0450  0.3346 -0.0481
11786TIP3    H156849   2.352   1.946   2.498  0.1865 -0.6079 -0.2943
11786TIP3    H256850   2.460   2.029   2.431  1.1013 -1.2496  0.3847
11787TIP3   OH256851   1.391   1.723  11.455 -0.5962  0.1686 -0.8456
11787TIP3    H156852   1.347   1.689  11.377 -0.5575 -0.3479 -0.6441
11787TIP3    H256853   1.479   1.746  11.424 -1.1123  1.5220 -1.3241
11788TIP3   OH256854   6.583   6.664  12.285  0.7750 -0.2627  0.0911
11788TIP3    H156855   6.553   6.589  12.232 -1.3584  1.4260 -1.1679
11788TIP3    H256856   6.614   6.624  12.366 -0.8887 -2.4999 -0.2936
11789TIP3   OH256857   4.455   2.250  13.241  0.2868  0.5293  0.1078
11789TIP3    H156858   4.521   2.180  13.235 -1.0226 -0.5567 -2.1059
11789TIP3    H256859   4.413   2.251  13.155 -0.6661  3.1449  0.5663
11790TIP3   OH256860   0.344   0.023  13.321 -0.1890  0.2043  0.6117
11790TIP3    H156861   0.350   0.032  13.226 -2.8954  0.1045  0.3727
11790TIP3    H256862   0.305  -0.063  13.335  1.2762 -0.2844  1.8880
11791TIP3   OH256863   2.824   6.509  12.770  0.9632 -0.4206  0.0118
11791TIP3    H156864   2.899   6.529  12.826 -0.3238 -1.0986  2.0558
11791TIP3    H256865   2.775   6.592  12.765  1.0189 -0.3899 -0.0317
11792TIP3   OH256866   3.535   2.902   1.985  0.4329 -0.2939 -0.3771
11792TIP3    H156867   3.562   2.989   2.014  3.9114 -1.5745  0.4727
11792TIP3    H256868   3.463   2.879   2.044  0.0034  1.6763 -0.1005
11793TIP3   OH256869   4.629   6.031  13.937 -0.1466 -0.0589  0.1724
11793TIP3    H156870   4.596   6.119  13.920  1.1172 -0.1316 -3.0234
11793TIP3    H256871   4.577   5.974  13.880  2.8373 -0.5908 -2.1888
11794TIP3   OH256872   6.189   1.216   5.678  0.5635 -0.1188  0.5225
11794TIP3    H156873   6.172   1.261   5.596  2.2889 -1.4530 -0.5993
11794TIP3    H256874   6.269   1.165   5.662 -0.4224 -2.2920  2.2397
11795TIP3   OH256875   1.405   2.170  12.465  0.2259 -0.1990 -0.3489
11795TIP3    H156876   1.409   2.197  12.557  1.0037  0.3999 -0.5483
11795TIP3    H256877   1.336   2.226  12.427  2.2532  2.0301 -0.9018
11796TIP3   OH256878   6.209   3.967   0.584 -0.0937 -0.3149 -0.0772
11796TIP3    H156879   6.251   4.053   0.582 -0.2037 -0.2613 -0.1284
11796TIP3    H256880   6.144   3.974   0.655 -1.5257  0.3221 -1.4127
11797TIP3   OH256881   1.165   5.898   5.839 -0.2581  0.5096 -0.1177
11797TIP3    H156882   1.169   5.908   5.934  3.6691 -0.1026 -0.0944
11797TIP3    H256883   1.105   5.966   5.809 -1.8529  0.4549  2.8062
11798TIP3   OH256884   2.200   1.221  12.992 -0.0234 -0.2774 -0.5461
11798TIP3    H156885   2.150   1.149  13.032  0.7264 -0.3816  0.2088
11798TIP3    H256886   2.192   1.206  12.898 -0.5652 -0.8789 -0.4089
11799TIP3   OH256887   0.690   3.145   1.161  0.0685 -0.0549  0.3695
11799TIP3    H156888   0.760   3.093   1.121 -0.9222 -1.2583  0.1735
11799TIP3    H256889   0.638   3.176   1.087  0.2794  0.6662  0.5246
11800TIP3   OH256890   6.016   5.970   6.164  0.7860 -0.3082  0.1593
11800TIP3    H156891   6.064   6.010   6.091  1.4090 -1.0911  0.1242
11800TIP3    H256892   5.927   5.957   6.130  1.1360 -0.9019 -0.5703
11801TIP3   OH256893   4.156   5.554  15.501 -0.2979  0.4544 -0.1078
11801TIP3    H156894   4.153   5.553  15.406 -1.6441  3.2618 -0.1473
11801TIP3    H256895   4.097   5.483  15.528  0.0622 -0.3295 -1.3524
11802TIP3   OH256896   6.169   0.416  11.413  0.0568  0.5304  0.0048
11802TIP3    H156897   6.109   0.403  11.340 -0.7051  3.2308  0.1052
11802TIP3    H256898   6.159   0.336  11.466 -3.5380  0.9321  0.0707
11803TIP3   OH256899   5.680   3.547  15.731 -0.9719 -0.5853 -0.0001
11803TIP3    H156900   5.730   3.466  15.742  0.9938  0.2933 -2.2825
11803TIP3    H256901   5.607   3.522  15.674 -1.2357 -1.0838  0.5479
11804TIP3   OH256902   2.146   3.209  15.990  0.6007 -0.6977 -0.0770
11804TIP3    H156903   2.186   3.280  16.040 -0.5142 -1.2487  1.6366
11804TIP3    H256904   2.060   3.242  15.967 -0.5734 -2.0949  2.1760
11805TIP3   OH256905   2.614   5.989   1.658  0.6916  0.0703  0.9187
11805TIP3    H156906   2.656   5.980   1.572  1.2324 -1.9338  1.3566
11805TIP3    H256907   2.524   5.958   1.643  0.5574  0.4664  0.9027
11806TIP3   OH256908   5.524   6.163  13.748  0.2836 -0.0172  0.3295
11806TIP3    H156909   5.584   6.093  13.774  0.2032 -0.5317 -0.8501
11806TIP3    H256910   5.439   6.119  13.740  0.0643  0.3875  0.4301
11807TIP3   OH256911   2.988   4.390   4.253  0.0738  0.5284  0.1495
11807TIP3    H156912   2.924   4.431   4.195 -0.3281 -1.1101 -0.6160
11807TIP3    H256913   3.002   4.453   4.324 -0.3594  2.0398 -1.0826
11808TIP3   OH256914   2.731   2.341   2.538  0.2535 -0.2797  0.2451
11808TIP3    H156915   2.807   2.340   2.596  0.8629 -1.2973 -0.5514
11808TIP3    H256916   2.758   2.395   2.464  0.2656 -0.7603 -0.1070
11809TIP3   OH256917   3.226   5.864   6.167 -0.5390  0.0029  0.3017
11809TIP3    H156918   3.135   5.885   6.185 -0.3892 -0.0356  1.1286
11809TIP3    H256919   3.253   5.926   6.099 -1.1624  0.0502  0.1015
11810TIP3   OH256920   1.083   1.746   5.892 -0.6466 -0.0558  0.2481
11810TIP3    H156921   1.032   1.767   5.814  1.3804  0.1024 -1.0863
11810TIP3    H256922   1.082   1.827   5.944 -1.3112  0.1104 -0.0233
11811TIP3   OH256923   0.284   3.030   0.617  0.0136 -0.1448 -0.2784
11811TIP3    H156924   0.336   2.953   0.594 -2.1316 -2.1572  1.3501
11811TIP3    H256925   0.210   3.027   0.557 -0.5019  0.1843  0.3432
11812TIP3   OH256926   5.782   2.430  13.829 -0.0908 -0.2530  0.0574
11812TIP3    H156927   5.691   2.400  13.829 -0.6155  1.2388  2.2904
11812TIP3    H256928   5.803   2.444  13.737 -1.6463 -1.9761 -0.5926
11813TIP3   OH256929   4.827   2.199  15.891  0.1099 -0.0189 -0.2751
11813TIP3    H156930   4.895   2.214  15.825 -0.5044  1.9427 -0.4970
11813TIP3    H256931   4.752   2.168  15.841  0.9016 -2.5322  0.0104
11814TIP3   OH256932   6.446   4.519   0.590  0.5185  0.4954 -0.2208
11814TIP3    H156933   6.521   4.468   0.621  0.7865 -0.0630 -1.7462
11814TIP3    H256934   6.418   4.475   0.510  1.6269  3.5027 -2.3416
11815TIP3   OH256935   2.212   0.332  16.531 -0.3899 -0.1278  0.1465
11815TIP3    H156936   2.295   0.369  16.501 -0.8884  0.0309 -1.0658
11815TIP3    H256937   2.156   0.333  16.454 -1.7137  0.3097  1.1028
11816TIP3   OH256938   1.934   2.887  13.724 -0.1888  0.0927 -0.5463
11816TIP3    H156939   1.969   2.922  13.642 -0.7576  1.0226 -0.4034
11816TIP3    H256940   1.842   2.914  13.724 -0.0618  0.5553  0.6389
11817TIP3   OH256941   5.717   2.103   3.462 -0.1903  0.1518  0.4690
11817TIP3    H156942   5.777   2.028   3.456 -0.1127  0.2107  0.4999
11817TIP3    H256943   5.709   2.133   3.371 -0.0141  0.2670  0.4923
11818TIP3   OH256944   1.777   1.870   2.162  0.5553 -0.1483 -0.2808
11818TIP3    H156945   1.847   1.841   2.103  0.6631 -0.3158 -0.0713
11818TIP3    H256946   1.818   1.938   2.216  0.9913 -1.2911  0.8619
11819TIP3   OH256947   5.811   1.696   0.564 -0.2657 -0.2505  1.1562
11819TIP3    H156948   5.723   1.674   0.535  0.3115 -1.7402  0.5023
11819TIP3    H256949   5.819   1.790   0.547 -0.4072 -0.8248 -2.2962
11820TIP3   OH256950   3.351   1.125   4.438 -0.9622  0.1268 -0.0106
11820TIP3    H156951   3.432   1.130   4.489 -1.0438  0.0106  0.1315
11820TIP3    H256952   3.368   1.180   4.361 -1.1376  1.0062  0.5622
11821TIP3   OH256953   1.751   4.727  13.014 -0.1772  0.5960 -0.3595
11821TIP3    H156954   1.726   4.661  13.078  0.4376 -0.6446 -1.3689
11821TIP3    H256955   1.812   4.783  13.060  1.0268 -0.8689 -0.1297
11822TIP3   OH256956   5.281   3.502   3.153  0.0615  0.4498  0.2157
11822TIP3    H156957   5.294   3.573   3.091  0.9072  0.1894  0.0868
11822TIP3    H256958   5.295   3.541   3.239  0.4473  0.4631  0.1488
11823TIP3   OH256959   2.803   0.051  16.152 -0.3468  0.3115 -0.2021
11823TIP3    H156960   2.833   0.063  16.243  2.0481 -0.3485 -0.8585
11823TIP3    H256961   2.711   0.029  16.160 -0.0212 -0.4218  2.1334
11824TIP3   OH256962   0.194   6.695   4.979  0.3952  0.1944  0.1544
11824TIP3    H156963   0.199   6.622   4.917 -0.0753 -0.3709  0.7734
11824TIP3    H256964   0.241   6.664   5.056  1.3319  1.0524 -0.0602
11825TIP3   OH256965   3.382   5.357  11.892  0.4964 -0.4715 -0.1041
11825TIP3    H156966   3.310   5.355  11.828  1.2807  0.2491 -1.0170
11825TIP3    H256967   3.461   5.357  11.839  1.1814 -0.9633  0.9042
11826TIP3   OH256968   1.553   3.258  10.224  0.0046 -0.1117 -0.2307
11826TIP3    H156969   1.507   3.212  10.154  0.7206 -0.6417 -0.3564
11826TIP3    H256970   1.645   3.255  10.199  0.0861  1.2868 -0.1787
11827TIP3   OH256971   6.739   0.590  12.937 -0.3597  0.3815  0.1252
11827TIP3    H156972   6.714   0.524  13.001  1.6540 -1.1870 -0.6822
11827TIP3    H256973   6.759   0.541  12.858 -0.0676  2.0802 -0.8755
11828TIP3   OH256974   0.560   2.446  15.235 -0.2185 -0.4478  0.4905
11828TIP3    H156975   0.552   2.413  15.145  0.2938 -0.9870  0.6397
11828TIP3    H256976   0.654   2.458  15.248 -0.4321  1.5147  0.2872
11829TIP3   OH256977   4.596   5.271  15.090 -0.0259  0.2706  0.0462
11829TIP3    H156978   4.523   5.214  15.068  1.2113 -2.1825  2.0162
11829TIP3    H256979   4.557   5.341  15.143 -1.2663  0.2414 -0.8088
11830TIP3   OH256980   0.151   3.815  15.362  0.4738 -0.0830  0.2033
11830TIP3    H156981   0.082   3.776  15.307  0.9872  1.0195 -1.2639
11830TIP3    H256982   0.154   3.759  15.439 -1.7263 -0.4561  0.0741
11831TIP3   OH256983   6.115   2.206   0.955  0.0717  0.6039 -0.5480
11831TIP3    H156984   6.070   2.264   0.893 -0.8552 -0.2797 -0.7226
11831TIP3    H256985   6.052   2.136   0.971  0.9729 -0.0617  0.0884
11832TIP3   OH256986   1.626   3.472  12.684  0.4923 -0.7316  0.5237
11832TIP3    H156987   1.637   3.410  12.611 -0.0855 -0.2598  0.0294
11832TIP3    H256988   1.658   3.425  12.761 -0.7535 -1.9754  0.2994
11833TIP3   OH256989   0.961   2.828  12.134  0.9424 -0.2444  0.0268
11833TIP3    H156990   0.916   2.858  12.055  1.5998 -2.7207 -1.3293
11833TIP3    H256991   0.897   2.842  12.204 -0.1068  0.8303 -1.1077
11834TIP3   OH256992   0.739   3.802  13.428  0.1994 -0.2033  1.2402
11834TIP3    H156993   0.671   3.759  13.479 -0.1342  1.5164  2.3020
11834TIP3    H256994   0.697   3.825  13.345  0.1641 -1.2089  0.9744
11835TIP3   OH256995   6.010   0.292   5.588 -0.8073  0.0758 -0.5885
11835TIP3    H156996   5.977   0.272   5.501  0.1519 -1.5398 -0.5988
11835TIP3    H256997   5.943   0.350   5.626 -3.1528 -2.2476 -1.0016
11836TIP3   OH256998   2.995   6.527  14.943  0.3643  0.5481  0.1448
11836TIP3    H156999   3.000   6.615  14.905 -0.1132  0.7268  0.5085
11836TIP3    H257000   2.944   6.537  15.023  0.2934 -0.0633  0.1819
11837TIP3   OH257001   3.563   5.956   3.018 -0.2159  0.2370  0.6133
11837TIP3    H157002   3.641   5.954   2.962  1.7754  2.0731  3.2048
11837TIP3    H257003   3.550   6.048   3.039 -0.6353 -0.4138  3.4772
11838TIP3   OH257004   6.596   2.499  12.220 -0.5209 -0.5003 -0.3781
11838TIP3    H157005   6.656   2.479  12.148 -0.5577 -1.6379 -0.1025
11838TIP3    H257006   6.645   2.476  12.299 -0.5624  0.5342 -0.0377
11839TIP3   OH257007   0.848   1.441   5.987  0.0641  0.3666  0.1270
11839TIP3    H157008   0.831   1.354   6.021 -1.8203  0.9032  0.5993
11839TIP3    H257009   0.930   1.468   6.029  0.2554 -0.8654  0.5501
11840TIP3   OH257010   1.452   4.152   3.670  0.3265 -0.9936  0.1393
11840TIP3    H157011   1.389   4.218   3.702  0.6544 -0.3620 -0.5076
11840TIP3    H257012   1.497   4.195   3.597  0.2512 -2.0847 -0.5658
11841TIP3   OH257013   4.049   3.944  12.733  0.2291 -0.5165 -0.4905
11841TIP3    H157014   4.116   3.947  12.664 -1.2393  0.7814 -1.8977
11841TIP3    H257015   4.058   4.027  12.779  0.5962 -1.0001  0.3360
11842TIP3   OH257016   2.963   4.984  13.798 -0.1139 -0.0557  0.0362
11842TIP3    H157017   2.986   4.969  13.890  1.1095  1.4775 -0.0087
11842TIP3    H257018   2.867   4.988  13.798 -0.2611 -2.4404  0.8583
11843TIP3   OH257019   3.036   5.262   4.371  0.2156  0.3300  0.2352
11843TIP3    H157020   3.001   5.174   4.356 -0.1506  0.5563 -0.2618
11843TIP3    H257021   3.130   5.248   4.386  0.1692 -0.1419  0.0996
11844TIP3   OH257022   3.859   1.313  11.689 -0.3980  0.1574 -0.1731
11844TIP3    H157023   3.822   1.399  11.670 -3.3578 -1.2925 -1.2731
11844TIP3    H257024   3.785   1.262  11.723  1.3562 -1.8648  0.6977
11845TIP3   OH257025   1.408   0.055   5.652 -0.6489  0.2966  0.4984
11845TIP3    H157026   1.425   0.117   5.722 -1.5608  1.3993 -0.2228
11845TIP3    H257027   1.313   0.058   5.640 -0.7037 -1.2239  0.4259
11846TIP3   OH257028   6.779   0.223   1.077  0.1938  0.3343  0.0958
11846TIP3    H157029   6.815   0.200   0.991 -1.8978 -0.4626 -0.6093
11846TIP3    H257030   6.819   0.161   1.138  1.1586  0.4515 -0.4178
11847TIP3   OH257031   6.654   2.693   4.122 -0.1158  0.3021  0.3024
11847TIP3    H157032   6.655   2.728   4.033 -0.1596 -0.6720 -0.0898
11847TIP3    H257033   6.565   2.660   4.134  0.7222 -2.3486 -0.4224
11848TIP3   OH257034   1.761   4.100  15.304  0.1116 -0.5574  0.2289
11848TIP3    H157035   1.851   4.069  15.304  0.0991 -0.6729  2.1069
11848TIP3    H257036   1.768   4.194  15.288  0.5739 -0.5564  0.4311
11849TIP3   OH257037   1.342   4.174  16.368  0.4214  0.0004  0.3535
11849TIP3    H157038   1.303   4.159  16.283  1.2438  0.5755 -0.1358
11849TIP3    H257039   1.368   4.087  16.399  1.3924 -0.0694 -0.6182
11850TIP3   OH257040   4.430   3.449   5.432  0.5907 -0.5096  0.4701
11850TIP3    H157041   4.514   3.494   5.427  0.9990 -1.2696  0.2933
11850TIP3    H257042   4.376   3.490   5.365  1.5724 -1.5208 -0.9760
11851TIP3   OH257043   0.384   4.077  11.379  0.1849 -0.0158 -0.2044
11851TIP3    H157044   0.322   4.010  11.406  0.5295  0.3613  1.5771
11851TIP3    H257045   0.413   4.118  11.460 -0.1745  2.4518 -1.2545
11852TIP3   OH257046   6.739   2.211   2.796 -0.1286  0.9296 -0.1547
11852TIP3    H157047   6.715   2.173   2.711  0.4622  0.7822 -0.2597
11852TIP3    H257048   6.824   2.252   2.780  0.0322  0.8122  0.3925
11853TIP3   OH257049   0.503   2.578  16.852 -0.4633  0.2303 -0.5332
11853TIP3    H157050   0.462   2.529  16.923  0.3929  0.7456  0.3286
11853TIP3    H257051   0.454   2.660  16.848 -1.1362 -0.2032 -1.1880
11854TIP3   OH257052   6.045   1.951  15.857  0.2916 -0.0435  0.3585
11854TIP3    H157053   6.070   1.964  15.765 -2.3683  2.4715 -0.0963
11854TIP3    H257054   6.095   2.017  15.905 -0.9961  1.0845  0.1955
11855TIP3   OH257055   0.236   1.431  17.022  0.0947  0.0293  0.0140
11855TIP3    H157056   0.251   1.347  16.977  0.1853  0.4442 -0.7371
11855TIP3    H257057   0.285   1.495  16.970 -0.7199  0.6949  0.0598
11856TIP3   OH257058   5.202   3.214  13.898 -0.8830  0.7367  0.2574
11856TIP3    H157059   5.257   3.292  13.898 -0.9794  0.8041  0.2855
11856TIP3    H257060   5.142   3.227  13.972  0.1351 -0.0847  1.2489
11857TIP3   OH257061   4.757   5.619   3.022 -0.6178  0.1351 -0.0778
11857TIP3    H157062   4.755   5.673   3.101  0.1758  1.5153 -0.9856
11857TIP3    H257063   4.727   5.533   3.052  0.7890  0.3082  1.9725
11858TIP3   OH257064   2.599   6.225   5.065  0.1552  0.3135  0.1132
11858TIP3    H157065   2.611   6.135   5.097  1.3428  0.1980 -0.6254
11858TIP3    H257066   2.608   6.217   4.970  1.4248  1.3925  0.1347
11859TIP3   OH257067   0.978   5.687   4.550 -0.0545  0.1306 -0.1941
11859TIP3    H157068   1.003   5.662   4.461  2.1472  0.1858  0.3864
11859TIP3    H257069   0.983   5.606   4.600  1.9649  0.6996  0.5661
11860TIP3   OH257070   1.958   6.655  13.734  0.7699  0.2529  0.0322
11860TIP3    H157071   1.981   6.588  13.669  0.6253 -0.9523  1.2060
11860TIP3    H257072   1.970   6.612  13.818 -0.9114  1.1867  0.7725
11861TIP3   OH257073   0.815   1.190   6.094  0.1669  0.1188 -0.0964
11861TIP3    H157074   0.777   1.173   6.180 -0.8495 -0.7828 -0.7107
11861TIP3    H257075   0.906   1.161   6.101  0.7731  2.2707  1.3813
11862TIP3   OH257076   2.991   5.313  14.189 -0.3867  0.4895  0.4239
11862TIP3    H157077   2.963   5.303  14.098  1.2316  0.1871 -0.0612
11862TIP3    H257078   3.081   5.279  14.191  0.0458  1.6271  1.8696
11863TIP3   OH257079   4.518   3.178  12.689 -0.0969  0.0016  0.1776
11863TIP3    H157080   4.566   3.198  12.769 -1.0174 -0.6532  0.8994
11863TIP3    H257081   4.489   3.264  12.657 -0.6491  0.1746  1.1244
11864TIP3   OH257082   4.035   2.309   6.850  0.2301 -0.4012  0.0119
11864TIP3    H157083   4.020   2.394   6.810 -1.2833 -0.0890  1.1796
11864TIP3    H257084   4.043   2.327   6.944  0.3390 -1.4800  0.2195
11865TIP3   OH257085   6.817   0.385  12.254  0.0242  0.7432  0.1111
11865TIP3    H157086   6.810   0.299  12.215 -3.3138  1.2782 -0.6900
11865TIP3    H257087   6.853   0.441  12.185  0.3673  0.3680 -0.0087
11866TIP3   OH257088   6.115   4.595  14.995  0.1808  0.3113  0.1772
11866TIP3    H157089   6.143   4.668  14.939  0.4655 -0.0212 -0.1161
11866TIP3    H257090   6.033   4.626  15.034 -0.0102  0.5591 -0.4051
11867TIP3   OH257091   0.528   6.281   6.473  0.2296 -0.3212  0.2903
11867TIP3    H157092   0.577   6.332   6.538 -3.7216  1.6693  1.9307
11867TIP3    H257093   0.504   6.200   6.520  1.1164 -0.8450 -0.1656
11868TIP3   OH257094   1.004   1.539   3.975 -0.2850 -0.6911  0.5193
11868TIP3    H157095   0.971   1.594   4.047  1.2783 -0.6916  1.2514
11868TIP3    H257096   1.094   1.568   3.963 -0.5782 -0.5893 -1.5613
11869TIP3   OH257097   6.738   2.572  13.188  0.3668 -0.1364 -0.0945
11869TIP3    H157098   6.699   2.585  13.102  0.4600  0.5144 -0.0400
11869TIP3    H257099   6.827   2.541  13.170  0.6604  0.7955 -0.2368
11870TIP3   OH257100   2.263   2.463  11.121 -0.4756  0.0108 -0.0435
11870TIP3    H157101   2.322   2.434  11.052 -0.4190 -0.7447  0.3217
11870TIP3    H257102   2.308   2.441  11.203 -0.6102  0.7576  0.2437
11871TIP3   OH257103   1.846   4.685  10.414 -0.1385  0.0240  0.5448
11871TIP3    H157104   1.783   4.756  10.395  1.3873  0.9665 -1.1440
11871TIP3    H257105   1.931   4.727  10.406  0.7862 -2.0261 -0.4662
11872TIP3   OH257106   6.771   2.251   1.633 -0.2320 -0.3198  0.1981
11872TIP3    H157107   6.855   2.275   1.671  0.0454 -1.5676  0.4022
11872TIP3    H257108   6.709   2.256   1.705 -0.1938 -0.0994  0.2140
11873TIP3   OH257109   6.692   6.142   0.118  0.1258  0.3849  0.4115
11873TIP3    H157110   6.727   6.111   0.035 -0.1245  0.9128  0.1083
11873TIP3    H257111   6.606   6.179   0.097  0.4202  1.2990  0.7544
11874TIP3   OH257112   2.405   2.138   5.921 -1.0020  0.5287  0.1525
11874TIP3    H157113   2.433   2.183   5.841 -0.2927 -0.8187 -0.3784
11874TIP3    H257114   2.468   2.165   5.987  1.4027 -2.1803 -0.9441
11875TIP3   OH257115   2.583   6.539   1.878 -0.2328  0.2694 -0.8638
11875TIP3    H157116   2.641   6.481   1.927  1.5356  0.2836 -2.8536
11875TIP3    H257117   2.515   6.481   1.844 -1.9003  0.3745  2.1387
11876TIP3   OH257118   0.565   0.633   2.074 -0.5514 -0.2506 -0.4618
11876TIP3    H157119   0.652   0.652   2.040  0.1671 -0.2260  1.3573
11876TIP3    H257120   0.561   0.538   2.077  0.1662 -0.2385  1.3169
11877TIP3   OH257121   3.431   3.574  11.922 -0.1418 -0.1148 -0.0165
11877TIP3    H157122   3.340   3.544  11.926  0.1175 -1.3461 -2.2857
11877TIP3    H257123   3.429   3.653  11.869  0.1137 -0.1108 -0.0231
11878TIP3   OH257124   3.265   5.716  15.001  0.0043  0.2553 -0.1514
11878TIP3    H157125   3.175   5.706  14.970 -0.5211 -0.7131  1.6437
11878TIP3    H257126   3.282   5.810  14.995 -0.3795  0.2013 -2.4960
11879TIP3   OH257127   0.620   3.629  11.935 -0.6262 -0.4581  0.1538
11879TIP3    H157128   0.694   3.589  11.981  0.7983 -0.2601 -1.8934
11879TIP3    H257129   0.595   3.703  11.990  0.9523 -0.3237  0.7276
11880TIP3   OH257130   3.605   5.865   3.650 -0.3183 -0.5561  0.7763
11880TIP3    H157131   3.578   5.807   3.578  0.2075  0.4318 -0.2355
11880TIP3    H257132   3.688   5.903   3.620 -0.4110  0.3463  1.6413
11881TIP3   OH257133   2.031   4.506   4.284 -0.3410  0.1922  0.0339
11881TIP3    H157134   1.963   4.514   4.217  1.5845  0.1107 -2.0031
11881TIP3    H257135   2.027   4.414   4.311  0.5890 -0.4752 -1.9408
11882TIP3   OH257136   1.187   0.744   3.492 -0.5922 -0.1975  0.2300
11882TIP3    H157137   1.102   0.787   3.494 -0.6927 -0.2617 -1.6438
11882TIP3    H257138   1.167   0.652   3.474 -0.1625 -0.2578  0.0475
11883TIP3   OH257139   0.174   3.886  11.376  0.1787 -0.8368  0.0672
11883TIP3    H157140   0.177   3.791  11.384  0.5510 -0.9556 -1.2405
11883TIP3    H257141   0.180   3.902  11.281 -3.2970  0.3598 -0.0325
11884TIP3   OH257142   1.761   1.751  14.442  0.2300 -0.2445  0.3979
11884TIP3    H157143   1.813   1.823  14.409 -2.1081  1.6549  0.7023
11884TIP3    H257144   1.686   1.746  14.382 -0.0541 -1.8991  0.8547
11885TIP3   OH257145   0.716   3.231  17.127 -0.1892 -0.4202  0.2641
11885TIP3    H157146   0.670   3.233  17.211 -1.1622 -2.2156 -0.2010
11885TIP3    H257147   0.657   3.184  17.068 -0.3586  2.4543 -1.9722
11886TIP3   OH257148   2.293   3.047  14.707 -0.0936 -0.3163  0.3934
11886TIP3    H157149   2.309   3.092  14.791 -1.6361 -0.3284  0.7099
11886TIP3    H257150   2.312   3.113  14.641 -0.9001  0.3533  0.8179
11887TIP3   OH257151   3.395   3.558  15.038 -0.2445  0.7175 -0.0313
11887TIP3    H157152   3.482   3.556  15.078 -0.4389 -2.4750  0.3597
11887TIP3    H257153   3.410   3.531  14.947 -0.9982 -1.7455  0.5212
11888TIP3   OH257154   2.225   0.515  17.083  0.1883 -0.2036 -0.1137
11888TIP3    H157155   2.247   0.600  17.121 -0.5878 -0.2817  0.5266
11888TIP3    H257156   2.231   0.528  16.988  1.2055  0.2497  0.0075
11889TIP3   OH257157   0.622   5.360  10.918  0.1577 -0.5318 -0.3105
11889TIP3    H157158   0.670   5.282  10.945  1.2687  0.2434 -0.0298
11889TIP3    H257159   0.530   5.333  10.919  0.4124 -1.4241  1.2033
11890TIP3   OH257160   3.519   2.849   2.794  0.9354 -0.3442  0.4033
11890TIP3    H157161   3.493   2.936   2.823  1.6473  0.0583 -0.1437
11890TIP3    H257162   3.558   2.863   2.707 -0.1184 -1.3665 -0.2645
11891TIP3   OH257163   4.271   6.686   0.617  0.5955  0.6126  0.6218
11891TIP3    H157164   4.186   6.665   0.579  0.5295  0.0251  1.0804
11891TIP3    H257165   4.284   6.779   0.598 -0.3225  0.7957  0.8791
11892TIP3   OH257166   2.114   4.494  13.975  0.3907 -0.1817 -0.1476
11892TIP3    H157167   2.099   4.403  14.003  1.3458 -0.0911  0.6921
11892TIP3    H257168   2.188   4.523  14.028 -1.2164  1.7808  1.0710
11893TIP3   OH257169   2.404   3.215  17.191  0.6750 -0.1200 -0.1880
11893TIP3    H157170   2.359   3.292  17.225  0.0526 -0.0126 -1.1940
11893TIP3    H257171   2.468   3.191  17.258 -1.5918 -0.8929  1.7836
11894TIP3   OH257172   3.782   6.528  12.548 -0.0759 -0.2086 -0.0169
11894TIP3    H157173   3.814   6.607  12.592 -1.3767  0.0610  0.4744
11894TIP3    H257174   3.729   6.561  12.475  0.4556 -0.6415 -0.6002
11895TIP3   OH257175   2.426   1.634   0.443  0.3268 -0.0830  0.1081
11895TIP3    H157176   2.380   1.564   0.398 -0.3867 -0.1549  0.9393
11895TIP3    H257177   2.509   1.595   0.471 -0.2793 -0.7490  1.0050
11896TIP3   OH257178   6.226   5.520  16.358 -0.6925 -0.1694  0.3814
11896TIP3    H157179   6.170   5.561  16.424 -0.6674 -2.1315  1.6677
11896TIP3    H257180   6.213   5.426  16.371  2.3439 -0.6544  0.2124
11897TIP3   OH257181   6.379   0.280   0.423  0.3098 -0.5365  0.8021
11897TIP3    H157182   6.374   0.357   0.480 -2.0337 -0.7684  0.9569
11897TIP3    H257183   6.304   0.226   0.449  0.1539 -1.4271 -1.3831
11898TIP3   OH257184   6.378   5.308  14.458  0.2204 -0.1006  0.2303
11898TIP3    H157185   6.465   5.268  14.469  0.3646  0.5397  1.5218
11898TIP3    H257186   6.374   5.376  14.526 -0.6813  0.9392 -0.8402
11899TIP3   OH257187   4.685   3.713   1.902 -0.0936  0.7452 -0.0963
11899TIP3    H157188   4.625   3.740   1.971  0.5838 -1.2705  1.3425
11899TIP3    H257189   4.771   3.744   1.931  0.2443 -0.3945  0.1648
11900TIP3   OH257190   5.263   1.120   1.495 -0.7169  0.0167  0.2344
11900TIP3    H157191   5.247   1.025   1.491 -0.1214 -0.0866  0.1253
11900TIP3    H257192   5.280   1.144   1.404  0.8874 -0.1042  0.4780
11901TIP3   OH257193   4.275   3.116   0.179  0.2666  0.6679  0.5994
11901TIP3    H157194   4.211   3.047   0.167 -2.9837  3.3650  1.5745
11901TIP3    H257195   4.299   3.143   0.091  0.7126 -0.9413  0.2291
11902TIP3   OH257196   3.697   4.519   1.003  0.3617 -0.3935 -0.3191
11902TIP3    H157197   3.773   4.577   1.010  0.4486 -0.4539 -0.7546
11902TIP3    H257198   3.623   4.579   0.993  0.3363 -0.3315  0.2256
11903TIP3   OH257199   2.740   5.215   5.605  0.3105 -0.3501 -0.3775
11903TIP3    H157200   2.798   5.246   5.675  3.3656  1.1468 -3.3994
11903TIP3    H257201   2.670   5.280   5.602  1.2303  0.6807 -0.0183
11904TIP3   OH257202   2.463   0.668   0.216  0.4334  0.4124  0.6780
11904TIP3    H157203   2.480   0.738   0.280  2.7877 -1.4673  2.1614
11904TIP3    H257204   2.376   0.634   0.240  0.4065  1.0873  1.5692
11905TIP3   OH257205   2.134   1.499  17.032  0.2948 -0.3477  0.4856
11905TIP3    H157206   2.204   1.470  16.974 -1.6287 -1.4041 -1.4083
11905TIP3    H257207   2.105   1.419  17.077 -0.7237 -0.2381  0.0569
11906TIP3   OH257208   1.352   5.283  13.480  0.0249  0.1247  0.1816
11906TIP3    H157209   1.341   5.378  13.485  0.6459  0.2012  0.1774
11906TIP3    H257210   1.363   5.256  13.571  2.3740  0.3870  0.0235
11907TIP3   OH257211   3.217   0.729   4.976 -0.3140  0.3524 -0.0881
11907TIP3    H157212   3.164   0.796   5.018 -1.5624 -0.2949 -0.5946
11907TIP3    H257213   3.291   0.716   5.036 -0.5822  1.4493  0.4967
11908TIP3   OH257214   5.350   0.490  11.771 -0.0312  0.0646 -0.0056
11908TIP3    H157215   5.385   0.579  11.769 -3.0119  1.2837 -0.2233
11908TIP3    H257216   5.378   0.451  11.689  1.5123  0.6854  0.2064
11909TIP3   OH257217   3.692   1.460  13.129  0.0659 -0.5159  0.1184
11909TIP3    H157218   3.741   1.540  13.107  0.6037 -0.1029  2.5847
11909TIP3    H257219   3.760   1.395  13.147 -0.3020 -0.6642  1.0202
11910TIP3   OH257220   3.381   0.920   6.465  0.4780  0.0355 -0.0344
11910TIP3    H157221   3.377   0.871   6.383  2.4455 -2.4690  1.3222
11910TIP3    H257222   3.326   0.871   6.525  0.2749  1.0347  0.6106
11911TIP3   OH257223   3.890   5.696  12.080  0.1654 -0.2781  0.2732
11911TIP3    H157224   3.796   5.685  12.094  0.2197 -2.2403 -0.6452
11911TIP3    H257225   3.929   5.684  12.166 -0.2588 -1.8074  0.2601
11912TIP3   OH257226   2.881   3.731  14.934  0.2313 -0.2197  0.0807
11912TIP3    H157227   2.855   3.799  14.872 -0.1524 -0.5400 -0.1109
11912TIP3    H257228   2.812   3.731  15.000 -0.0223 -0.7542 -0.1799
11913TIP3   OH257229   3.727   2.477   3.021  0.1366 -0.0778 -0.0257
11913TIP3    H157230   3.718   2.571   3.003 -2.3761 -0.4982 -1.1633
11913TIP3    H257231   3.810   2.453   2.981 -0.6669  1.0453 -2.4666
11914TIP3   OH257232   2.874   4.265  14.385 -0.8830  0.2340  0.1886
11914TIP3    H157233   2.906   4.239  14.472  2.5299  0.0308 -1.0470
11914TIP3    H257234   2.852   4.183  14.342  1.6857 -0.0420 -0.6702
11915TIP3   OH257235   5.474   6.655  15.914 -0.0633  0.0987 -0.7972
11915TIP3    H157236   5.569   6.645  15.916  0.0922  1.3736 -1.5158
11915TIP3    H257237   5.459   6.749  15.908 -1.3889 -0.0472 -0.1826
11916TIP3   OH257238   0.346   3.216  14.526  0.7456  0.2936  0.1410
11916TIP3    H157239   0.437   3.215  14.554  0.1027 -0.6243  2.2580
11916TIP3    H257240   0.319   3.124  14.526 -0.7164  0.7036  1.3802
11917TIP3   OH257241   1.675   5.618   0.946  0.4942  0.2303  0.5256
11917TIP3    H157242   1.749   5.651   0.998  1.6747  1.0078 -1.5743
11917TIP3    H257243   1.711   5.542   0.900 -0.0052  0.6449 -0.5453
11918TIP3   OH257244   1.294   3.008  11.168 -0.3673  0.0653 -0.3804
11918TIP3    H157245   1.286   3.103  11.179 -0.9594 -0.0693  0.3860
11918TIP3    H257246   1.350   2.998  11.091  0.1722  1.0306 -0.1283
11919TIP3   OH257247   4.419   4.944   3.860  0.3117 -0.4007  0.3310
11919TIP3    H157248   4.334   4.906   3.880  0.4361 -0.5477  0.5784
11919TIP3    H257249   4.451   4.978   3.943 -0.8064  2.3077 -0.2825
11920TIP3   OH257250   5.062   3.104  14.756 -0.2423 -0.4813  0.1217
11920TIP3    H157251   5.037   3.193  14.779  1.3190  1.1513 -4.0129
11920TIP3    H257252   4.988   3.051  14.783 -2.2516  2.3926  0.4827
11921TIP3   OH257253   3.812   4.102   3.903 -0.2218 -0.1026 -0.0882
11921TIP3    H157254   3.857   4.136   3.981 -0.1206  0.2490 -0.3013
11921TIP3    H257255   3.740   4.049   3.939 -0.2545  0.1637  0.2476
11922TIP3   OH257256   3.659   3.800   2.369 -0.4424 -0.1440  0.3561
11922TIP3    H157257   3.708   3.833   2.445  0.5001 -1.5552  0.3769
11922TIP3    H257258   3.611   3.876   2.337 -0.1991  0.6718  1.8650
11923TIP3   OH257259   2.291   3.795  15.329  0.0530 -0.0448 -0.4709
11923TIP3    H157260   2.297   3.820  15.421  0.1305 -1.1274 -0.1805
11923TIP3    H257261   2.352   3.855  15.284  0.7227 -0.1308  0.3054
11924TIP3   OH257262   3.453   2.914  14.412  0.2620 -0.0333 -0.0853
11924TIP3    H157263   3.541   2.953  14.408  0.3818 -0.3368 -0.4416
11924TIP3    H257264   3.459   2.835  14.358 -0.1619 -0.1921  0.0962
11925TIP3   OH257265   5.355   3.224   1.916  0.1949  0.0389  0.1248
11925TIP3    H157266   5.335   3.274   1.837 -0.4899 -0.4415 -0.0145
11925TIP3    H257267   5.281   3.242   1.975  0.7642  0.5029  0.7164
11926TIP3   OH257268   4.462   0.201   4.453 -0.0925 -0.0114  0.5942
11926TIP3    H157269   4.385   0.185   4.507 -1.9247  0.3327 -1.8727
11926TIP3    H257270   4.432   0.263   4.386  2.4213  0.4111 -0.1878
11927TIP3   OH257271   4.957   1.922  16.530  0.2932 -1.3842 -0.3713
11927TIP3    H157272   4.867   1.894  16.519  0.2537 -1.3837 -0.0722
11927TIP3    H257273   4.998   1.851  16.579 -0.6861  0.5683  3.4707
11928TIP3   OH257274   2.299   6.211  11.871 -0.0135  0.5163 -0.3764
11928TIP3    H157275   2.246   6.145  11.827 -0.8648  2.1023 -1.7991
11928TIP3    H257276   2.304   6.182  11.962 -0.9326 -1.1398 -0.8415
11929TIP3   OH257277   1.993   6.250  15.398  0.4560 -0.1780  0.0730
11929TIP3    H157278   1.966   6.281  15.311 -1.0246 -0.6496  0.3499
11929TIP3    H257279   2.073   6.300  15.417 -0.2290  1.2909 -0.7666
11930TIP3   OH257280   5.463   5.187   0.757 -0.0267  0.5960  0.8463
11930TIP3    H157281   5.444   5.257   0.819 -0.0618  0.4027  1.0556
11930TIP3    H257282   5.536   5.139   0.796  1.8142  2.1520 -0.6171
11931TIP3   OH257283   6.297   2.547   3.839  0.4817  0.2549 -0.3670
11931TIP3    H157284   6.290   2.458   3.872 -1.8872  0.5823  0.1533
11931TIP3    H257285   6.278   2.539   3.745 -0.0339  0.2293 -0.2651
11932TIP3   OH257286   3.643   0.323  17.045  0.2375  0.2552  0.2299
11932TIP3    H157287   3.598   0.273  17.113  0.7476  1.3385  1.3791
11932TIP3    H257288   3.665   0.258  16.978  1.6025 -1.2034  2.0542
11933TIP3   OH257289   5.687   4.245  16.847  0.2951 -0.0487 -0.6838
11933TIP3    H157290   5.631   4.299  16.792 -1.0074 -0.8693 -0.1723
11933TIP3    H257291   5.652   4.156  16.839  1.3924 -0.5377 -0.2073
11934TIP3   OH257292   0.181   5.195   0.355  0.1825 -0.5357  0.1649
11934TIP3    H157293   0.217   5.113   0.323  0.0214 -0.9360  0.9807
11934TIP3    H257294   0.094   5.201   0.315  0.8978  0.1364 -1.3257
11935TIP3   OH257295   6.078   2.399  15.523 -0.1168  0.9895 -0.7530
11935TIP3    H157296   6.104   2.402  15.431 -0.9474  1.4734 -0.9803
11935TIP3    H257297   5.986   2.371  15.521 -0.1122  0.9129 -0.0645
11936TIP3   OH257298   6.086   3.486   0.482  0.4250 -0.0652 -0.7728
11936TIP3    H157299   6.096   3.578   0.457 -0.1942 -0.1863 -1.4853
11936TIP3    H257300   6.056   3.443   0.402 -1.4537 -0.4780  0.1376
11937TIP3   OH257301   1.318   6.009   1.488 -0.0657  0.2942  0.1864
11937TIP3    H157302   1.294   6.099   1.509  2.0996  0.8866  0.2291
11937TIP3    H257303   1.287   5.996   1.398 -0.3100  1.1119  0.1523
11938TIP3   OH257304   4.560   2.925   0.832 -0.3009 -0.0730  0.0272
11938TIP3    H157305   4.536   3.018   0.831  0.4838  0.1600  1.4154
11938TIP3    H257306   4.477   2.879   0.843 -0.7323  0.4445 -1.0301
11939TIP3   OH257307   4.259   1.314   0.563 -0.0896  0.3618 -0.3353
11939TIP3    H157308   4.193   1.332   0.629  0.7217 -1.7548  1.1157
11939TIP3    H257309   4.245   1.222   0.539  0.8007  0.5700 -1.7487
11940TIP3   OH257310   6.315   5.514   6.694 -0.2008 -0.5799 -0.1582
11940TIP3    H157311   6.391   5.458   6.709 -0.7142 -1.9448 -2.4539
11940TIP3    H257312   6.244   5.453   6.672 -1.6356  0.7636  0.6515
11941TIP3   OH257313   4.968   3.382  15.792 -0.0621  0.2304  0.2495
11941TIP3    H157314   4.962   3.389  15.887 -1.0966 -0.6323  0.2544
11941TIP3    H257315   4.999   3.292  15.776 -3.2706 -0.8331 -0.3150
11942TIP3   OH257316   5.083   6.520  17.011  0.0278  0.0975 -0.0502
11942TIP3    H157317   5.115   6.544  17.098 -1.9902 -0.4500  0.8850
11942TIP3    H257318   5.013   6.457  17.028 -2.0263  1.7658 -1.8950
11943TIP3   OH257319   1.172   1.448  14.818 -0.3080  0.2756 -0.1298
11943TIP3    H157320   1.238   1.476  14.881  1.0422  0.1181 -1.4539
11943TIP3    H257321   1.090   1.449  14.867  0.8690 -0.8639  1.9164
11944TIP3   OH257322   2.959   5.808  13.238 -0.2219 -0.0665  0.0821
11944TIP3    H157323   2.910   5.853  13.170 -2.8900 -1.1134  1.2721
11944TIP3    H257324   2.922   5.840  13.320  1.6903 -0.2226  1.0512
11945TIP3   OH257325   1.934   2.902  14.860  0.5146 -0.1043 -0.4500
11945TIP3    H157326   1.973   2.989  14.871 -0.3100  0.1325  0.6228
11945TIP3    H257327   2.009   2.842  14.860  1.1011  0.6041 -1.3300
11946TIP3   OH257328   3.596   1.448   5.099 -0.0336 -0.2227  0.3858
11946TIP3    H157329   3.632   1.404   5.023  3.1065  2.0990  0.4491
11946TIP3    H257330   3.662   1.437   5.167 -2.0809 -0.8976  2.3562
11947TIP3   OH257331   5.161   0.430   0.042  0.3009  0.1085 -0.5244
11947TIP3    H157332   5.191   0.382  -0.035  1.7161  3.1417 -1.9209
11947TIP3    H257333   5.238   0.434   0.099 -0.1921 -0.4012  0.1863
11948TIP3   OH257334   1.715   0.651   5.141  0.7738  0.5659 -0.1420
11948TIP3    H157335   1.762   0.727   5.175 -1.0302  0.7404  2.0996
11948TIP3    H257336   1.755   0.576   5.185 -0.6783  0.6724  1.3951
11949TIP3   OH257337   1.531   4.227  16.133  0.0648  0.1902 -0.0481
11949TIP3    H157338   1.509   4.135  16.119  0.5976  0.0437  0.0945
11949TIP3    H257339   1.617   4.238  16.094 -0.2395  0.7664 -0.5663
11950TIP3   OH257340   6.103   3.405   5.077  0.0469 -0.3698  0.4946
11950TIP3    H157341   6.023   3.354   5.066  0.6020 -1.1771  0.2014
11950TIP3    H257342   6.171   3.353   5.035  0.7449  0.2797  0.8102
11951TIP3   OH257343   5.824   5.452  16.470 -0.2639  0.4705  0.0894
11951TIP3    H157344   5.835   5.366  16.430 -0.6677  0.1207  0.7166
11951TIP3    H257345   5.820   5.434  16.564  0.2184  1.2338  0.2589
11952TIP3   OH257346   4.645   4.155  14.285  0.3881  0.3117 -0.4357
11952TIP3    H157347   4.560   4.163  14.241  0.5735 -1.0386 -1.0521
11952TIP3    H257348   4.660   4.242  14.323 -1.7240  0.2866  0.5211
11953TIP3   OH257349   6.713   5.204  16.671 -0.4513 -0.5265  0.4835
11953TIP3    H157350   6.770   5.128  16.660 -1.1912 -0.7879 -1.8826
11953TIP3    H257351   6.767   5.278  16.645 -0.7480 -0.6323 -0.4689
11954TIP3   OH257352   4.356   5.536  14.073 -0.5723  0.0307 -0.1701
11954TIP3    H157353   4.417   5.609  14.063  1.3776 -1.3664  1.2835
11954TIP3    H257354   4.332   5.513  13.983  0.9275  0.6916 -0.7505
11955TIP3   OH257355   2.788   3.476   3.947  0.2252  0.2714 -0.3866
11955TIP3    H157356   2.874   3.449   3.917  0.2445 -0.3904  0.2570
11955TIP3    H257357   2.759   3.540   3.882  1.2691  0.6248 -0.5173
11956TIP3   OH257358   3.693   0.557  15.417  0.6706  0.0736 -0.4797
11956TIP3    H157359   3.763   0.550  15.352  0.5552  0.6614 -0.6670
11956TIP3    H257360   3.632   0.622  15.381 -0.1892 -0.7327 -0.5181
11957TIP3   OH257361   0.473   1.010  16.721 -0.2303 -0.4943  0.7888
11957TIP3    H157362   0.542   0.946  16.740 -0.2203 -1.1452 -1.2537
11957TIP3    H257363   0.392   0.968  16.751  0.1676 -0.0812  2.4373
11958TIP3   OH257364   2.545   3.915   1.148 -0.6245  0.4085  0.0550
11958TIP3    H157365   2.450   3.909   1.134 -0.4755 -0.5047 -0.6101
11958TIP3    H257366   2.561   3.860   1.225 -0.6507  0.6954  0.2678
11959TIP3   OH257367   0.114   2.207   3.724  0.2505  0.0621 -0.1963
11959TIP3    H157368   0.089   2.242   3.639 -0.3132 -1.9048 -0.8723
11959TIP3    H257369   0.174   2.272   3.761  1.2549  0.4761 -2.4949
11960TIP3   OH257370   0.213   2.586  14.799 -0.0676 -0.3515  0.6234
11960TIP3    H157371   0.162   2.517  14.841  1.0497 -0.5376  1.7307
11960TIP3    H257372   0.286   2.539  14.757  0.9023  0.1681  1.6992
11961TIP3   OH257373   0.014   1.003   2.812 -0.2108 -0.1201 -0.5049
11961TIP3    H157374  -0.048   0.970   2.876 -3.2382  2.2370 -2.0837
11961TIP3    H257375   0.066   1.068   2.859 -1.1593  0.2533  0.0297
11962TIP3   OH257376   3.018   2.198   1.141  0.2903 -0.1333  0.2187
11962TIP3    H157377   3.069   2.223   1.218  1.7196  0.6089 -0.9274
11962TIP3    H257378   2.949   2.264   1.136  1.1370  0.7653 -0.0100
11963TIP3   OH257379   2.753   2.732   5.337  0.2295  0.5446 -0.5857
11963TIP3    H157380   2.729   2.664   5.399 -0.2557 -0.3179 -1.7028
11963TIP3    H257381   2.839   2.706   5.305  1.1248  1.7527  0.7710
11964TIP3   OH257382   5.142   2.373  14.501 -0.0206  0.2964 -0.0943
11964TIP3    H157383   5.235   2.383  14.485  0.4236  0.1785  2.2973
11964TIP3    H257384   5.134   2.289  14.547 -1.3274  0.2106 -0.4421
11965TIP3   OH257385   5.727   4.663   0.380  0.2820 -0.0929  0.1014
11965TIP3    H157386   5.748   4.649   0.287 -0.3872 -2.2820  0.2586
11965TIP3    H257387   5.797   4.617   0.427 -0.3431 -0.4554  0.6704
11966TIP3   OH257388   6.456   5.444   1.929  0.2993  0.4366 -0.6465
11966TIP3    H157389   6.465   5.407   1.841  0.0277 -0.3710 -0.3457
11966TIP3    H257390   6.450   5.367   1.986 -0.8598  0.9423 -0.0622
11967TIP3   OH257391   2.345   5.959   1.715 -0.7715 -0.3541  0.4557
11967TIP3    H157392   2.299   5.984   1.635 -1.3613 -2.0321  0.2563
11967TIP3    H257393   2.278   5.917   1.770 -0.5064  1.2949  2.0820
11968TIP3   OH257394   1.421   5.530   0.105 -0.5990 -0.0361  0.5704
11968TIP3    H157395   1.487   5.580   0.154  1.0478  0.6330 -2.1777
11968TIP3    H257396   1.340   5.578   0.118  0.7328  2.8210 -1.0472
11969TIP3   OH257397   4.312   1.648   2.857  0.1182 -0.5170 -0.2062
11969TIP3    H157398   4.360   1.704   2.918  0.5741 -1.1499  0.0261
11969TIP3    H257399   4.235   1.619   2.906 -3.2570  4.4312 -2.1268
11970TIP3   OH257400   4.098   6.129   2.640 -0.9879 -0.1494 -1.1634
11970TIP3    H157401   4.171   6.190   2.632 -0.9660 -0.3199 -2.4013
11970TIP3    H257402   4.054   6.155   2.721  1.2432 -0.9276  0.3439
11971TIP3   OH257403   5.877   4.035   2.756  0.2645 -0.3250  0.1308
11971TIP3    H157404   5.791   4.075   2.743  0.4542  0.2509  0.6416
11971TIP3    H257405   5.899   3.998   2.670 -1.7206 -2.9149  0.6713
11972TIP3   OH257406   5.793   0.374   6.202  0.4440 -0.1858  0.2955
11972TIP3    H157407   5.872   0.416   6.234  1.2183 -1.7849  0.5241
11972TIP3    H257408   5.759   0.325   6.277 -2.3853  2.7991  1.0479
11973TIP3   OH257409   3.603   5.693  14.536 -0.1146 -0.5391 -0.0627
11973TIP3    H157410   3.509   5.695  14.518 -0.2622 -0.2500  0.7229
11973TIP3    H257411   3.610   5.664  14.627  0.5557 -0.4746 -0.0876
11974TIP3   OH257412   2.868   2.623  14.977 -0.1588  0.4793  0.7463
11974TIP3    H157413   2.787   2.587  15.012  1.0404 -0.0875  3.0410
11974TIP3    H257414   2.842   2.704  14.933 -1.7891  1.0035  2.6212
11975TIP3   OH257415   1.025   1.178   4.368  0.1871  0.3677  0.7801
11975TIP3    H157416   0.993   1.092   4.395  0.7075  0.3741  1.4499
11975TIP3    H257417   1.120   1.168   4.364  0.2570  0.9364  0.9507
11976TIP3   OH257418   1.593   0.120  12.023 -0.1720 -0.4765 -0.4727
11976TIP3    H157419   1.584   0.211  12.049 -0.2796 -0.5702 -0.1865
11976TIP3    H257420   1.594   0.071  12.105  1.5323 -0.5855 -0.5338
11977TIP3   OH257421   4.396   3.253  16.977 -0.4234 -0.1873  0.0224
11977TIP3    H157422   4.418   3.201  16.900  0.9305 -0.9837  0.9219
11977TIP3    H257423   4.311   3.293  16.956 -0.8449 -1.6973 -1.2174
11978TIP3   OH257424   1.206   1.120   0.748  0.3078 -0.5300  0.4400
11978TIP3    H157425   1.227   1.050   0.687  0.2239 -0.4955  0.3719
11978TIP3    H257426   1.281   1.123   0.808  0.8550  0.0817 -0.2528
11979TIP3   OH257427   3.201   2.407   1.934 -0.0871 -0.1781 -0.5565
11979TIP3    H157428   3.272   2.390   1.872  0.5419  0.2289  0.0420
11979TIP3    H257429   3.194   2.503   1.937  0.5632 -0.1535  0.7352
11980TIP3   OH257430   3.097   4.638  12.321  0.0626 -0.3898 -0.0106
11980TIP3    H157431   3.127   4.713  12.373  0.7193  0.4362 -1.5586
11980TIP3    H257432   3.019   4.671  12.276 -0.4916 -1.1046  0.4104
11981TIP3   OH257433   1.779   4.791  11.020  0.0597 -0.0601 -0.1984
11981TIP3    H157434   1.819   4.813  10.936 -2.6554  0.9930 -1.2554
11981TIP3    H257435   1.825   4.845  11.083  1.4536 -0.1329 -1.1228
11982TIP3   OH257436   0.656   1.127  11.865  0.5775  0.3170 -0.3425
11982TIP3    H157437   0.562   1.129  11.847  0.7411 -1.1461 -1.3940
11982TIP3    H257438   0.662   1.134  11.961 -0.4916  2.8953 -0.4038
11983TIP3   OH257439   3.528   0.557  14.762 -0.2760 -0.2959 -0.4390
11983TIP3    H157440   3.617   0.588  14.746  0.1256 -0.1547  1.8988
11983TIP3    H257441   3.540   0.477  14.812 -1.4633  0.9627  1.9492
11984TIP3   OH257442   5.680   3.143   3.009 -0.0108  0.5289 -0.3458
11984TIP3    H157443   5.710   3.127   2.920  1.8589 -0.4856  0.4433
11984TIP3    H257444   5.600   3.091   3.018 -0.1697  0.5886 -1.4030
11985TIP3   OH257445   1.083   5.198   2.819 -0.1173 -0.7418 -0.1431
11985TIP3    H157446   1.059   5.160   2.735 -0.2966 -1.0357  0.0411
11985TIP3    H257447   1.049   5.288   2.815 -1.6393 -1.2786  0.2761
11986TIP3   OH257448   4.431   4.496  11.016  0.0196 -0.3319  0.2476
11986TIP3    H157449   4.446   4.447  11.097  0.5753 -1.8695 -0.7775
11986TIP3    H257450   4.500   4.563  11.016  0.1858 -0.4969  0.9090
11987TIP3   OH257451   1.896   4.051  15.896 -0.0511  0.5191  0.5338
11987TIP3    H157452   1.945   3.983  15.942 -1.0612 -1.2302 -0.9341
11987TIP3    H257453   1.828   4.078  15.958  1.0011  0.9876  1.5162
11988TIP3   OH257454   3.442   3.951   2.743  0.4648 -0.3824  0.1839
11988TIP3    H157455   3.468   3.880   2.685 -1.3349 -1.3017  0.4635
11988TIP3    H257456   3.524   3.984   2.779  1.3911 -1.6451 -0.7228
11989TIP3   OH257457   0.583   5.602  14.760  0.2400  0.8371 -0.0182
11989TIP3    H157458   0.577   5.506  14.764 -0.1667  0.9197  1.6688
11989TIP3    H257459   0.661   5.619  14.707  2.3121 -0.4558  2.5235
11990TIP3   OH257460   2.127   6.495  12.282  0.1125  0.0869  0.1356
11990TIP3    H157461   2.187   6.561  12.316  0.2910  0.8202 -1.5363
11990TIP3    H257462   2.098   6.446  12.359  1.6076  0.7608  1.1415
11991TIP3   OH257463   2.294   1.606  11.119  0.4420 -0.2518  0.1677
11991TIP3    H157464   2.231   1.535  11.133  2.2252 -2.0521 -0.7092
11991TIP3    H257465   2.284   1.628  11.026  0.4533  0.0831  0.2473
11992TIP3   OH257466   4.558   3.314   3.232 -0.2102 -0.0354  0.0719
11992TIP3    H157467   4.584   3.390   3.284 -0.0874 -0.0731  0.0671
11992TIP3    H257468   4.589   3.333   3.144  1.3522 -0.8393  0.4312
11993TIP3   OH257469   2.977   0.324  11.628 -0.1588  0.7538  0.4350
11993TIP3    H157470   2.900   0.380  11.618 -0.2722  0.5896  0.3808
11993TIP3    H257471   2.990   0.317  11.722 -0.7924 -0.0107  0.4622
11994TIP3   OH257472   3.205   4.055  12.721  0.0167  0.3411  0.0930
11994TIP3    H157473   3.133   4.017  12.669  0.0478  0.7764 -0.2671
11994TIP3    H257474   3.196   4.149  12.708  0.4118  0.4147  0.3728
11995TIP3   OH257475   4.754   6.665  16.896  0.7094  0.6699  0.1527
11995TIP3    H157476   4.709   6.644  16.978 -1.1450  0.0482 -1.0148
11995TIP3    H257477   4.785   6.581  16.863  1.0205  0.8630 -0.0534
11996TIP3   OH257478   6.467   2.544   1.568  0.0545  0.2808  0.4815
11996TIP3    H157479   6.452   2.465   1.517  0.0119  0.5805  0.0199
11996TIP3    H257480   6.562   2.547   1.581  0.2430  1.0629 -1.0014
11997TIP3   OH257481   2.161   2.945  10.661 -0.2849  0.2076  0.4936
11997TIP3    H157482   2.164   2.877  10.593 -1.2813  1.7826 -1.1772
11997TIP3    H257483   2.238   2.999  10.644  0.3079 -0.2840  1.5913
11998TIP3   OH257484   3.111   4.124   1.983  0.1727  0.1426  0.2501
11998TIP3    H157485   3.019   4.149   1.987 -0.1258 -0.9682  0.4305
11998TIP3    H257486   3.148   4.154   2.066  0.7107  3.3661 -1.0659
11999TIP3   OH257487   3.808   0.615  11.566  0.2925  0.0430  0.2037
11999TIP3    H157488   3.820   0.524  11.594  2.0761  0.1366 -0.1788
11999TIP3    H257489   3.715   0.632  11.577  0.2851 -1.1910  2.2345
12000TIP3   OH257490   5.164   1.808   0.915 -0.5389 -0.8417  0.3953
12000TIP3    H157491   5.148   1.733   0.858 -1.8309 -1.5367  1.6545
12000TIP3    H257492   5.102   1.875   0.885  0.6042 -0.2432 -0.7194
12001TIP3   OH257493   5.571   2.838   3.370 -0.4405 -0.5098 -0.4279
12001TIP3    H157494   5.596   2.752   3.335 -1.0322 -0.3643 -1.2362
12001TIP3    H257495   5.650   2.891   3.363  0.3846 -1.4309  1.5436
12002TIP3   OH257496   2.388   2.993  16.528  0.2403  1.0980  0.0485
12002TIP3    H157497   2.427   3.030  16.607  0.1374 -0.9041  1.0831
12002TIP3    H257498   2.462   2.978  16.470  1.0096 -2.0137  1.7240
12003TIP3   OH257499   6.631   1.826  14.909 -0.3491 -0.4297  0.2475
12003TIP3    H157500   6.579   1.885  14.964  1.2455  2.0098 -0.7709
12003TIP3    H257501   6.641   1.874  14.827 -0.6392 -2.9772 -1.3177
12004TIP3   OH257502   1.294   5.545  13.449 -0.0034 -0.3528  0.3786
12004TIP3    H157503   1.236   5.549  13.373 -0.1653 -0.0886  0.5140
12004TIP3    H257504   1.265   5.617  13.505  0.0580 -0.5956  0.7296
12005TIP3   OH257505   5.930   1.246   1.138  0.3461  0.3948  0.1225
12005TIP3    H157506   5.875   1.183   1.091  0.9665 -0.6813  0.8025
12005TIP3    H257507   5.928   1.325   1.084  0.3163 -0.5183 -1.2303
12006TIP3   OH257508   0.823   1.880  11.614  0.2096 -0.0976  0.1876
12006TIP3    H157509   0.744   1.826  11.620  0.2728 -0.2015  0.1036
12006TIP3    H257510   0.874   1.857  11.691  0.4682 -0.5331 -0.1096
12007TIP3   OH257511   2.038   4.955   5.066  0.4610 -0.1692 -0.0398
12007TIP3    H157512   2.090   4.896   5.121  0.3191 -1.0540 -0.8462
12007TIP3    H257513   2.076   4.945   4.979 -1.4884 -1.3068 -0.7691
12008TIP3   OH257514   3.554   0.775   1.730  0.0853  0.2227  0.3647
12008TIP3    H157515   3.468   0.815   1.722 -0.0438  0.0890  1.0082
12008TIP3    H257516   3.582   0.797   1.819  0.4194 -0.3018  0.3919
12009TIP3   OH257517   6.704   1.684   3.419 -0.4914 -0.0367 -0.0057
12009TIP3    H157518   6.742   1.728   3.495  1.2533 -1.1362 -0.2004
12009TIP3    H257519   6.725   1.591   3.432  0.7053 -0.1370 -2.2654
12010TIP3   OH257520   6.285   0.697  17.267 -0.0892 -0.5781 -0.0774
12010TIP3    H157521   6.331   0.728  17.189 -1.0349  0.0428 -0.4118
12010TIP3    H257522   6.192   0.703  17.243 -0.3844 -0.3805  1.0970
12011TIP3   OH257523   1.311   4.475  12.578 -0.0236 -0.1722 -0.8064
12011TIP3    H157524   1.344   4.421  12.506 -2.1832 -1.4329 -0.8914
12011TIP3    H257525   1.245   4.420  12.621 -0.8357  1.6575  0.3433
12012TIP3   OH257526   0.285   6.559  11.851  0.4228  0.3810 -0.1770
12012TIP3    H157527   0.355   6.525  11.796 -0.1737 -0.9589 -0.1459
12012TIP3    H257528   0.212   6.498  11.837  0.5965 -0.6323  2.8683
12013TIP3   OH257529   4.675   6.445  16.130  0.2552  0.0772  0.1021
12013TIP3    H157530   4.737   6.442  16.203 -1.9617 -0.4343  2.0437
12013TIP3    H257531   4.642   6.535  16.129  0.9744  0.3363 -0.8906
12014TIP3   OH257532   1.737   2.885  13.513 -0.2455 -0.0418 -0.4280
12014TIP3    H157533   1.791   2.806  13.504 -0.3704 -0.1084 -0.6003
12014TIP3    H257534   1.782   2.951  13.460 -0.2064 -0.0333 -0.3830
12015TIP3   OH257535   4.353   2.249   2.003 -0.2653 -0.7364 -0.2710
12015TIP3    H157536   4.427   2.198   2.035  1.5801  1.7142 -0.5225
12015TIP3    H257537   4.295   2.184   1.963  0.8995 -2.9055  1.4322
12016TIP3   OH257538   4.240   5.137  14.561  0.0898 -0.2570 -0.1588
12016TIP3    H157539   4.223   5.131  14.655  1.2941 -2.1363 -0.0525
12016TIP3    H257540   4.185   5.068  14.523  3.3193 -2.8606 -0.3156
12017TIP3   OH257541   0.749   3.818   4.167 -0.3194  0.5250  0.3911
12017TIP3    H157542   0.790   3.892   4.213 -1.2581  0.6194  1.1083
12017TIP3    H257543   0.655   3.840   4.166 -0.5615 -0.4829  0.2837
12018TIP3   OH257544   5.762   3.084   2.742  0.1048 -0.2678  0.3194
12018TIP3    H157545   5.811   3.045   2.669  0.2013 -0.0836  0.2865
12018TIP3    H257546   5.676   3.041   2.738 -0.9616  1.9475 -1.7854
12019TIP3   OH257547   4.769   1.874   1.140  0.4022 -0.3217 -0.0417
12019TIP3    H157548   4.704   1.945   1.131  0.3762 -0.3180  0.1831
12019TIP3    H257549   4.767   1.830   1.055  0.2675 -0.1811 -0.1129
12020TIP3   OH257550   4.002   6.165   5.871 -0.2581 -0.5007  0.3411
12020TIP3    H157551   3.919   6.197   5.837  0.4558  0.9758 -0.0458
12020TIP3    H257552   3.985   6.149   5.964 -0.2731  2.4295  0.8942
12021TIP3   OH257553   6.123   2.071  10.908  0.1465 -0.4190 -0.3122
12021TIP3    H157554   6.074   2.152  10.897  0.8804  0.1167  0.3414
12021TIP3    H257555   6.080   2.009  10.849 -1.7421 -0.1350  0.7215
12022TIP3   OH257556   1.330   0.856   3.887  0.5387  0.3203  0.3308
12022TIP3    H157557   1.387   0.835   3.960  2.3681 -0.3720 -1.2683
12022TIP3    H257558   1.333   0.951   3.880  1.7852  0.2610  0.0316
12023TIP3   OH257559   5.591   4.890  11.182  0.5836 -0.0372  0.5698
12023TIP3    H157560   5.504   4.878  11.143 -0.0939 -0.4647  2.1336
12023TIP3    H257561   5.650   4.838  11.128 -0.1960  0.0110 -0.3261
12024TIP3   OH257562   4.442   4.912   3.380  0.5304  0.0562 -0.0557
12024TIP3    H157563   4.400   4.963   3.450 -0.5287 -1.8728  0.7530
12024TIP3    H257564   4.535   4.915   3.400  0.4052  1.0805  0.3843
12025TIP3   OH257565   3.841   2.118   6.158  0.5432 -0.3490 -0.4969
12025TIP3    H157566   3.782   2.190   6.182 -1.2689 -1.6326 -0.9146
12025TIP3    H257567   3.900   2.155   6.093  0.1541  0.9710 -0.1103
12026TIP3   OH257568   4.996   3.265  13.644  0.2055 -0.4307  0.2683
12026TIP3    H157569   5.030   3.269  13.733  2.4579  2.2386 -0.6493
12026TIP3    H257570   4.925   3.329  13.643  1.0048  0.4577 -0.1687
12027TIP3   OH257571   2.905   0.998   0.290 -0.1553  0.0617 -0.1061
12027TIP3    H157572   2.837   1.065   0.286  1.7588  2.0523 -0.2429
12027TIP3    H257573   2.945   0.999   0.203  0.3606 -0.7756  0.1124
12028TIP3   OH257574   4.459   3.211  17.244  0.2027 -0.6363  0.2698
12028TIP3    H157575   4.534   3.166  17.205  0.8141 -0.4410  1.1902
12028TIP3    H257576   4.410   3.246  17.170 -0.0269 -2.3984 -0.4411
12029TIP3   OH257577   3.192   4.378   0.578 -0.1206  0.2753  0.5280
12029TIP3    H157578   3.273   4.330   0.562 -0.9560 -0.1546 -2.8038
12029TIP3    H257579   3.215   4.469   0.558 -0.2162  0.2797  0.4372
12030TIP3   OH257580   0.517   4.721   5.222  0.2822  0.3089  0.3235
12030TIP3    H157581   0.505   4.649   5.284 -1.7422  0.0587 -0.3170
12030TIP3    H257582   0.536   4.797   5.277  0.3620 -0.2809  1.1253
12031TIP3   OH257583   2.519   1.794  14.687 -0.4092  0.1838  0.4923
12031TIP3    H157584   2.580   1.801  14.760 -0.3127  0.2183  0.4074
12031TIP3    H257585   2.462   1.870  14.697 -1.2726 -0.5721  1.3313
12032TIP3   OH257586   0.573   5.983  14.734 -0.0086 -0.0542 -0.3060
12032TIP3    H157587   0.665   5.994  14.756  0.1469 -1.1282 -0.4134
12032TIP3    H257588   0.531   5.958  14.816 -0.2253  0.5331 -0.2335
12033TIP3   OH257589   2.274   4.577  15.188  0.8126 -0.0999 -0.0402
12033TIP3    H157590   2.211   4.541  15.250  0.7864  2.1547  1.2616
12033TIP3    H257591   2.222   4.636  15.133  1.3534 -0.0251 -0.4765
12034TIP3   OH257592   3.151   6.376   3.775 -0.0882  0.3507  0.2180
12034TIP3    H157593   3.195   6.369   3.859  0.0763 -0.8352  0.0509
12034TIP3    H257594   3.217   6.347   3.711 -0.4435  0.5315 -0.2355
12035TIP3   OH257595   6.647   2.071  10.637  0.2170 -0.3504  1.1082
12035TIP3    H157596   6.617   1.995  10.688  0.6992 -0.6089  1.0037
12035TIP3    H257597   6.700   2.122  10.699  1.6030 -1.1595  0.5912
12036TIP3   OH257598   2.792   2.274  11.212  0.0100  0.5355 -0.0126
12036TIP3    H157599   2.848   2.350  11.223 -0.5404  0.8872  0.3521
12036TIP3    H257600   2.852   2.199  11.216  0.2439  0.8151  2.0204
12037TIP3   OH257601   0.581   6.361  12.088  0.0335 -0.4507  0.3761
12037TIP3    H157602   0.627   6.278  12.101  0.0868 -0.7945 -1.8644
12037TIP3    H257603   0.547   6.356  11.999 -0.9575  1.4630  0.6213
12038TIP3   OH257604   6.139   1.797  11.763 -0.0680 -0.5731  0.0466
12038TIP3    H157605   6.071   1.840  11.711  0.2076  0.9748  0.9205
12038TIP3    H257606   6.169   1.865  11.823  1.6049 -1.5162  0.3006
12039TIP3   OH257607   2.510   3.291  13.997  0.6833 -0.3189 -0.1411
12039TIP3    H157608   2.460   3.370  13.975 -1.5567 -2.1215 -1.7510
12039TIP3    H257609   2.496   3.279  14.091  1.0338  1.1419  0.1242
12040TIP3   OH257610   4.540   0.196   5.924  0.3806 -0.1295  0.3045
12040TIP3    H157611   4.528   0.122   5.984 -0.1909  0.2652  0.6769
12040TIP3    H257612   4.576   0.266   5.978 -0.5159  0.3584  0.2777
12041TIP3   OH257613   2.450   3.228  14.265 -0.0644 -0.1370  0.0048
12041TIP3    H157614   2.469   3.152  14.321 -0.2077  1.2632  2.0085
12041TIP3    H257615   2.450   3.302  14.326 -1.3085  1.2843 -1.7179
12042TIP3   OH257616   6.128   2.430  11.694 -0.3255 -0.4903 -0.1672
12042TIP3    H157617   6.206   2.408  11.745  0.3766 -0.7886 -1.3433
12042TIP3    H257618   6.060   2.373  11.730  0.3916 -1.3886 -0.1974
12043TIP3   OH257619   6.694   6.443   0.690 -0.3574 -0.0366 -0.1162
12043TIP3    H157620   6.663   6.525   0.654  0.4828  0.4022  0.1447
12043TIP3    H257621   6.789   6.446   0.680 -0.1905 -0.3348  1.2120
12044TIP3   OH257622   5.722   2.570   5.109  0.1880 -0.0440 -0.2556
12044TIP3    H157623   5.789   2.621   5.154  0.6100 -0.0789 -0.8410
12044TIP3    H257624   5.640   2.615   5.130  0.5219  0.6936 -0.4956
12045TIP3   OH257625   6.356   4.754  17.025  0.7150  0.0338 -0.2456
12045TIP3    H157626   6.451   4.737  17.029  1.0746  1.8062 -0.7600
12045TIP3    H257627   6.322   4.717  17.106  1.8644 -0.5765 -0.0253
12046TIP3   OH257628   6.583   2.471  15.440  0.4316 -0.1828  0.0566
12046TIP3    H157629   6.545   2.547  15.482  1.2566  0.2794 -0.0124
12046TIP3    H257630   6.584   2.403  15.508 -0.5661 -0.2294  0.0328
12047TIP3   OH257631   1.592   4.136   2.951  0.0870 -0.4790  0.2440
12047TIP3    H157632   1.663   4.156   2.890 -0.0424 -2.0467 -0.4568
12047TIP3    H257633   1.532   4.080   2.901 -0.2083 -1.4813  1.6822
12048TIP3   OH257634   2.530   1.184  16.483  0.4479 -0.2178 -0.4005
12048TIP3    H157635   2.437   1.169  16.466  0.3971 -0.5426  0.1408
12048TIP3    H257636   2.564   1.217  16.400 -0.4171  1.1616 -0.2163
12049TIP3   OH257637   3.618   2.871   0.853 -0.1120 -0.4920  0.0788
12049TIP3    H157638   3.669   2.799   0.890 -0.4015 -1.4664 -1.4014
12049TIP3    H257639   3.551   2.829   0.800  0.1492  0.8684 -1.3710
12050TIP3   OH257640   4.836   6.403   4.952 -0.1719  0.1194  0.3841
12050TIP3    H157641   4.827   6.448   4.868  2.1509 -0.9579 -0.5001
12050TIP3    H257642   4.772   6.333   4.949 -2.3056  1.9851  0.8697
12051TIP3   OH257643   6.320   5.546  14.600  0.2617  0.2123 -0.0255
12051TIP3    H157644   6.398   5.597  14.622  0.7087 -0.5557  0.2160
12051TIP3    H257645   6.293   5.579  14.514  0.0359  1.4302  0.5112
12052TIP3   OH257646   4.504   0.292   1.303  0.9348  0.0071  0.2687
12052TIP3    H157647   4.598   0.305   1.316  1.1616 -1.5547  0.3386
12052TIP3    H257648   4.470   0.275   1.391  1.0369 -1.9731 -0.0418
12053TIP3   OH257649   5.103   4.473  15.794 -0.0733 -0.4849  0.2997
12053TIP3    H157650   5.117   4.397  15.737  1.5952  0.3089 -0.3674
12053TIP3    H257651   5.108   4.548  15.736 -0.0457  0.2400  1.2324
12054TIP3   OH257652   4.588   0.878   1.034  0.5447 -0.1233 -0.3489
12054TIP3    H157653   4.505   0.868   1.081 -0.0598 -1.8028 -1.7144
12054TIP3    H257654   4.641   0.934   1.091 -1.6511  1.3041  0.3626
12055TIP3   OH257655   1.864   5.419  13.924  0.4711  0.0800 -0.3534
12055TIP3    H157656   1.801   5.491  13.925  1.3261  0.8972 -2.1382
12055TIP3    H257657   1.917   5.433  14.002  0.2667  1.0557 -0.3767
12056TIP3   OH257658   2.955   1.083  14.017  0.4802 -0.8605  0.0353
12056TIP3    H157659   2.997   1.163  14.048 -1.0409  0.0932 -0.3460
12056TIP3    H257660   2.913   1.107  13.935 -1.1111 -1.7075  0.5859
12057TIP3   OH257661   5.074   2.866   0.216  0.3139  0.3311  0.5077
12057TIP3    H157662   5.012   2.893   0.149  0.7884  0.8262  0.2738
12057TIP3    H257663   5.070   2.935   0.282 -0.4119 -0.3210  1.1691
12058TIP3   OH257664   2.642   1.851   4.430 -0.4631  0.0381  0.0246
12058TIP3    H157665   2.702   1.911   4.386  2.6621 -1.3695  2.2227
12058TIP3    H257666   2.650   1.871   4.523 -2.0697 -1.3867  0.5097
12059TIP3   OH257667   6.004   1.282  11.724 -0.5495  0.1258 -0.1924
12059TIP3    H157668   5.926   1.236  11.692  0.1182 -0.9086 -0.3411
12059TIP3    H257669   5.970   1.346  11.787 -1.4860 -0.5488 -0.0040
12060TIP3   OH257670   2.050   3.187  14.106 -0.1869  0.2990  0.2518
12060TIP3    H157671   2.057   3.121  14.037  1.4277 -0.3538  1.0351
12060TIP3    H257672   1.962   3.174  14.142  0.1741 -1.5271  0.5118
12061TIP3   OH257673   0.473   6.406  16.721 -0.3900  0.7739 -0.5240
12061TIP3    H157674   0.435   6.464  16.655  0.7227  2.2359  0.1020
12061TIP3    H257675   0.558   6.445  16.741 -1.0287  0.7954  2.3322
12062TIP3   OH257676   1.215   3.414  11.537  0.6925  0.6168  0.4319
12062TIP3    H157677   1.122   3.434  11.539  0.3224 -0.8666 -0.7064
12062TIP3    H257678   1.253   3.478  11.477  0.3445  0.9820  0.6009
12063TIP3   OH257679   5.819   2.287   5.166  0.1919  0.5177 -0.3399
12063TIP3    H157680   5.765   2.292   5.245 -0.2883 -1.1834 -0.5341
12063TIP3    H257681   5.797   2.365   5.117 -2.7018 -0.5103 -0.7662
12064TIP3   OH257682   1.730   0.889  16.663 -0.2053 -0.1896 -0.1737
12064TIP3    H157683   1.817   0.928  16.668 -0.0084 -0.7135  0.6507
12064TIP3    H257684   1.670   0.962  16.673  0.1479  0.0626  0.0993
12065TIP3   OH257685   5.869   1.605  15.636 -0.3211  0.0914  0.4612
12065TIP3    H157686   5.894   1.519  15.670 -0.4505  1.1439  3.3917
12065TIP3    H257687   5.928   1.621  15.563 -1.2184 -3.0581 -1.0123
12066TIP3   OH257688   1.963   2.932  11.224 -0.0435  0.7341 -0.0067
12066TIP3    H157689   1.984   2.852  11.176  2.8876  1.0932  0.6035
12066TIP3    H257690   1.943   2.996  11.155 -3.2817 -0.6833 -0.4812
12067TIP3   OH257691   6.474   3.494  15.166 -0.3617 -0.1158  0.4942
12067TIP3    H157692   6.523   3.414  15.186  0.5532  0.8233  2.1600
12067TIP3    H257693   6.529   3.565  15.201 -0.2136  1.4094 -2.6682
12068TIP3   OH257694   6.396   2.325  16.634 -0.5554 -0.6732  0.7415
12068TIP3    H157695   6.364   2.410  16.663  1.0622 -0.1600  1.0947
12068TIP3    H257696   6.375   2.322  16.540 -1.8227 -0.4682  1.0143
12069TIP3   OH257697   6.151   5.900   3.472  0.5232 -0.0914  0.1253
12069TIP3    H157698   6.171   5.988   3.438 -0.7126  0.1534 -0.0114
12069TIP3    H257699   6.078   5.870   3.418 -0.3946 -0.3742  1.5018
12070TIP3   OH257700   3.840   5.426   1.650  0.1726  0.2039  0.0512
12070TIP3    H157701   3.909   5.441   1.584  1.2772 -0.8128  0.9627
12070TIP3    H257702   3.884   5.380   1.721 -0.9489  1.4954  1.6336
12071TIP3   OH257703   4.008   0.092   3.722  0.2218  0.2323 -0.0833
12071TIP3    H157704   4.017   0.151   3.797 -0.2887 -2.3349  2.0719
12071TIP3    H257705   4.090   0.103   3.674  0.4269  2.1608  0.6491
12072TIP3   OH257706   6.530   4.233   1.249  0.1733 -0.0933 -0.1722
12072TIP3    H157707   6.587   4.277   1.186  0.5467  1.4654  1.2280
12072TIP3    H257708   6.567   4.255   1.334 -0.9607 -1.2942  0.6458
12073TIP3   OH257709   0.605   0.214   1.738  0.1398 -0.0139 -0.6612
12073TIP3    H157710   0.533   0.273   1.715 -0.5829 -0.6058  0.0544
12073TIP3    H257711   0.566   0.150   1.797  1.0961 -0.7595 -0.8197
12074TIP3   OH257712   2.419   5.166   2.717 -0.1238 -0.4069 -0.8403
12074TIP3    H157713   2.407   5.187   2.624 -1.0961  0.1211 -0.5963
12074TIP3    H257714   2.508   5.196   2.736 -0.9036  2.1252 -0.9046
12075TIP3   OH257715   6.652   1.605   4.710  0.9242  0.6463  0.7789
12075TIP3    H157716   6.603   1.668   4.658 -0.4390 -1.2429 -0.2823
12075TIP3    H257717   6.707   1.659   4.768 -1.0954  2.7990  0.7617
12076TIP3   OH257718   5.920   3.018  11.256 -0.1051  0.0938 -0.4909
12076TIP3    H157719   5.880   3.105  11.253  0.8951  0.6308  1.1986
12076TIP3    H257720   6.014   3.034  11.243  0.1492 -0.6845  0.3367
12077TIP3   OH257721   2.927   2.788   3.556 -0.0558  0.7404 -0.1618
12077TIP3    H157722   2.908   2.842   3.480 -0.8743 -1.1640 -1.3500
12077TIP3    H257723   3.005   2.738   3.532  0.1364  0.6863  0.5454
12078TIP3   OH257724   5.449   6.173   5.720  0.2684 -0.6007 -0.1390
12078TIP3    H157725   5.445   6.121   5.800  0.9370  1.8989  1.5536
12078TIP3    H257726   5.362   6.213   5.713  0.3734 -0.4182 -0.4148
12079TIP3   OH257727   4.388   2.277   4.068  0.1156 -0.3300  0.3075
12079TIP3    H157728   4.330   2.205   4.045  0.4266 -0.9743  1.4749
12079TIP3    H257729   4.401   2.269   4.163  0.9330  0.6761  0.3018
12080TIP3   OH257730   3.504   2.191  16.676 -0.3644  0.0147 -0.3013
12080TIP3    H157731   3.570   2.260  16.682  0.2701 -0.7268  2.0817
12080TIP3    H257732   3.424   2.231  16.708  0.0639 -0.3759  1.3309
12081TIP3   OH257733   4.709   0.252  10.554 -0.3461 -0.3222 -0.4360
12081TIP3    H157734   4.683   0.326  10.499 -1.2430 -1.0928 -1.0564
12081TIP3    H257735   4.628   0.205  10.572  0.3606 -1.7575 -0.9260
12082TIP3   OH257736   2.541   3.866  11.975 -0.5387 -0.2528 -0.3039
12082TIP3    H157737   2.549   3.775  12.002 -0.4632  0.3288  1.7493
12082TIP3    H257738   2.569   3.916  12.052 -3.1448  1.5371 -0.4457
12083TIP3   OH257739   3.563   2.060   5.630 -0.4116  0.0729  0.2487
12083TIP3    H157740   3.486   2.007   5.615 -0.3911 -1.0631  3.6597
12083TIP3    H257741   3.637   2.005   5.603 -0.5423 -0.6611  1.3699
12084TIP3   OH257742   5.997   0.638   1.645 -0.2336  0.1111 -0.0599
12084TIP3    H157743   5.991   0.692   1.724 -0.0096 -0.2447  0.1970
12084TIP3    H257744   5.995   0.548   1.676 -0.9556 -0.0360 -0.5177
12085TIP3   OH257745   3.983   1.729   4.585  0.3661  0.6057  0.0941
12085TIP3    H157746   3.919   1.704   4.652 -0.7815  1.4770 -0.6568
12085TIP3    H257747   3.939   1.708   4.502  1.7029 -0.2930 -0.4018
12086TIP3   OH257748   2.301   5.241   5.356 -0.3549  0.3254 -0.7227
12086TIP3    H157749   2.387   5.215   5.389 -0.2743  0.4706 -0.8175
12086TIP3    H257750   2.247   5.249   5.435 -1.1116 -2.7445 -0.8698
12087TIP3   OH257751   5.091   0.194   5.458 -0.5941 -0.0537 -0.1362
12087TIP3    H157752   5.183   0.222   5.455 -1.1845  2.1069  0.6140
12087TIP3    H257753   5.055   0.221   5.374 -0.3475 -1.6104 -0.7392
12088TIP3   OH257754   2.937   3.978   1.001 -0.6872  0.0737  0.0320
12088TIP3    H157755   3.004   3.939   1.057  0.6430  1.9331 -0.2032
12088TIP3    H257756   2.888   4.036   1.058 -1.6758 -0.7633  0.0484
12089TIP3   OH257757   2.741   4.320  17.276 -0.3483 -0.5432  0.2383
12089TIP3    H157758   2.836   4.312  17.286 -0.1601  0.9130 -0.2995
12089TIP3    H257759   2.706   4.293  17.360  0.6341  0.5884  1.0320
12090TIP3   OH257760   3.120   1.678  11.499 -0.5014 -0.8271  0.3327
12090TIP3    H157761   3.190   1.739  11.477  0.5744 -2.9074 -2.2661
12090TIP3    H257762   3.121   1.674  11.595  0.2174  2.2091  0.5014
12091TIP3   OH257763   3.694   4.229  16.937 -0.1425  0.3660  0.1202
12091TIP3    H157764   3.715   4.135  16.929  2.6557  0.9814 -0.2783
12091TIP3    H257765   3.660   4.238  17.025 -1.1631 -1.1400 -0.0831
12092TIP3   OH257766   3.543   4.910  13.756 -0.0180 -0.4825 -0.3279
12092TIP3    H157767   3.451   4.934  13.745 -0.2777 -1.1916  0.2754
12092TIP3    H257768   3.589   4.993  13.762 -0.8404 -0.1284  1.1582
12093TIP3   OH257769   6.666   1.997   3.311 -0.4633 -0.1462 -0.2509
12093TIP3    H157770   6.698   2.037   3.392  1.3884  0.8922 -1.4349
12093TIP3    H257771   6.589   2.048   3.287 -1.6093 -1.0980  1.3629
12094TIP3   OH257772   2.114   6.504  15.061 -0.3946 -0.0278  0.0730
12094TIP3    H157773   2.195   6.488  15.109 -1.4080 -0.2454  1.7424
12094TIP3    H257774   2.051   6.441  15.097 -1.8180  1.3579  0.0941
12095TIP3   OH257775   2.192   0.559   3.529 -0.1068  1.0581  0.5484
12095TIP3    H157776   2.224   0.475   3.498 -2.1332  1.2103 -2.1336
12095TIP3    H257777   2.221   0.564   3.620  2.7016 -1.1345 -0.1818
12096TIP3   OH257778   3.859   3.662   3.248  0.0847  0.6174  0.0019
12096TIP3    H157779   3.782   3.709   3.217  0.2416 -0.0361 -1.4326
12096TIP3    H257780   3.927   3.683   3.184  0.5553 -0.3809  0.1708
12097TIP3   OH257781   2.428   1.855   6.661 -0.3180  0.3259  0.3893
12097TIP3    H157782   2.375   1.896   6.592  0.4625  0.6507 -0.0226
12097TIP3    H257783   2.452   1.769   6.624 -0.7723  0.0774  0.6768
12098TIP3   OH257784   4.492   0.540  17.223  0.4917  0.1069 -0.1604
12098TIP3    H157785   4.534   0.477  17.164  0.4350  0.6065 -0.7422
12098TIP3    H257786   4.546   0.619  17.217 -0.0346  0.4673 -0.2526
12099TIP3   OH257787   5.204   6.811  15.350 -0.1483  0.0594 -0.1676
12099TIP3    H157788   5.268   6.740  15.341  0.6503  0.6253  0.8867
12099TIP3    H257789   5.158   6.791  15.432  1.6480  1.9592  1.3550
12100TIP3   OH257790   1.334   1.448   3.667 -0.0788 -0.0855  0.3338
12100TIP3    H157791   1.270   1.402   3.612  0.8284 -0.6734 -0.2562
12100TIP3    H257792   1.308   1.540   3.662  0.9302  0.1158 -2.4177
12101TIP3   OH257793   1.129   0.956  16.965 -0.5736 -0.3333  0.4080
12101TIP3    H157794   1.120   0.866  16.933 -0.3502 -0.7340  1.4501
12101TIP3    H257795   1.052   0.970  17.020 -0.2061 -0.1613  0.8812
12102TIP3   OH257796   5.787   0.421  15.899 -0.2324  0.1815 -0.0816
12102TIP3    H157797   5.736   0.373  15.964 -1.2876  1.2348 -0.1149
12102TIP3    H257798   5.828   0.491  15.948  1.3697 -0.7811 -0.0199
12103TIP3   OH257799   4.411   2.570   1.690  0.2682 -0.2220  0.3017
12103TIP3    H157800   4.489   2.549   1.740 -0.4252  1.1715  2.0488
12103TIP3    H257801   4.340   2.523   1.734 -0.1592  0.0036 -0.1262
12104TIP3   OH257802   6.667   2.950   2.809  0.2446  0.1613 -0.0670
12104TIP3    H157803   6.683   3.036   2.769 -1.5052  0.3196 -0.4842
12104TIP3    H257804   6.606   2.968   2.881  1.4606 -0.4638  1.1375
12105TIP3   OH257805   5.845   2.965   1.027  0.0027  0.2361  0.1278
12105TIP3    H157806   5.771   2.992   1.082 -0.4086  0.3316 -0.4680
12105TIP3    H257807   5.805   2.922   0.952  0.5507  0.3465 -0.2349
12106TIP3   OH257808   2.268   2.693   4.372  0.2474  0.0029  0.0145
12106TIP3    H157809   2.263   2.703   4.277  3.2670  1.0187 -0.0708
12106TIP3    H257810   2.221   2.769   4.407 -0.7799 -0.3219 -0.6465
12107TIP3   OH257811   1.503   2.489  14.397 -0.0202 -0.3614  0.1208
12107TIP3    H157812   1.493   2.411  14.451  0.9185 -2.2219 -2.3088
12107TIP3    H257813   1.586   2.475  14.351  0.9078  2.7670  0.7403
12108TIP3   OH257814   0.797   6.574  17.021 -0.2743  0.1395 -0.1437
12108TIP3    H157815   0.720   6.520  17.037  0.9661 -1.6795 -0.0547
12108TIP3    H257816   0.774   6.627  16.944 -2.4399  1.3547  1.3206
12109TIP3   OH257817   1.073   2.658  15.337  0.0557  0.0528  0.4003
12109TIP3    H157818   1.107   2.746  15.317  1.0277 -0.5070 -0.4087
12109TIP3    H257819   1.066   2.615  15.253  0.4307 -0.9610  0.8853
12110TIP3   OH257820   4.603   4.768  13.084  0.3420 -0.0701 -0.3496
12110TIP3    H157821   4.515   4.757  13.119  1.6006  0.2463  3.2069
12110TIP3    H257822   4.643   4.834  13.141  2.9609 -0.4005 -1.7252
12111TIP3   OH257823   3.606   2.935  16.251 -0.1680  0.3421 -0.3969
12111TIP3    H157824   3.657   2.996  16.305  0.3510  1.2374 -1.8582
12111TIP3    H257825   3.525   2.922  16.300 -1.3015  4.0841 -1.1059
12112TIP3   OH257826   1.220   4.246  16.598  0.3650 -0.0974 -0.1426
12112TIP3    H157827   1.246   4.224  16.509 -1.2885 -1.7843 -0.2389
12112TIP3    H257828   1.127   4.222  16.602  0.5355 -0.4436  2.1616
12113TIP3   OH257829   0.584   3.377  16.459 -0.2177  0.0220  0.7464
12113TIP3    H157830   0.666   3.379  16.410 -0.7131 -0.4417 -0.1222
12113TIP3    H257831   0.563   3.284  16.467 -0.7423  0.1450  0.8091
12114TIP3   OH257832   2.043   4.761  17.156  0.0545  0.2243  0.3944
12114TIP3    H157833   2.048   4.666  17.143  1.1397  0.2825  0.3978
12114TIP3    H257834   2.076   4.775  17.244  1.3257  0.7553 -0.1605
12115TIP3   OH257835   5.881   2.406  14.500 -0.0017 -0.0804  0.6345
12115TIP3    H157836   5.952   2.462  14.533 -0.1398  1.7461 -2.0191
12115TIP3    H257837   5.926   2.327  14.469  0.8499  0.8578 -0.5662
12116TIP3   OH257838   6.454   3.389  13.670 -0.4659  0.2367  0.1598
12116TIP3    H157839   6.491   3.307  13.636  0.5267  0.5871  0.3900
12116TIP3    H257840   6.523   3.454  13.657 -1.3927  1.1355 -0.3895
12117TIP3   OH257841   3.500   3.019  10.765 -0.4189  0.0456  0.0151
12117TIP3    H157842   3.520   2.935  10.726 -1.8090 -0.3619  0.1589
12117TIP3    H257843   3.405   3.027  10.758 -0.2846  1.6697 -0.1435
12118TIP3   OH257844   2.418   5.564  15.744 -0.0338 -0.1727 -0.0282
12118TIP3    H157845   2.427   5.659  15.755  0.6351 -0.2171 -0.1290
12118TIP3    H257846   2.327   5.546  15.764 -0.9639  0.9149 -2.9272
12119TIP3   OH257847   3.900   6.533   2.345 -0.3674  0.2250 -0.4740
12119TIP3    H157848   3.973   6.553   2.286  0.1940  0.7778  0.3949
12119TIP3    H257849   3.874   6.444   2.321  1.0491 -0.2363 -0.3192
12120TIP3   OH257850   4.546   2.182   0.931  0.2606  0.5403  0.5594
12120TIP3    H157851   4.591   2.261   0.961 -0.0993  0.9954 -0.0921
12120TIP3    H257852   4.525   2.199   0.839  1.9006 -1.0850 -0.1450
12121TIP3   OH257853   5.225   4.780   1.660  0.2436 -0.0433  0.1724
12121TIP3    H157854   5.264   4.740   1.738  0.1056 -1.0089 -0.2552
12121TIP3    H257855   5.278   4.859   1.645 -0.6114  0.9578  2.0906
12122TIP3   OH257856   4.699   4.831   4.697 -0.4456  1.0510  0.1406
12122TIP3    H157857   4.617   4.867   4.733 -0.1832  1.9661 -0.1654
12122TIP3    H257858   4.750   4.908   4.672  0.6616  0.4887  0.6397
12123TIP3   OH257859   5.636   2.524  11.810 -0.1570 -0.3132 -0.0728
12123TIP3    H157860   5.570   2.512  11.741 -0.4873  0.5407  0.0893
12123TIP3    H257861   5.709   2.568  11.766  0.4617 -1.5399 -0.3286
12124TIP3   OH257862   2.844   4.063   0.755 -0.0236  0.5719  0.1603
12124TIP3    H157863   2.891   4.146   0.756  0.3317  0.3882 -0.6539
12124TIP3    H257864   2.873   4.018   0.835  0.3278  0.9305  0.2363
12125TIP3   OH257865   1.850   1.505  13.469  0.2221 -0.2247  0.3161
12125TIP3    H157866   1.945   1.516  13.455 -0.2546  0.0860 -3.0652
12125TIP3    H257867   1.842   1.420  13.511  1.9959 -0.3296  0.5142
12126TIP3   OH257868   4.876   5.729  16.570 -0.0347  0.4682 -0.0519
12126TIP3    H157869   4.838   5.813  16.543  1.0101  1.1143  0.4678
12126TIP3    H257870   4.911   5.691  16.489 -2.4281 -0.4902 -0.6806
12127TIP3   OH257871   2.302   3.673  14.365  0.1850 -1.0647 -0.2273
12127TIP3    H157872   2.301   3.764  14.396 -1.3900 -0.7601 -1.1207
12127TIP3    H257873   2.386   3.664  14.320  0.3888 -0.0803 -0.0546
12128TIP3   OH257874   0.069   3.241  11.423  0.0882 -0.2341  0.3512
12128TIP3    H157875   0.114   3.239  11.507 -0.3546  1.6086  0.6561
12128TIP3    H257876   0.140   3.237  11.358  0.5560  0.2868  0.8206
12129TIP3   OH257877   4.128   3.583  15.776  0.7285 -0.1349  0.3010
12129TIP3    H157878   4.054   3.641  15.795  1.2273  0.7317 -0.3333
12129TIP3    H257879   4.191   3.640  15.731  0.4444 -1.6090 -2.0411
12130TIP3   OH257880   2.529   3.372  12.752 -0.4294 -0.8261  0.2387
12130TIP3    H157881   2.464   3.305  12.774  0.1336 -1.8072 -1.0645
12130TIP3    H257882   2.485   3.429  12.689  0.6163 -2.6767 -2.2327
12131TIP3   OH257883   3.192   0.023  14.174  0.2240  0.3804 -0.4993
12131TIP3    H157884   3.162   0.042  14.263 -2.4218 -0.9755 -1.0209
12131TIP3    H257885   3.205   0.109  14.134 -1.8904  1.0602  0.1782
12132TIP3   OH257886   4.213   3.875   0.148  0.0443 -0.6548  0.0973
12132TIP3    H157887   4.151   3.930   0.100 -0.3188  0.6989  2.0816
12132TIP3    H257888   4.253   3.820   0.080 -0.8251  0.8492 -1.6794
12133TIP3   OH257889   1.103   3.130  12.488  0.2365  0.2651 -0.1819
12133TIP3    H157890   1.061   3.143  12.403  0.5711  0.4851 -0.3161
12133TIP3    H257891   1.165   3.059  12.474 -1.4223 -1.3315  0.4942
12134TIP3   OH257892   6.344   2.096   0.825  0.1960  0.0394  0.6921
12134TIP3    H157893   6.273   2.133   0.878  0.6221  1.9686 -0.0525
12134TIP3    H257894   6.422   2.146   0.850  1.1817 -1.5813  0.9799
12135TIP3   OH257895   4.282   3.618   2.406  0.0875  1.0306 -0.6338
12135TIP3    H157896   4.367   3.581   2.383 -0.5778 -1.8196  1.2623
12135TIP3    H257897   4.297   3.664   2.488 -0.4890 -0.8921  0.5910
12136TIP3   OH257898   6.813   3.233   5.352  0.2871 -0.5658  0.0924
12136TIP3    H157899   6.851   3.146   5.360  0.2918 -0.4305  1.7277
12136TIP3    H257900   6.719   3.218   5.341  0.3833 -0.8067 -0.3698
12137TIP3   OH257901   4.842   6.198   2.689  0.4446 -0.1626  0.3780
12137TIP3    H157902   4.893   6.257   2.744 -0.2426 -0.2183  1.0868
12137TIP3    H257903   4.832   6.119   2.741 -0.9688  0.1089  0.5609
12138TIP3   OH257904   1.083   2.148   2.182 -0.1433  0.4986  0.0419
12138TIP3    H157905   1.023   2.205   2.134  1.1679  1.4761 -0.4871
12138TIP3    H257906   1.140   2.207   2.230  1.4774 -0.3152 -0.7992
12139TIP3   OH257907   3.082   1.592   1.428  0.2456  0.2992  0.4934
12139TIP3    H157908   3.151   1.605   1.493  1.6596 -1.3053 -0.6260
12139TIP3    H257909   3.091   1.667   1.368  1.0167  0.1000  0.3573
12140TIP3   OH257910   5.559   6.456  15.183  0.9341 -0.4484  0.7408
12140TIP3    H157911   5.535   6.364  15.185 -1.7644  0.2411  2.2284
12140TIP3    H257912   5.550   6.482  15.091 -1.9978 -0.7851  0.8858
12141TIP3   OH257913   5.310   6.183   1.135 -0.9989  0.2506 -0.0663
12141TIP3    H157914   5.349   6.112   1.188  1.6932  0.5706 -1.5268
12141TIP3    H257915   5.339   6.263   1.179 -0.6665  0.4820 -0.7048
12142TIP3   OH257916   5.873   6.068  14.464 -0.7780 -0.1635  0.3383
12142TIP3    H157917   5.867   6.003  14.535  1.7045  1.3498  2.0058
12142TIP3    H257918   5.940   6.033  14.406 -0.6517  0.0777  0.3403
12143TIP3   OH257919   1.396   0.730   0.367 -0.2386  0.0894  0.1476
12143TIP3    H157920   1.425   0.640   0.383  0.9697  0.4808  0.1756
12143TIP3    H257921   1.421   0.748   0.277 -2.2966 -0.2840 -0.5236
12144TIP3   OH257922   2.596   3.183   0.074 -0.0972  0.2712 -1.1134
12144TIP3    H157923   2.679   3.137   0.063 -2.2128 -3.3903 -2.6946
12144TIP3    H257924   2.575   3.172   0.167 -1.3299 -3.5449 -1.7429
12145TIP3   OH257925   5.063   3.928  11.290 -0.3366  0.4429 -0.1622
12145TIP3    H157926   5.068   4.009  11.341  0.8950 -0.4351  1.1719
12145TIP3    H257927   5.155   3.904  11.275 -0.6924 -0.3981 -1.0520
12146TIP3   OH257928   6.166   5.621   3.347  0.3285 -0.5097  0.2804
12146TIP3    H157929   6.217   5.700   3.334  0.8425 -0.5524  1.9233
12146TIP3    H257930   6.189   5.565   3.273  1.1365  0.2565 -0.0515
12147TIP3   OH257931   3.819   5.201   4.938 -0.2192 -0.1139 -0.1044
12147TIP3    H157932   3.730   5.168   4.927  0.6577 -2.7322  0.2535
12147TIP3    H257933   3.820   5.239   5.026 -0.8422 -0.5754  0.1042
12148TIP3   OH257934   5.712   1.537  13.077 -0.6069  0.4291  0.4373
12148TIP3    H157935   5.775   1.561  13.009  0.6136 -0.7940  1.0851
12148TIP3    H257936   5.630   1.520  13.030  0.1827 -0.2724 -0.7285
12149TIP3   OH257937   2.789   4.508   6.031  0.5847 -0.0372  0.7038
12149TIP3    H157938   2.872   4.516   6.077  0.6074  2.3874  0.3195
12149TIP3    H257939   2.723   4.538   6.094  0.2539  0.1355  0.2828
12150TIP3   OH257940   1.025   2.347  15.125  0.0634  0.3612  0.4133
12150TIP3    H157941   1.034   2.332  15.030 -0.5607  3.0463 -0.0976
12150TIP3    H257942   1.114   2.361  15.156  0.0264  2.0719 -0.2401
12151TIP3   OH257943   2.190   6.543   4.702  0.5066  0.6675  0.6496
12151TIP3    H157944   2.267   6.600   4.697  0.7509  0.2699 -0.2566
12151TIP3    H257945   2.125   6.586   4.646 -0.3839  1.6539  2.3742
12152TIP3   OH257946   1.787   0.110   1.752  0.0052  0.0317 -0.0512
12152TIP3    H157947   1.720   0.159   1.801 -0.7551 -2.1333  1.1372
12152TIP3    H257948   1.870   0.146   1.783 -0.5461  0.8093  0.5624
12153TIP3   OH257949   4.909   0.554   4.337 -0.1821 -0.5605  0.5108
12153TIP3    H157950   4.982   0.595   4.382 -1.2890  0.7901  1.1103
12153TIP3    H257951   4.831   0.583   4.385 -1.2815 -0.2337 -1.4146
12154TIP3   OH257952   6.207   2.836   5.429  0.5146 -0.3955 -0.0433
12154TIP3    H157953   6.189   2.758   5.480 -0.5731 -0.1930 -0.0928
12154TIP3    H257954   6.126   2.887   5.435  1.2358  0.7568  0.0521
12155TIP3   OH257955   5.121   6.232   1.775 -0.2662  0.1484  0.3457
12155TIP3    H157956   5.051   6.189   1.825 -1.1427  3.1983  1.8746
12155TIP3    H257957   5.076   6.297   1.721  1.2264  0.9994  0.0800
12156TIP3   OH257958   2.512   1.478  15.306 -0.4747 -0.2323 -0.1965
12156TIP3    H157959   2.505   1.474  15.402 -0.8337 -0.2718 -0.2233
12156TIP3    H257960   2.501   1.387  15.277  0.6439 -0.3777 -0.2130
12157TIP3   OH257961   3.429   6.643   4.583  0.5084 -0.2920 -0.3152
12157TIP3    H157962   3.407   6.729   4.547  0.4810  0.4638  1.4125
12157TIP3    H257963   3.350   6.617   4.632  0.9429 -0.7444  0.1476
12158TIP3   OH257964   2.269   1.274  14.864  0.0800 -0.2076 -0.4218
12158TIP3    H157965   2.328   1.198  14.862  0.2575 -0.0623 -0.8453
12158TIP3    H257966   2.315   1.341  14.814 -1.4206 -0.8148 -2.7156
12159TIP3   OH257967   3.675   4.634   3.007 -0.0805 -0.8123 -0.4139
12159TIP3    H157968   3.731   4.643   3.084  0.3332 -1.4867 -0.6320
12159TIP3    H257969   3.728   4.584   2.944 -0.2630  0.0659 -1.2839
12160TIP3   OH257970   5.235   3.195   1.087  0.4218  0.1154  0.0628
12160TIP3    H157971   5.309   3.254   1.101  0.8358 -0.0062 -1.5365
12160TIP3    H257972   5.175   3.245   1.033 -0.2240 -0.1540  0.5293
12161TIP3   OH257973   4.400   0.273  14.552 -0.0299  0.3758 -0.0029
12161TIP3    H157974   4.367   0.362  14.546  1.8960  1.0157 -1.3212
12161TIP3    H257975   4.326   0.218  14.523 -1.2583  1.4937  0.9415
12162TIP3   OH257976   2.663   5.495   1.467 -0.0532 -0.3968  0.1801
12162TIP3    H157977   2.584   5.465   1.423 -0.9678  1.9166  0.1942
12162TIP3    H257978   2.712   5.542   1.400  0.8957 -1.0399  0.4057
12163TIP3   OH257979   6.471   1.004   3.007 -0.0122  0.5582 -0.0290
12163TIP3    H157980   6.407   0.965   3.066  0.5154  0.8897  0.7702
12163TIP3    H257981   6.513   1.072   3.059  1.0938  0.2439 -0.5025
12164TIP3   OH257982   0.816   4.286   3.203  0.3517 -0.2948  0.4061
12164TIP3    H157983   0.823   4.381   3.196 -0.7156 -0.1770  0.8265
12164TIP3    H257984   0.904   4.254   3.185  1.3721  0.9190  2.8922
12165TIP3   OH257985   5.954   3.961   4.610 -0.1616 -0.3631 -0.0133
12165TIP3    H157986   5.921   3.879   4.575  2.0928 -0.4955 -2.0015
12165TIP3    H257987   6.005   3.936   4.687  0.3464 -0.8241 -0.4951
12166TIP3   OH257988   3.389   1.143  12.995  0.2879  0.6414  1.1375
12166TIP3    H157989   3.356   1.233  12.992 -0.2940  0.4123  0.5718
12166TIP3    H257990   3.482   1.151  12.974  0.2994  1.1459  1.3896
12167TIP3   OH257991   2.321   6.429   1.810 -0.5535 -0.1701 -0.2260
12167TIP3    H157992   2.251   6.487   1.781  0.0453  0.8927  0.4153
12167TIP3    H257993   2.283   6.341   1.806 -1.4987  0.2713 -1.1120
12168TIP3   OH257994   5.541   6.400  11.185  0.0543  0.2300  0.8288
12168TIP3    H157995   5.446   6.404  11.196  0.0361 -1.0540  1.2755
12168TIP3    H257996   5.575   6.375  11.270  0.9020  1.7136  0.9455
12169TIP3   OH257997   4.532   2.255  14.657 -0.5804  0.0552 -0.2405
12169TIP3    H157998   4.464   2.263  14.590 -0.7852 -0.0989 -0.0513
12169TIP3    H257999   4.534   2.161  14.676 -1.7296  0.3136  1.2316
12170TIP3   OH258000   6.218   2.536  16.796 -0.0627  0.4142  0.9241
12170TIP3    H158001   6.208   2.588  16.716  0.6300 -1.2743 -0.2656
12170TIP3    H258002   6.141   2.480  16.798  0.5361 -0.4213  0.7826
12171TIP3   OH258003   0.385   6.078  13.852  0.2065 -0.1985 -0.2009
12171TIP3    H158004   0.386   6.051  13.761  2.0662  0.6506 -0.4552
12171TIP3    H258005   0.424   6.005  13.900 -0.9840 -0.7418 -0.0409
12172TIP3   OH258006   1.696   2.054  14.371 -0.5464  0.2560 -0.0519
12172TIP3    H158007   1.634   2.028  14.439  0.0722 -1.4001 -0.1085
12172TIP3    H258008   1.781   2.054  14.416 -0.0333 -1.5838 -0.9993
12173TIP3   OH258009   1.532   2.000  14.138 -0.2838 -0.4403  0.1738
12173TIP3    H158010   1.518   1.906  14.142 -1.6477 -0.2415  0.3407
12173TIP3    H258011   1.557   2.024  14.227 -1.8495 -0.3721  0.6136
12174TIP3   OH258012   5.392   3.513   0.414 -0.6241  0.0351 -0.0489
12174TIP3    H158013   5.348   3.584   0.367 -0.5560  0.2490  0.2121
12174TIP3    H258014   5.386   3.438   0.355 -0.4753  0.3251 -0.4340
12175TIP3   OH258015   4.340   5.356   4.079 -0.9273 -0.5773  0.3620
12175TIP3    H158016   4.252   5.382   4.052 -0.6863  1.7593  1.7117
12175TIP3    H258017   4.329   5.317   4.165 -0.7239 -0.9177  0.2349
12176TIP3   OH258018   6.624   5.698  15.721  0.3931 -0.3489 -0.6673
12176TIP3    H158019   6.687   5.667  15.656 -0.2546 -0.8139 -1.0837
12176TIP3    H258020   6.669   5.688  15.805  0.6070 -1.3719 -0.8979
12177TIP3   OH258021   0.741   2.432   4.976 -0.0811  0.4262  0.4012
12177TIP3    H158022   0.764   2.455   4.886 -1.1399  0.8453  0.2352
12177TIP3    H258023   0.809   2.370   5.003 -0.5062 -0.7328 -1.1522
12178TIP3   OH258024   0.475   0.538  16.844  0.0926 -0.0431 -0.0165
12178TIP3    H158025   0.537   0.497  16.783 -0.5860 -1.1327  0.0185
12178TIP3    H258026   0.486   0.489  16.926  1.1175  1.5135  0.8075
12179TIP3   OH258027   0.129   5.908   0.104 -0.3357  0.3247 -0.2208
12179TIP3    H158028   0.100   5.964   0.032 -2.3655  0.3492  0.5820
12179TIP3    H258029   0.049   5.886   0.150  1.0379  1.1229  2.6352
12180TIP3   OH258030   1.952   3.250   3.206  0.4864 -0.0247  0.1759
12180TIP3    H158031   1.974   3.206   3.124  3.9314  0.4991  0.7730
12180TIP3    H258032   1.956   3.182   3.272  0.7331  0.1726  0.3634
12181TIP3   OH258033   1.681   4.888   1.233 -0.3926 -0.3457  0.0716
12181TIP3    H158034   1.696   4.977   1.200 -0.2487 -0.2756  0.3297
12181TIP3    H258035   1.646   4.840   1.157  0.5982 -0.3686 -0.3824
12182TIP3   OH258036   5.962   5.979  12.261  0.1101  0.2811 -0.0835
12182TIP3    H158037   5.960   5.883  12.265 -0.3496  0.3246  0.9506
12182TIP3    H258038   6.001   5.999  12.176 -1.1801 -0.8334 -0.9551
12183TIP3   OH258039   5.254   4.012  15.794  0.2260  0.3429 -0.6063
12183TIP3    H158040   5.193   3.980  15.861 -0.1138  1.3484 -0.4213
12183TIP3    H258041   5.205   4.005  15.712 -0.6680  2.4174 -0.2920
12184TIP3   OH258042   4.787   0.487  12.315 -0.2136  0.0728 -0.4656
12184TIP3    H158043   4.869   0.467  12.359 -0.3672  1.5866  0.5246
12184TIP3    H258044   4.763   0.405  12.271  1.1591 -0.7487  0.2872
12185TIP3   OH258045   1.339   2.042   4.748  0.3759 -0.0195 -0.1758
12185TIP3    H158046   1.397   2.048   4.673  0.9134  0.0635  0.2446
12185TIP3    H258047   1.372   2.108   4.809 -1.2204  1.2478 -0.6551
12186TIP3   OH258048   3.106   5.077  16.807  0.0165  0.7938 -0.4928
12186TIP3    H158049   3.125   4.992  16.768  0.2149  0.6109 -0.0014
12186TIP3    H258050   3.189   5.104  16.847  0.0026  1.2959 -0.8019
12187TIP3   OH258051   4.962   2.005  13.900  0.1950 -0.4018  0.0674
12187TIP3    H158052   5.028   2.015  13.970 -1.7242 -1.4549  2.0903
12187TIP3    H258053   4.928   1.917  13.912 -2.5672  0.6060 -0.0604
12188TIP3   OH258054   4.509   2.844  12.308  0.0394 -0.1376 -0.3261
12188TIP3    H158055   4.428   2.894  12.300  0.2567  0.6828  2.0687
12188TIP3    H258056   4.564   2.897  12.367  1.1164 -2.1465  0.5243
12189TIP3   OH258057   0.567   5.850  13.947 -0.0594  0.2610  0.0651
12189TIP3    H158058   0.626   5.807  14.009  0.4310  1.7730  0.6733
12189TIP3    H258059   0.596   5.818  13.861 -0.3750 -1.4010  0.5636
12190TIP3   OH258060   0.253   3.207  13.721  0.1510  0.2288  0.1305
12190TIP3    H158061   0.170   3.214  13.674  0.7840  2.7656 -0.7003
12190TIP3    H258062   0.228   3.196  13.812 -1.0901 -0.4088 -0.2764
12191TIP3   OH258063   4.039   3.456  17.090 -0.1720  0.2655 -0.3827
12191TIP3    H158064   4.111   3.451  17.028  0.3026  0.2922  0.1678
12191TIP3    H258065   4.045   3.375  17.141 -0.1153  0.5846  0.1196
12192TIP3   OH258066   0.142   3.069   6.334  0.5418  0.0864 -0.3432
12192TIP3    H158067   0.092   3.119   6.399  1.4235 -1.0346  1.2425
12192TIP3    H258068   0.233   3.091   6.351  0.9120 -1.6899  0.0955
12193TIP3   OH258069   0.470   4.731   3.519 -0.1350 -0.0360 -0.0484
12193TIP3    H158070   0.457   4.768   3.607 -0.7889 -0.4464  0.0303
12193TIP3    H258071   0.457   4.637   3.530  0.7422 -0.2044 -0.4045
12194TIP3   OH258072   2.308   0.613  14.664  0.1412 -0.0603 -0.6103
12194TIP3    H158073   2.288   0.682  14.601 -3.0569 -1.3844 -1.0867
12194TIP3    H258074   2.357   0.548  14.614  0.5171  0.4153 -0.8772
12195TIP3   OH258075   5.703   4.668   6.011  0.0009  0.0843 -0.2517
12195TIP3    H158076   5.612   4.680   6.038  0.1814 -1.9743  1.3410
12195TIP3    H258077   5.710   4.718   5.929 -2.5616  0.2567 -0.4075
12196TIP3   OH258078   3.891   0.311   5.358 -0.4038 -0.0823  0.1609
12196TIP3    H158079   3.985   0.325   5.358 -0.5124  0.8443 -2.0089
12196TIP3    H258080   3.864   0.325   5.267 -2.4927 -1.3024  0.5457
12197TIP3   OH258081   6.286   5.735   5.195 -0.3375  0.1525 -0.1057
12197TIP3    H158082   6.282   5.641   5.178 -1.7299 -0.0193  1.1597
12197TIP3    H258083   6.325   5.742   5.282 -1.9152  0.6636  0.5734
12198TIP3   OH258084   0.011   4.303  15.671  0.3549 -0.2880  0.8810
12198TIP3    H158085  -0.064   4.243  15.671  0.4530 -0.4220 -0.7162
12198TIP3    H258086   0.007   4.345  15.757 -2.2030  0.5171  0.4138
12199TIP3   OH258087   1.023   1.189   5.285  0.1506 -0.8712  0.9200
12199TIP3    H158088   1.111   1.187   5.321  1.4731 -3.8847 -2.1835
12199TIP3    H258089   1.035   1.216   5.194 -2.4945  1.5921  1.2345
12200TIP3   OH258090   0.627   1.549  14.879 -0.0586  0.5712  0.0631
12200TIP3    H158091   0.561   1.614  14.853 -0.1338 -0.0922 -1.5033
12200TIP3    H258092   0.621   1.481  14.811  2.7825  0.8794 -0.5666
12201TIP3   OH258093   2.145   3.791   4.812 -0.4548 -0.0312 -0.1443
12201TIP3    H158094   2.060   3.813   4.851 -0.7669 -0.4713 -0.5601
12201TIP3    H258095   2.122   3.740   4.734  0.2314 -1.3021  0.4673
12202TIP3   OH258096   1.182   2.763   0.148 -0.1921  0.2996 -0.0910
12202TIP3    H158097   1.147   2.784   0.061  1.7767  0.4907 -0.8538
12202TIP3    H258098   1.226   2.679   0.137 -1.2387 -0.4255  1.1025
12203TIP3   OH258099   1.352   2.913  16.141  0.0773  0.2458  0.1661
12203TIP3    H158100   1.422   2.859  16.178 -0.0082 -0.5253 -0.7810
12203TIP3    H258101   1.349   2.990  16.197  0.6578 -0.4247  1.1298
12204TIP3   OH258102   0.644   5.750  16.779 -0.0829 -0.1536  0.6759
12204TIP3    H158103   0.572   5.702  16.738  0.8020 -0.9998  0.0668
12204TIP3    H258104   0.629   5.841  16.755  1.2749 -0.7843 -2.9748
12205TIP3   OH258105   6.043   3.630  11.172 -0.3969  0.0374 -0.1563
12205TIP3    H158106   5.975   3.657  11.110 -0.6525 -0.4669 -0.0980
12205TIP3    H258107   6.039   3.696  11.242  1.5236  2.0065 -1.8210
12206TIP3   OH258108   3.149   3.033  16.198  0.0407 -0.2017 -0.2220
12206TIP3    H158109   3.185   3.077  16.275  0.0037 -0.5433 -0.0052
12206TIP3    H258110   3.123   3.104  16.139 -1.3926  0.1033  0.7520
12207TIP3   OH258111   3.514   2.567  17.046  0.8071 -0.0795  0.0252
12207TIP3    H158112   3.521   2.513  17.124 -1.9175 -0.1286  0.2747
12207TIP3    H258113   3.559   2.517  16.978 -0.3672 -1.9812  0.6125
12208TIP3   OH258114   0.457   2.562   1.038  0.1992 -0.1258 -0.3050
12208TIP3    H158115   0.440   2.479   1.082  1.2362 -0.2321 -0.0951
12208TIP3    H258116   0.395   2.564   0.965 -0.5824 -0.5737  0.3430
12209TIP3   OH258117   2.940   0.702  16.273  0.0880 -0.0141  0.3210
12209TIP3    H158118   3.026   0.679  16.309 -0.9312 -1.6981  1.7473
12209TIP3    H258119   2.893   0.618  16.267 -1.4183  0.8674 -0.5716
12210TIP3   OH258120   4.325   0.889   1.939  0.4695  0.1362 -0.0714
12210TIP3    H158121   4.258   0.882   2.007  0.1364  1.4441 -0.2522
12210TIP3    H258122   4.331   0.982   1.921  2.1254  0.0074 -0.2862
12211TIP3   OH258123   3.094   2.577   3.472  0.0056  0.0550  0.4887
12211TIP3    H158124   3.047   2.494   3.483 -0.2531  0.1399  0.0574
12211TIP3    H258125   3.130   2.572   3.383  0.4934  0.1530  0.6810
12212TIP3   OH258126   6.043   1.716  14.456 -0.1877 -0.3990  0.0960
12212TIP3    H158127   6.017   1.732  14.547  0.2481 -1.3713  0.4008
12212TIP3    H258128   6.136   1.692  14.462  0.1730  0.7471 -0.7365
12213TIP3   OH258129   1.310   4.394   4.511 -0.5355  0.1028  0.2968
12213TIP3    H158130   1.281   4.475   4.469 -1.0198 -0.1090  0.2253
12213TIP3    H258131   1.257   4.325   4.471 -1.0186 -0.1022  1.2612
12214TIP3   OH258132   6.019   6.764   1.839 -0.0895  0.0783 -0.1311
12214TIP3    H158133   5.958   6.716   1.783 -1.1328  2.3059 -0.9350
12214TIP3    H258134   6.070   6.695   1.883 -0.2307 -1.7225 -2.7086
12215TIP3   OH258135   5.244   6.210  11.226  0.4730 -0.1483 -0.2267
12215TIP3    H158136   5.168   6.173  11.181 -0.0877  0.5684  0.1133
12215TIP3    H258137   5.290   6.134  11.262 -1.3007 -0.4685  1.4546
12216TIP3   OH258138   0.040   6.158   2.472  0.4509  0.6050  0.0045
12216TIP3    H158139  -0.035   6.104   2.447 -1.3154  2.4656  1.1438
12216TIP3    H258140   0.116   6.103   2.454 -1.2025 -1.5491 -0.6054
12217TIP3   OH258141   3.890   1.078   5.015 -0.4785 -0.0089  0.3017
12217TIP3    H158142   3.902   1.057   4.922  0.5855 -1.0285  0.6576
12217TIP3    H258143   3.925   1.167   5.023  1.4871 -0.7488  0.1461
12218TIP3   OH258144   4.287   4.825  15.260  0.0065 -0.3898  0.1261
12218TIP3    H158145   4.221   4.892  15.245 -0.3774 -0.7886  0.0374
12218TIP3    H258146   4.369   4.865  15.229 -0.0810  0.3326  0.8145
12219TIP3   OH258147   1.673   3.140  11.790  0.3512 -0.0729  0.2359
12219TIP3    H158148   1.675   3.223  11.838 -0.6305  0.4644 -0.6211
12219TIP3    H258149   1.647   3.075  11.855 -0.9313  0.6391  0.4544
12220TIP3   OH258150   5.669   4.252  12.990 -0.1328 -0.5215  0.0161
12220TIP3    H158151   5.647   4.215  12.904  0.1551 -0.8192  0.0685
12220TIP3    H258152   5.647   4.182  13.051 -0.3500 -0.3030  0.1867
12221TIP3   OH258153   0.884   1.096   6.462  0.3157 -0.7037 -0.4863
12221TIP3    H158154   0.900   1.161   6.530  0.9235 -0.4554 -0.8629
12221TIP3    H258155   0.971   1.061   6.442  0.2014 -0.4194 -1.4850
12222TIP3   OH258156   1.396   3.859   3.719 -0.2014 -0.3814  0.1348
12222TIP3    H158157   1.440   3.818   3.794  0.6802 -0.5661 -0.4716
12222TIP3    H258158   1.444   3.940   3.704 -0.5295 -0.2250 -0.0762
12223TIP3   OH258159   2.730   1.363   3.007 -0.5296 -0.4336 -0.3412
12223TIP3    H158160   2.696   1.295   3.064 -2.6176  0.5112 -0.4175
12223TIP3    H258161   2.712   1.332   2.918 -2.4185  0.6420 -0.3632
12224TIP3   OH258162   3.996   5.369   5.077 -0.1528  0.1877 -0.6374
12224TIP3    H158163   4.090   5.369   5.095  0.2857 -0.3179 -2.7342
12224TIP3    H258164   3.985   5.433   5.007 -1.3030 -0.0985 -0.7388
12225TIP3   OH258165   5.585   1.409   1.147  0.0869  0.0238  0.2579
12225TIP3    H158166   5.535   1.472   1.096 -0.1041  0.3839  0.8826
12225TIP3    H258167   5.574   1.326   1.101  1.6600  0.7482 -1.4710
12226TIP3   OH258168   2.825   0.381   1.753 -0.4769 -0.2582 -0.7258
12226TIP3    H158169   2.873   0.413   1.677 -2.0165  1.2980 -1.0820
12226TIP3    H258170   2.774   0.456   1.782 -1.5734 -1.4601  0.5176
12227TIP3   OH258171   0.509   4.381  12.221 -0.2939 -0.0082 -0.5165
12227TIP3    H158172   0.454   4.426  12.284 -1.9246 -0.0073 -1.9223
12227TIP3    H258173   0.545   4.306  12.270 -0.5612  0.6824  0.7441
12228TIP3   OH258174   1.832   6.586   4.965 -0.5381  0.1486  0.8040
12228TIP3    H158175   1.844   6.677   4.992  1.3243  0.2304 -0.2627
12228TIP3    H258176   1.782   6.592   4.884  2.0905  0.4087 -0.8502
12229TIP3   OH258177   0.104   3.929  13.959 -0.3780  0.0530 -0.0152
12229TIP3    H158178   0.060   3.864  13.904  1.2898 -1.2510  0.1300
12229TIP3    H258179   0.124   4.001  13.899 -0.0031 -0.6661 -0.7812
12230TIP3   OH258180   6.097   3.637   3.414 -0.2828 -0.2508  0.2915
12230TIP3    H158181   6.007   3.671   3.418  0.0727  0.6113  1.0104
12230TIP3    H258182   6.087   3.542   3.422 -1.2714 -0.3303 -1.6096
12231TIP3   OH258183   6.548   1.433   2.201  0.0355  0.2936  0.3744
12231TIP3    H158184   6.553   1.379   2.122  2.1396 -0.1954  0.8286
12231TIP3    H258185   6.507   1.376   2.266 -0.2424  0.1666  0.0888
12232TIP3   OH258186   0.932   1.428   4.433 -0.5539  0.2294 -0.4823
12232TIP3    H158187   0.983   1.352   4.406 -0.2068 -0.4849  2.0211
12232TIP3    H258188   0.841   1.401   4.420 -0.3962  0.0221 -1.1891
12233TIP3   OH258189   3.859   1.328   2.853  0.4157 -0.0129 -0.1605
12233TIP3    H158190   3.783   1.282   2.889  1.0446 -1.2326 -0.3584
12233TIP3    H258191   3.829   1.417   2.839 -0.3674  0.0256  1.7082
12234TIP3   OH258192   1.849   3.960  12.509 -0.0240 -0.2722  0.0452
12234TIP3    H158193   1.850   3.885  12.449  0.5713 -0.5271  0.3661
12234TIP3    H258194   1.938   3.963  12.545  0.0583  0.8146 -0.2381
12235TIP3   OH258195   2.768   5.246   1.477  0.2428 -0.0204 -1.2606
12235TIP3    H158196   2.686   5.198   1.486  0.0565  0.6649  0.9730
12235TIP3    H258197   2.745   5.337   1.495  1.8519 -0.1301  1.6393
12236TIP3   OH258198   3.166   4.935  14.142 -0.0079 -0.5590  0.0960
12236TIP3    H158199   3.075   4.918  14.119 -0.2949  0.6708  0.3081
12236TIP3    H258200   3.206   4.848  14.148 -1.0412 -1.0777 -0.4899
12237TIP3   OH258201   5.762   5.719  14.328 -0.2406  0.1150 -0.5105
12237TIP3    H158202   5.840   5.682  14.370 -0.1763  0.6536 -0.1581
12237TIP3    H258203   5.691   5.702  14.391 -0.1306  0.9905 -0.1445
12238TIP3   OH258204   5.904   0.390   3.824  0.9496 -0.5140  0.0840
12238TIP3    H158205   5.812   0.382   3.798  0.7651 -1.5418  1.0438
12238TIP3    H258206   5.929   0.478   3.796 -0.0151 -0.6166 -1.1605
12239TIP3   OH258207   1.568   0.402   5.075 -0.2008  0.4850 -0.5843
12239TIP3    H158208   1.482   0.400   5.116 -0.3645 -0.8370 -0.9879
12239TIP3    H258209   1.629   0.388   5.148 -0.4472 -0.9836 -0.6536
12240TIP3   OH258210   1.397   5.986  13.643  0.4540 -0.2341 -0.3864
12240TIP3    H158211   1.399   6.030  13.727  0.1454  1.0666 -1.0442
12240TIP3    H258212   1.400   6.057  13.578  0.3577 -1.1917 -1.4683
12241TIP3   OH258213   0.747   2.091   3.817 -0.0866  0.3839  0.1083
12241TIP3    H158214   0.675   2.031   3.837 -1.5070  1.7431 -0.7726
12241TIP3    H258215   0.824   2.035   3.812 -0.8657 -0.9602  2.2071
12242TIP3   OH258216   5.499   1.230  15.822 -0.5491  0.4713 -0.1487
12242TIP3    H158217   5.589   1.207  15.845 -1.3877 -3.3950 -0.4745
12242TIP3    H258218   5.504   1.255  15.729  0.0732 -0.4914 -0.3821
12243TIP3   OH258219   5.714   6.233   3.762  0.1019 -0.2733 -0.4090
12243TIP3    H158220   5.699   6.320   3.800 -0.5110 -0.8731  0.7701
12243TIP3    H258221   5.642   6.221   3.700 -0.5107 -0.4194  0.3181
12244TIP3   OH258222   2.321   6.030  16.418 -0.3066  0.0322  0.1511
12244TIP3    H158223   2.349   6.118  16.442  1.7398 -0.4142 -0.5457
12244TIP3    H258224   2.402   5.982  16.402 -1.4281 -1.1566 -2.3637
12245TIP3   OH258225   3.938   3.014   5.010 -0.5398  0.0432 -0.0168
12245TIP3    H158226   3.867   3.078   5.012  0.0880  0.7045  1.4610
12245TIP3    H258227   3.998   3.041   5.079  0.7040 -1.0405 -0.6373
12246TIP3   OH258228   2.216   0.882  13.765  0.3482 -0.3057  0.0798
12246TIP3    H158229   2.255   0.870  13.851 -0.7542 -0.4940  0.5558
12246TIP3    H258230   2.135   0.931  13.781  0.2223 -0.1848 -0.8608
12247TIP3   OH258231   2.742   3.896  16.451 -0.0918 -0.3965 -0.2126
12247TIP3    H158232   2.789   3.971  16.414 -1.4457  1.1304  1.1129
12247TIP3    H258233   2.730   3.837  16.376  1.1324  0.6159 -1.2362
12248TIP3   OH258234   0.525   2.169   3.476  0.4350 -0.8179  0.4470
12248TIP3    H158235   0.458   2.200   3.537  0.2291  0.9450 -0.6422
12248TIP3    H258236   0.483   2.096   3.430  0.5120 -2.0154  2.2044
12249TIP3   OH258237   3.330   6.703  16.776 -0.2702 -0.6108 -0.1106
12249TIP3    H158238   3.288   6.789  16.775 -1.6861 -1.2746  1.4717
12249TIP3    H258239   3.258   6.640  16.773  0.5547 -1.7542  2.4424
12250TIP3   OH258240   1.510   5.757  14.920  0.0316 -0.3639  0.6340
12250TIP3    H158241   1.455   5.743  14.997  0.5209 -0.0288  1.0481
12250TIP3    H258242   1.504   5.675  14.871 -1.5521 -0.0119  0.2103
12251TIP3   OH258243   3.617   3.058   2.217 -0.2063  0.0027  0.3688
12251TIP3    H158244   3.555   3.102   2.275  1.4496  2.3800  0.3838
12251TIP3    H258245   3.681   3.125   2.195  1.2173 -1.8610 -1.3109
12252TIP3   OH258246   4.749   6.429   0.919  0.1778  0.0254  0.0395
12252TIP3    H158247   4.836   6.405   0.951 -0.5024  2.2276  3.8004
12252TIP3    H258248   4.761   6.514   0.878 -0.1737  0.3362  0.5727
12253TIP3   OH258249   5.224   0.601  12.082  0.0614 -0.0393  0.2370
12253TIP3    H158250   5.286   0.590  12.154 -0.8723  1.1128  1.2184
12253TIP3    H258251   5.145   0.554  12.109  0.0043 -0.3453 -0.4279
12254TIP3   OH258252   4.214   6.424  11.903  0.1261 -0.2749  0.3427
12254TIP3    H158253   4.218   6.360  11.832 -0.4758 -2.2538  2.0214
12254TIP3    H258254   4.298   6.414  11.949  0.4415  0.8593  0.0145
12255TIP3   OH258255   4.687   4.955  15.559 -0.4126 -0.6545  0.0231
12255TIP3    H158256   4.695   4.890  15.489 -0.6478  0.7361 -1.3219
12255TIP3    H258257   4.597   4.944  15.591 -1.3535  0.8517 -2.0657
12256TIP3   OH258258   0.509   2.334   6.057 -0.3222  0.0993 -0.3949
12256TIP3    H158259   0.569   2.394   6.101 -0.2699 -0.1440 -0.1323
12256TIP3    H258260   0.488   2.377   5.974  0.5345 -0.0039 -0.6685
12257TIP3   OH258261   2.674   6.143   0.401  0.4571 -0.0767 -0.1410
12257TIP3    H158262   2.655   6.236   0.410 -1.5635 -0.3391 -1.5284
12257TIP3    H258263   2.713   6.135   0.314 -0.9874 -0.7697 -0.7345
12258TIP3   OH258264   5.732   5.315   0.213  0.7388  0.0251 -0.2783
12258TIP3    H158265   5.719   5.404   0.245  1.2589  0.0246 -0.0552
12258TIP3    H258266   5.699   5.316   0.124  0.1403  0.2705 -0.0551
12259TIP3   OH258267   6.055   1.373   1.700 -0.0761  0.2721  0.1272
12259TIP3    H158268   6.031   1.375   1.607  1.5646  0.3902 -0.3206
12259TIP3    H258269   6.136   1.322   1.702  1.2583  2.3467  1.1442
12260TIP3   OH258270   5.578   2.000  16.577  0.2222  0.5859 -0.0785
12260TIP3    H158271   5.525   1.990  16.498  0.3354  0.7335 -0.1732
12260TIP3    H258272   5.518   2.041  16.640 -0.9591 -2.6872  1.0427
12261TIP3   OH258273   3.528   2.537  11.430  0.4259  0.1414  0.2238
12261TIP3    H158274   3.526   2.447  11.398  0.9188 -0.8233  2.8231
12261TIP3    H258275   3.603   2.540  11.490 -0.9576  1.6339  1.9437
12262TIP3   OH258276   3.416   0.707   5.225  0.2083  0.4014 -0.0480
12262TIP3    H158277   3.488   0.769   5.238 -0.1300  0.6439  0.7426
12262TIP3    H258278   3.458   0.628   5.192  0.8510  0.5322  0.4378
12263TIP3   OH258279   5.990   2.209  14.372 -0.3192  0.8383  0.7062
12263TIP3    H158280   5.944   2.175  14.295 -1.5823 -0.2645  1.9124
12263TIP3    H258281   6.083   2.205  14.348 -0.7624  2.0185 -1.3355
12264TIP3   OH258282   1.221   0.554   5.684 -0.1560 -0.1480  0.2358
12264TIP3    H158283   1.193   0.547   5.775  0.3184 -0.7350  0.3424
12264TIP3    H258284   1.156   0.611   5.642 -0.2044  0.3672  1.0115
12265TIP3   OH258285   0.237   4.453  13.682 -0.1320  0.0111  0.7740
12265TIP3    H158286   0.187   4.391  13.630  0.6601  0.5157 -0.6475
12265TIP3    H258287   0.205   4.442  13.771 -1.6841 -0.7265  0.1452
12266TIP3   OH258288   3.743   0.499  14.093  0.0105 -0.0235  0.7769
12266TIP3    H158289   3.738   0.546  14.176  1.0081 -1.5602  1.7258
12266TIP3    H258290   3.703   0.415  14.111 -1.1450  0.1803 -0.7271
12267TIP3   OH258291   2.786   0.341  15.414 -0.0559  0.4034 -0.3457
12267TIP3    H158292   2.834   0.276  15.363 -2.0340 -0.3853 -1.2135
12267TIP3    H258293   2.750   0.292  15.488 -1.4674  0.5151 -0.9459
12268TIP3   OH258294   0.709   1.257   1.330 -0.3236 -0.0776  0.0405
12268TIP3    H158295   0.682   1.337   1.285  0.2092 -0.6056 -1.2433
12268TIP3    H258296   0.764   1.288   1.403 -2.0936  0.8427  1.0144
12269TIP3   OH258297   4.295   6.044   2.273  0.0381  0.3734  0.1809
12269TIP3    H158298   4.241   6.103   2.326 -0.2605  2.9043 -2.7900
12269TIP3    H258299   4.385   6.063   2.301 -0.2351  0.3563  1.0815
12270TIP3   OH258300   0.130   3.401  14.978 -0.5537  0.7470 -0.0901
12270TIP3    H158301   0.182   3.325  15.002 -0.8943  0.4266 -0.3616
12270TIP3    H258302   0.077   3.420  15.055 -0.9503  0.3023 -0.2516
12271TIP3   OH258303   5.785   5.216  15.401  0.0897 -0.1461 -0.4395
12271TIP3    H158304   5.690   5.228  15.410  0.1713  0.3870 -0.2911
12271TIP3    H258305   5.806   5.146  15.462 -0.0921  0.2438  0.0707
12272TIP3   OH258306   3.158   1.932  15.887  0.2153  0.2803  0.1412
12272TIP3    H158307   3.115   2.011  15.919 -1.4528 -0.4269 -0.3249
12272TIP3    H258308   3.127   1.921  15.797 -0.8636 -1.8057  0.7289
12273TIP3   OH258309   4.681   5.875   2.164  0.4167 -0.2515 -0.0468
12273TIP3    H158310   4.648   5.812   2.228  1.7209  0.0906  0.9774
12273TIP3    H258311   4.746   5.826   2.114 -0.7439 -0.5757 -1.2537
12274TIP3   OH258312   1.015   2.489  11.175  0.1212 -0.0651  0.3872
12274TIP3    H158313   0.974   2.539  11.105 -0.9593  0.6205  1.4825
12274TIP3    H258314   0.971   2.404  11.173  0.8005 -0.4082 -0.4040
12275TIP3   OH258315   3.449   2.333  13.021 -0.4405  0.8368  0.1676
12275TIP3    H158316   3.451   2.298  13.111 -0.5789  1.2351  0.3273
12275TIP3    H258317   3.400   2.267  12.971  0.8120 -0.0527  0.0902
12276TIP3   OH258318   3.305   0.457  12.159  0.4135  0.2746 -0.1425
12276TIP3    H158319   3.269   0.486  12.075  0.0408  1.5529  0.4551
12276TIP3    H258320   3.241   0.485  12.224  1.3769  0.5258  0.7055
12277TIP3   OH258321   1.689   5.293   5.150  0.4450 -0.2426  0.0723
12277TIP3    H158322   1.629   5.302   5.225  1.5026 -1.2237  1.0531
12277TIP3    H258323   1.695   5.199   5.136  1.2090 -0.1092 -0.4890
12278TIP3   OH258324   1.085   5.509   1.973  0.1332  0.5256 -0.0421
12278TIP3    H158325   1.080   5.561   2.053 -1.6391 -0.2516  0.3639
12278TIP3    H258326   1.115   5.570   1.906  1.2144  1.2841  1.1114
12279TIP3   OH258327   1.678   2.649  15.347 -0.0242  0.0200  0.4771
12279TIP3    H158328   1.687   2.694  15.262 -1.5179  0.2878  0.4475
12279TIP3    H258329   1.603   2.591  15.335  0.2614 -0.5398  1.3712
12280TIP3   OH258330   5.463   6.222   3.608 -0.3201  0.2625 -0.2164
12280TIP3    H158331   5.456   6.126   3.610  0.3536  0.2118 -0.2422
12280TIP3    H258332   5.453   6.245   3.516  0.1847  0.1627 -0.2976
12281TIP3   OH258333   0.601   6.492  16.148  0.3904  0.0633 -0.1626
12281TIP3    H158334   0.630   6.406  16.175 -1.3564 -1.0696 -1.7326
12281TIP3    H258335   0.657   6.514  16.073  0.6148  0.1425  0.0311
12282TIP3   OH258336   2.300   5.126  13.507 -0.1745  0.2111  0.8992
12282TIP3    H158337   2.212   5.092  13.518 -0.0363 -0.4208  0.0996
12282TIP3    H258338   2.349   5.090  13.581 -0.3433 -0.2698  0.7770
12283TIP3   OH258339   4.927   3.236   6.063  0.4218  0.0566  0.4127
12283TIP3    H158340   4.957   3.314   6.017  1.1678 -1.5940 -1.9877
12283TIP3    H258341   4.957   3.248   6.153 -0.3737  2.9755  0.3399
12284TIP3   OH258342   5.685   4.080  11.262  0.2865  0.5941  0.5334
12284TIP3    H158343   5.604   4.073  11.211  1.4489 -0.2156 -1.2507
12284TIP3    H258344   5.752   4.042  11.206  2.2248  2.7405  1.3353
12285TIP3   OH258345   5.330   3.958  14.430 -0.2220  0.4042  0.2019
12285TIP3    H158346   5.305   3.870  14.456 -0.3837 -0.3486 -2.3137
12285TIP3    H258347   5.421   3.968  14.458  0.0682 -0.8814 -0.2674
12286TIP3   OH258348   2.552   5.242   2.097  0.3041  0.3851  0.5055
12286TIP3    H158349   2.550   5.146   2.093 -0.5085  0.2523  2.8688
12286TIP3    H258350   2.644   5.265   2.085  0.5063 -0.7013 -0.0669
12287TIP3   OH258351   2.091   2.038   4.428 -0.2905  0.7770  0.5439
12287TIP3    H158352   2.117   1.973   4.493  1.3152  1.2050  0.3538
12287TIP3    H258353   2.146   2.114   4.447 -1.5182  1.7624  0.2022
12288TIP3   OH258354   1.841   3.302   6.105 -0.0598 -0.3371  0.6516
12288TIP3    H158355   1.826   3.207   6.110 -1.1360 -0.1080  2.2705
12288TIP3    H258356   1.936   3.311   6.103  0.0574 -1.4442  0.9293
12289TIP3   OH258357   3.257   4.761  15.930 -0.8810 -0.4201  0.0870
12289TIP3    H158358   3.223   4.705  16.000 -1.0874 -0.1953  0.1664
12289TIP3    H258359   3.290   4.838  15.974 -0.2758 -0.6324  0.0026
12290TIP3   OH258360   4.195   5.969  11.920  0.2325 -0.7842  0.3438
12290TIP3    H158361   4.261   6.009  11.976 -1.3585  1.4396  0.6980
12290TIP3    H258362   4.186   5.880  11.953  1.5263 -0.4393  1.6626
12291TIP3   OH258363   3.695   1.467   5.886  0.2707 -0.8228  0.2663
12291TIP3    H158364   3.766   1.531   5.893 -0.3061 -0.3176  1.8560
12291TIP3    H258365   3.684   1.435   5.976  0.8392 -3.4924 -0.5800
12292TIP3   OH258366   4.162   4.595  11.574  0.0242  0.3433  0.0848
12292TIP3    H158367   4.129   4.632  11.492 -1.4809  2.1137  1.4506
12292TIP3    H258368   4.084   4.572  11.623  0.9216 -0.9442  0.9537
12293TIP3   OH258369   1.301   3.918  11.763 -0.1195 -0.6911  0.1391
12293TIP3    H158370   1.300   3.958  11.676 -0.1238  1.2213  0.9826
12293TIP3    H258371   1.258   3.833  11.752  1.5144 -1.2542 -2.0699
12294TIP3   OH258372   1.214   1.063  11.593 -1.0477 -0.5945 -0.1668
12294TIP3    H158373   1.161   1.112  11.530 -1.4545 -2.1821 -1.0966
12294TIP3    H258374   1.302   1.097  11.583 -1.3356 -0.0093 -0.7432
12295TIP3   OH258375   2.775   0.980   1.173 -0.0241 -0.0279  0.5130
12295TIP3    H158376   2.683   1.004   1.181 -0.2432 -0.0636 -1.6772
12295TIP3    H258377   2.777   0.914   1.104  1.8920  1.4585 -0.9200
12296TIP3   OH258378   0.976   3.636   4.387  0.8037  0.4878  0.1907
12296TIP3    H158379   1.039   3.700   4.353  1.0985  1.4618  2.5000
12296TIP3    H258380   1.030   3.573   4.435  0.3043 -0.4387 -0.4447
12297TIP3   OH258381   2.875   2.515   3.267 -0.1154 -0.0534 -0.4393
12297TIP3    H158382   2.902   2.450   3.332  0.3351 -0.4599 -1.0164
12297TIP3    H258383   2.786   2.540   3.292 -0.3211 -0.9545 -0.2505
12298TIP3   OH258384   1.378   1.359  11.584 -0.0679  0.0584  0.1717
12298TIP3    H158385   1.315   1.419  11.545  0.7882  1.4164  0.8665
12298TIP3    H258386   1.384   1.385  11.675  1.0980 -0.4089  0.2389
12299TIP3   OH258387   3.769   3.558   1.638  0.2227 -0.0411  0.3198
12299TIP3    H158388   3.857   3.594   1.650  0.7943 -1.1240 -0.5354
12299TIP3    H258389   3.714   3.607   1.699  1.3829  0.7845  0.7105
12300TIP3   OH258390   1.876   4.628  15.010  0.4774  0.0991  0.0338
12300TIP3    H158391   1.808   4.561  15.013 -0.5381  1.0823 -0.8095
12300TIP3    H258392   1.919   4.615  14.925 -0.9776  1.7212 -0.9793
12301TIP3   OH258393   2.562   3.807  16.873  0.3151 -0.0684 -0.4680
12301TIP3    H158394   2.646   3.787  16.914  0.6101 -0.1903 -1.1160
12301TIP3    H258395   2.583   3.870  16.804  0.0201 -0.8363 -1.2684
12302TIP3   OH258396   2.839   0.129  14.519 -0.4940  0.0768 -0.0240
12302TIP3    H158397   2.852   0.224  14.517 -1.5771  0.2262 -0.2297
12302TIP3    H258398   2.753   0.118  14.561 -0.9114 -0.7504 -1.0653
12303TIP3   OH258399   4.223   4.257  15.492 -0.5465 -0.1784  0.5151
12303TIP3    H158400   4.153   4.243  15.429 -0.1352  0.8745 -0.1906
12303TIP3    H258401   4.271   4.174  15.494 -0.8683 -0.3800 -0.1672
12304TIP3   OH258402   5.955   4.429  10.456  0.2854 -0.3529 -0.0125
12304TIP3    H158403   5.982   4.521  10.449  0.1890 -0.2251  1.2579
12304TIP3    H258404   6.026   4.387  10.504 -0.5012 -0.5727  0.9702
12305TIP3   OH258405   4.897   2.509   3.482  0.1522  0.2655 -0.0853
12305TIP3    H158406   4.817   2.561   3.482  0.3979  0.6537 -1.2246
12305TIP3    H258407   4.950   2.547   3.412  0.8346 -0.7548 -0.1293
12306TIP3   OH258408   2.307   5.877   0.347  0.2444  0.3439 -0.0756
12306TIP3    H158409   2.287   5.908   0.259  1.8646 -2.2340 -1.4441
12306TIP3    H258410   2.247   5.804   0.361  1.2254 -0.4434  0.1602
12307TIP3   OH258411   1.749   5.972  11.969  0.2169 -0.1862  0.6619
12307TIP3    H158412   1.777   6.004  11.883  2.0618 -1.6344  0.6988
12307TIP3    H258413   1.807   6.015  12.031  1.3680 -2.0003  0.8694
12308TIP3   OH258414   2.751   2.894  12.871  0.6073 -0.1193 -0.1495
12308TIP3    H158415   2.658   2.881  12.854  0.6436  0.0929 -0.5161
12308TIP3    H258416   2.756   2.912  12.965  0.3320 -0.6087 -0.0404
12309TIP3   OH258417   6.531   1.918  10.822  0.0047  0.4178  0.0815
12309TIP3    H158418   6.582   1.915  10.903 -0.7502 -0.4263  0.5319
12309TIP3    H258419   6.490   1.832  10.816 -1.5242  1.1423 -0.1611
12310TIP3   OH258420   0.834   1.260  17.058 -0.1551 -0.3560 -0.9555
12310TIP3    H158421   0.883   1.265  17.140 -1.0396 -0.5439 -0.4003
12310TIP3    H258422   0.900   1.266  16.989  0.4398  1.5713 -0.2414
12311TIP3   OH258423   5.928   1.480   5.999  0.1172  0.6092 -0.1010
12311TIP3    H158424   5.992   1.411   5.983 -1.0159 -0.1353 -1.5614
12311TIP3    H258425   5.868   1.444   6.064  0.0612  0.5852 -0.1661
12312TIP3   OH258426   1.264   3.394   1.060  0.5048 -0.4452 -0.0397
12312TIP3    H158427   1.217   3.460   1.112  0.8736 -0.4133  0.2508
12312TIP3    H258428   1.322   3.446   1.004  0.5049 -0.5048 -0.0942
12313TIP3   OH258429   1.076   3.359  16.704  0.3024  1.0619 -0.0410
12313TIP3    H158430   1.119   3.325  16.626  2.2791  1.7165  0.7428
12313TIP3    H258431   1.104   3.302  16.775  0.6903  2.0866  0.6465
12314TIP3   OH258432   0.151   6.004   5.389 -0.5046 -0.7362  0.0402
12314TIP3    H158433   0.103   6.067   5.443 -2.9025 -0.5514 -2.1853
12314TIP3    H258434   0.131   5.919   5.428 -0.5174 -0.4416  0.6836
12315TIP3   OH258435   1.233   6.269   1.528  0.0592 -0.8688  0.0338
12315TIP3    H158436   1.273   6.322   1.597 -0.7613 -1.5257  1.0331
12315TIP3    H258437   1.249   6.318   1.447  1.7723 -0.5224  0.5794
12316TIP3   OH258438   0.688   4.633  11.042 -0.1626  0.6823  0.3648
12316TIP3    H158439   0.688   4.559  11.102  0.3219 -1.1896 -1.8929
12316TIP3    H258440   0.624   4.610  10.975  0.0589  2.2711 -0.4239
12317TIP3   OH258441   2.604   3.391  11.915 -0.6503 -0.3202 -0.3657
12317TIP3    H158442   2.526   3.336  11.906 -0.9543 -0.0159  0.3586
12317TIP3    H258443   2.676   3.335  11.887 -0.7838 -1.5890  1.7100
12318TIP3   OH258444   3.405   3.876  15.230  0.1372 -0.4558  0.1075
12318TIP3    H158445   3.364   3.957  15.260  0.7278 -0.6293  1.4148
12318TIP3    H258446   3.357   3.806  15.275  1.3155 -0.6993  1.0044
12319TIP3   OH258447   4.733   2.904  14.717 -0.2461  0.0394  0.0138
12319TIP3    H158448   4.696   2.930  14.632 -1.5134 -3.2392 -0.5051
12319TIP3    H258449   4.674   2.943  14.782 -0.3932  0.9326 -0.6536
12320TIP3   OH258450   0.540   4.677   1.587  0.6365 -0.5844  0.0730
12320TIP3    H158451   0.473   4.609   1.588  1.9628 -1.9829 -1.9916
12320TIP3    H258452   0.621   4.630   1.606  1.1282  1.0197  2.1142
12321TIP3   OH258453   4.897   3.476  13.443  0.1032  0.4769  0.3320
12321TIP3    H158454   4.838   3.521  13.383  0.7826 -0.5649 -1.1705
12321TIP3    H258455   4.968   3.539  13.458 -0.8650  1.3450  1.3375
12322TIP3   OH258456   6.748   6.689   2.582  0.5616 -0.4594  0.0101
12322TIP3    H158457   6.693   6.613   2.563 -1.0834  1.0020 -1.2835
12322TIP3    H258458   6.705   6.732   2.655 -0.7780  1.3585 -1.7784
12323TIP3   OH258459   4.676   0.526  14.596  0.7132 -0.1918 -0.5531
12323TIP3    H158460   4.743   0.554  14.534  0.4988 -0.5840 -0.9667
12323TIP3    H258461   4.599   0.507  14.542  0.1724  0.5493 -0.0492
12324TIP3   OH258462   2.819   3.106  16.496  0.2048  0.6441 -0.1083
12324TIP3    H158463   2.759   3.050  16.546  1.3769 -0.3804  0.1556
12324TIP3    H258464   2.777   3.118  16.411  0.6996 -1.9658 -0.7500
12325TIP3   OH258465   4.449   0.621   5.310  0.0093 -0.1816  0.1347
12325TIP3    H158466   4.461   0.548   5.371  2.1486  1.4641  1.7899
12325TIP3    H258467   4.511   0.604   5.240 -1.0219 -1.0457 -0.5743
12326TIP3   OH258468   3.369   0.459  15.678  0.1286 -0.2808  0.1359
12326TIP3    H158469   3.373   0.369  15.646 -1.3044  0.0371 -1.0132
12326TIP3    H258470   3.459   0.491  15.673  0.3648 -1.0979 -1.0670
12327TIP3   OH258471   1.825   2.019  13.146 -0.0621  0.6812  0.3077
12327TIP3    H158472   1.822   2.006  13.241 -0.4565 -1.7987 -0.0116
12327TIP3    H258473   1.898   1.964  13.117 -0.7469  0.4235 -0.9753
12328TIP3   OH258474   2.656   6.231  17.085  0.3236 -0.0273 -0.0722
12328TIP3    H158475   2.561   6.222  17.075  0.4585 -1.5690  0.0396
12328TIP3    H258476   2.666   6.293  17.157 -0.5914  1.7655 -1.4278
12329TIP3   OH258477   1.751   2.815  16.896 -0.0069  0.0019 -0.4164
12329TIP3    H158478   1.753   2.724  16.866  0.6665 -0.4237  0.8644
12329TIP3    H258479   1.844   2.838  16.907 -0.2496 -0.0780  1.9486
12330TIP3   OH258480   3.030   1.397  12.493  0.3367  0.1429  0.2311
12330TIP3    H158481   3.081   1.317  12.490 -1.7152 -1.2142  0.2099
12330TIP3    H258482   3.020   1.416  12.587  2.4838  1.5114  0.2146
12331TIP3   OH258483   6.074   2.392   5.280 -0.1900  0.3923 -0.2412
12331TIP3    H158484   5.981   2.406   5.292 -0.6876 -1.5758 -1.5945
12331TIP3    H258485   6.089   2.405   5.186  0.6501 -0.5095 -0.2493
12332TIP3   OH258486   4.012   4.776   4.655  0.6950 -0.4542 -0.0702
12332TIP3    H158487   4.008   4.708   4.722 -0.1996 -0.3779 -0.0433
12332TIP3    H258488   4.054   4.734   4.580  1.7535 -0.5206  0.5509
12333TIP3   OH258489   4.112   3.311   5.418  0.0111 -1.0475  0.1509
12333TIP3    H158490   4.086   3.399   5.445 -0.6678 -0.8264 -1.1809
12333TIP3    H258491   4.181   3.286   5.479  0.3211  0.4730  0.4348
12334TIP3   OH258492   5.674   2.304   2.212 -0.1256  0.3848  0.4335
12334TIP3    H158493   5.620   2.260   2.278  0.6103 -0.4525  0.4902
12334TIP3    H258494   5.653   2.261   2.130 -1.1333  1.5138  0.0976
12335TIP3   OH258495   6.816   4.888  11.613  0.0198 -0.3977 -0.3726
12335TIP3    H158496   6.910   4.899  11.618 -0.0747  1.2944 -1.9846
12335TIP3    H258497   6.790   4.858  11.700  1.7203  1.5343  0.8144
12336TIP3   OH258498   6.063   1.487   3.884 -0.2322 -0.5967 -0.0537
12336TIP3    H158499   6.077   1.579   3.860  0.5778 -0.2089  1.8290
12336TIP3    H258500   6.111   1.437   3.818 -2.2183  0.2258 -2.2161
12337TIP3   OH258501   1.026   1.336   0.561 -0.0499  0.0873  0.3977
12337TIP3    H158502   0.977   1.368   0.485 -1.0870 -0.5655  0.7929
12337TIP3    H258503   1.044   1.244   0.541 -0.6497 -0.1865  1.1135
12338TIP3   OH258504   0.417   1.435  16.134  0.1546 -0.2670 -0.1608
12338TIP3    H158505   0.357   1.444  16.060 -0.1243  0.6536  0.1741
12338TIP3    H258506   0.479   1.367  16.106  0.0239  0.0343 -1.2176
12339TIP3   OH258507   5.430   0.663  13.105  0.2539  0.2805 -0.4941
12339TIP3    H158508   5.351   0.648  13.054  1.1172  1.3067 -2.1960
12339TIP3    H258509   5.490   0.707  13.044  1.1974  1.8558  1.4968
12340TIP3   OH258510   2.023   6.342  13.632 -0.2097  0.1920 -0.1801
12340TIP3    H158511   2.061   6.407  13.572 -1.2045  2.0805  1.1590
12340TIP3    H258512   2.079   6.346  13.710 -1.1253  0.5445  0.4778
12341TIP3   OH258513   2.390   0.997  16.773  0.1561  0.2798 -0.5061
12341TIP3    H158514   2.388   1.036  16.861 -0.6006  0.3400 -0.5481
12341TIP3    H258515   2.472   1.029  16.735  0.6197  0.0301  0.2787
12342TIP3   OH258516   0.570   1.291   5.506  0.2920  0.2679 -0.5542
12342TIP3    H158517   0.644   1.327   5.458 -0.3774  0.5666 -1.3747
12342TIP3    H258518   0.578   1.197   5.497  1.5536  0.2157  0.8508
12343TIP3   OH258519   5.999   5.159  16.340  0.0534  0.1256  0.5939
12343TIP3    H158520   6.038   5.148  16.253  1.2467  1.0008  0.9906
12343TIP3    H258521   6.074   5.152  16.400 -0.6304  0.3641  1.4850
12344TIP3   OH258522   2.119   1.527  13.469  0.1318  0.2803 -0.5771
12344TIP3    H158523   2.171   1.446  13.465 -1.3266 -0.5918 -2.3143
12344TIP3    H258524   2.139   1.572  13.387  1.3666  2.0024  0.6199
12345TIP3   OH258525   4.019   0.577   5.529 -0.0266  0.2130 -0.0958
12345TIP3    H158526   4.057   0.651   5.482 -1.9583  1.5091  0.3294
12345TIP3    H258527   3.925   0.580   5.508 -0.8545  0.5050  3.3897
12346TIP3   OH258528   3.937   3.561   3.871  0.6444  0.6273  0.0022
12346TIP3    H158529   3.945   3.534   3.962  0.8456 -2.2325 -0.7940
12346TIP3    H258530   3.939   3.478   3.822 -0.7665  2.0158 -2.4889
12347TIP3   OH258531   4.826   5.684   2.040 -0.0142 -0.1404 -0.9825
12347TIP3    H158532   4.845   5.622   1.970  0.9835 -0.2060 -0.6686
12347TIP3    H258533   4.825   5.631   2.120 -1.0806 -0.0564 -0.9416
12348TIP3   OH258534   4.224   3.111   4.488  0.5820  0.2250 -0.4868
12348TIP3    H158535   4.220   3.146   4.398  0.5578  1.7665  0.0918
12348TIP3    H258536   4.148   3.053   4.494  0.4139  0.3388 -1.3741
12349TIP3   OH258537   2.736   1.036   0.873 -0.6463  0.1834  0.3741
12349TIP3    H158538   2.805   0.971   0.874 -0.4961  0.2682 -2.1451
12349TIP3    H258539   2.758   1.096   0.945  1.2957 -0.3846  0.2707
12350TIP3   OH258540   6.202   5.679   5.767 -0.0268  0.7087  0.1533
12350TIP3    H158541   6.161   5.652   5.850  1.4517  1.8314  1.2852
12350TIP3    H258542   6.235   5.767   5.785  0.8887  0.7029 -1.4340
12351TIP3   OH258543   2.819   4.454  13.602 -0.1075  0.5556  0.2194
12351TIP3    H158544   2.913   4.444  13.618 -0.0213  0.9889 -0.0182
12351TIP3    H258545   2.788   4.364  13.589  0.4029  0.4610 -0.4116
12352TIP3   OH258546   0.876   2.260  16.678 -0.3168 -0.3354  0.5574
12352TIP3    H158547   0.804   2.197  16.685 -0.4436 -0.2637 -0.0786
12352TIP3    H258548   0.836   2.339  16.642  0.3416 -0.7786 -1.2131
12353TIP3   OH258549   3.967   1.206  15.080 -0.3840  0.0988 -0.3913
12353TIP3    H158550   3.950   1.131  15.137 -1.6054  1.0187  0.4940
12353TIP3    H258551   3.930   1.280  15.127  1.1714  1.3296 -1.0601
12354TIP3   OH258552   1.796   3.193  12.621  0.2428 -0.1705  0.3990
12354TIP3    H158553   1.855   3.266  12.602  1.7732 -1.5656 -0.2816
12354TIP3    H258554   1.821   3.163  12.708  1.1365 -1.3150 -0.2415
12355TIP3   OH258555   1.543   2.931  11.984  0.2245 -0.0231 -0.3987
12355TIP3    H158556   1.460   2.893  11.956  0.4558 -1.2361  0.4952
12355TIP3    H258557   1.553   2.903  12.075  0.1056  2.7563  0.5159
12356TIP3   OH258558   1.433   6.536   4.737 -0.1250  0.1147  0.0387
12356TIP3    H158559   1.382   6.497   4.809  0.9495 -0.1721  0.6659
12356TIP3    H258560   1.466   6.460   4.688  0.0339  0.2871 -0.1187
12357TIP3   OH258561   5.812   3.012  14.357 -0.2498 -0.5246 -0.0007
12357TIP3    H158562   5.765   3.056  14.286  0.4475  0.5174  0.1828
12357TIP3    H258563   5.827   2.923  14.324  0.1868 -0.0142 -1.2003
12358TIP3   OH258564   3.247   0.576   1.907  0.1333 -0.1664  0.1554
12358TIP3    H158565   3.309   0.649   1.911 -0.5162  0.5333 -2.0022
12358TIP3    H258566   3.302   0.499   1.892  0.5314  0.3797 -1.2540
12359TIP3   OH258567   0.208   0.657  12.364  0.3401  0.0146 -0.3680
12359TIP3    H158568   0.144   0.728  12.362 -0.3957 -0.6707 -1.3279
12359TIP3    H258569   0.261   0.670  12.285 -0.6069 -1.2440 -1.2208
12360TIP3   OH258570   3.311   3.503  12.176 -0.0916 -0.3727 -0.1100
12360TIP3    H158571   3.237   3.525  12.119  0.1529  1.0049  0.0876
12360TIP3    H258572   3.275   3.506  12.264  0.0013 -0.5273 -0.0671
12361TIP3   OH258573   0.055   5.372   1.956  0.0249  0.7654 -0.7290
12361TIP3    H158574   0.113   5.357   1.881  0.5740  0.9793 -0.3546
12361TIP3    H258575  -0.022   5.319   1.937  1.0605 -0.8980 -0.4220
12362TIP3   OH258576   2.656   6.244  13.907  0.1316  0.3057 -0.0105
12362TIP3    H158577   2.735   6.264  13.957 -1.6782  2.8381  1.9683
12362TIP3    H258578   2.606   6.186  13.964  0.5308 -1.2931 -1.2605
12363TIP3   OH258579   3.528   6.385  11.245  0.6225 -0.1650 -0.4016
12363TIP3    H158580   3.466   6.442  11.200  0.8226  0.6021  0.2816
12363TIP3    H258581   3.589   6.357  11.177  1.5799  1.8735 -0.4158
12364TIP3   OH258582   4.730   3.402  14.422  0.1920 -0.0915  0.2897
12364TIP3    H158583   4.813   3.450  14.423  0.2794 -0.1664 -1.3851
12364TIP3    H258584   4.729   3.358  14.337 -2.2230  1.0658 -0.3299
12365TIP3   OH258585   1.188   2.788  15.740  0.5378  0.0037 -0.0738
12365TIP3    H158586   1.261   2.811  15.683  0.0837  0.1959 -0.5759
12365TIP3    H258587   1.110   2.820  15.694  0.0726 -0.8379  0.1283
12366TIP3   OH258588   1.662   0.485   5.560 -0.0831  0.2224 -0.0854
12366TIP3    H158589   1.582   0.503   5.511  0.1004 -0.5256 -0.6779
12366TIP3    H258590   1.634   0.470   5.650 -0.4394  1.5197  0.0198
12367TIP3   OH258591   1.085   0.794   0.391 -0.7950 -0.2819  0.3889
12367TIP3    H158592   1.107   0.771   0.481  0.4623  0.8426  0.3842
12367TIP3    H258593   1.156   0.757   0.339 -0.9279  0.0305 -0.0168
12368TIP3   OH258594   3.420   1.692   4.105 -0.3087  0.0470  0.0361
12368TIP3    H158595   3.497   1.747   4.121 -0.5579  0.2469  0.5656
12368TIP3    H258596   3.350   1.734   4.156 -0.0043 -1.9614  2.1376
12369TIP3   OH258597   1.900   4.960   1.009 -0.0427  0.2526 -0.0006
12369TIP3    H158598   1.840   4.887   0.993  1.4100 -0.9090 -0.2310
12369TIP3    H258599   1.953   4.965   0.929 -0.2856  1.7102 -0.0774
12370TIP3   OH258600   2.143   3.447  14.412  0.8942 -0.4655 -0.2180
12370TIP3    H158601   2.216   3.508  14.408  0.6361 -0.1010  0.5199
12370TIP3    H258602   2.180   3.367  14.450  1.0696 -0.5242 -0.5123
12371TIP3   OH258603   1.394   5.281  14.329 -0.3044 -0.0837  0.5753
12371TIP3    H158604   1.434   5.291  14.416  1.0721  0.0537 -0.0555
12371TIP3    H258605   1.377   5.187  14.321  0.9644 -0.3132  0.4108
12372TIP3   OH258606   6.458   2.607   3.000 -0.3441  0.2171  0.1088
12372TIP3    H158607   6.374   2.562   3.002 -0.6437  0.7223 -0.8945
12372TIP3    H258608   6.503   2.570   2.923 -0.0243  0.6161  0.1043
12373TIP3   OH258609   5.718   6.406  11.772 -0.1715  0.0726  0.3045
12373TIP3    H158610   5.800   6.445  11.805 -0.8182  1.3968  0.3704
12373TIP3    H258611   5.731   6.401  11.678  0.7325 -1.4936  0.4967
12374TIP3   OH258612   3.420   2.765   5.369  0.5728 -0.2312  0.4580
12374TIP3    H158613   3.492   2.771   5.432 -1.1056 -1.1760  2.5070
12374TIP3    H258614   3.341   2.770   5.422 -0.8973  0.5061 -1.7472
12375TIP3   OH258615   3.564   6.791  16.389  1.1090  0.3321 -0.2966
12375TIP3    H158616   3.643   6.799  16.336  1.1810  0.0242 -0.2349
12375TIP3    H258617   3.494   6.826  16.333  1.3203  0.8012 -0.2682
12376TIP3   OH258618   0.398   2.740  14.616  0.0993  0.1579 -0.1551
12376TIP3    H158619   0.482   2.774  14.646 -0.0695 -0.7355  1.3835
12376TIP3    H258620   0.338   2.757  14.689 -1.4615  2.2402 -1.8363
12377TIP3   OH258621   4.633   4.481   5.435 -0.2010  0.2853  0.2273
12377TIP3    H158622   4.607   4.573   5.430 -0.7612  0.1069 -0.2030
12377TIP3    H258623   4.702   4.479   5.502 -0.0727  1.0388  0.1192
12378TIP3   OH258624   5.794   3.417   2.045  0.4524  0.3448 -1.1375
12378TIP3    H158625   5.803   3.324   2.067 -0.5044  0.0040 -2.1591
12378TIP3    H258626   5.832   3.424   1.958 -1.6608  0.4307 -2.0858
12379TIP3   OH258627   4.834   0.897   4.724 -0.2540 -0.0532 -0.5797
12379TIP3    H158628   4.865   0.905   4.634 -0.0050 -0.8754 -0.5692
12379TIP3    H258629   4.806   0.806   4.732  0.5006 -0.2005  0.4275
12380TIP3   OH258630   5.010   6.393   1.610 -0.1386 -0.7718 -0.1746
12380TIP3    H158631   5.094   6.412   1.568  0.1367 -1.8955 -0.1643
12380TIP3    H258632   4.950   6.460   1.576  0.6977 -0.1097 -0.3695
12381TIP3   OH258633   0.453   5.019   5.744  0.3400  0.0571 -0.0080
12381TIP3    H158634   0.528   4.978   5.699  1.1144  0.0566  1.2622
12381TIP3    H258635   0.468   5.113   5.733  0.0389  0.0404 -0.5456
12382TIP3   OH258636   5.107   0.242   4.813 -0.0111 -0.2356 -0.4454
12382TIP3    H158637   5.175   0.218   4.877  0.5201  0.2562 -0.8262
12382TIP3    H258638   5.048   0.167   4.812  1.4775 -1.4205 -1.4109
12383TIP3   OH258639   4.833   2.353  16.905 -0.1119 -0.0349 -0.0813
12383TIP3    H158640   4.896   2.305  16.852  0.2140  1.3224 -0.9494
12383TIP3    H258641   4.748   2.320  16.877  0.1446 -0.7495 -0.0228
12384TIP3   OH258642   6.368   0.741  15.025 -0.2873  1.0701  0.2203
12384TIP3    H158643   6.403   0.802  14.960  1.0545  0.6181  0.4936
12384TIP3    H258644   6.273   0.751  15.019 -0.0957  3.0215  0.1293
12385TIP3   OH258645   3.191   0.617   0.640 -0.1360 -0.2186 -0.2953
12385TIP3    H158646   3.211   0.707   0.616  0.3341 -0.9222 -2.6533
12385TIP3    H258647   3.112   0.596   0.591  0.5687 -1.5457 -0.8860
12386TIP3   OH258648   1.853   1.295   2.004  0.2074 -0.5197 -0.1543
12386TIP3    H158649   1.807   1.339   1.933 -1.0919 -2.0120 -0.2762
12386TIP3    H258650   1.938   1.339   2.009 -0.9238  1.7659 -0.4440
12387TIP3   OH258651   0.319   2.243  13.925 -0.3330  0.2120 -0.1339
12387TIP3    H158652   0.377   2.174  13.894 -1.7868 -0.5623 -1.2014
12387TIP3    H258653   0.337   2.318  13.868 -0.1506  0.0800 -0.2474
12388TIP3   OH258654   5.786   6.569   4.610  0.4266  0.0947  0.3215
12388TIP3    H158655   5.718   6.533   4.666  0.4200  0.4620  0.5512
12388TIP3    H258656   5.845   6.615   4.669  0.0156  1.1151 -0.0429
12389TIP3   OH258657   6.666   3.943   1.358 -0.1285  0.1696  0.6583
12389TIP3    H158658   6.740   3.999   1.384 -1.3869  2.1514  0.0642
12389TIP3    H258659   6.663   3.950   1.263 -1.0709  0.0825  0.6802
12390TIP3   OH258660   1.205   0.771  16.544  0.0945 -0.1617  0.6040
12390TIP3    H158661   1.287   0.818  16.561  1.0840 -2.1110  1.2960
12390TIP3    H258662   1.184   0.793  16.453  1.8750 -0.3574  0.1240
12391TIP3   OH258663   4.807   1.092  12.448 -0.5936  0.4303 -0.1100
12391TIP3    H158664   4.818   0.998  12.432 -3.8365  0.0583 -0.4623
12391TIP3    H258665   4.849   1.134  12.373 -0.3701 -0.7948 -0.6821
12392TIP3   OH258666   5.561   4.802   4.088 -0.2580  0.8770  0.2241
12392TIP3    H158667   5.646   4.841   4.111 -0.0624  0.7450 -0.2621
12392TIP3    H258668   5.541   4.837   4.001  1.5656 -2.6454 -1.7648
12393TIP3   OH258669   1.991   5.800  16.549 -0.1966  0.3602 -0.8325
12393TIP3    H158670   1.925   5.869  16.540  0.2203  0.9438  0.4606
12393TIP3    H258671   1.983   5.771  16.640 -0.2489 -1.1890 -1.3221
12394TIP3   OH258672   0.972   0.688   5.695  0.2705  0.4431 -0.4221
12394TIP3    H158673   0.945   0.722   5.781  0.2628 -0.9616  0.1466
12394TIP3    H258674   0.897   0.636   5.665  1.0500 -0.7480 -0.3422
12395TIP3   OH258675   3.590   2.907   3.393  0.0267 -0.1977 -0.4736
12395TIP3    H158676   3.576   2.928   3.301 -1.4360  0.3447 -0.1451
12395TIP3    H258677   3.589   2.811   3.396  1.2048 -0.2422 -1.1721
12396TIP3   OH258678   1.032   5.773   3.677  0.2158  0.2108  0.3940
12396TIP3    H158679   1.064   5.822   3.601 -0.9138  0.7124  0.2270
12396TIP3    H258680   0.948   5.813   3.698 -0.1621 -0.8737  1.0139
12397TIP3   OH258681   2.142   4.723  12.288 -0.0256  0.8045  0.5737
12397TIP3    H158682   2.132   4.688  12.200 -0.1415  0.2011  0.8212
12397TIP3    H258683   2.202   4.663  12.331  0.8575  1.6853  0.5897
12398TIP3   OH258684   1.113   0.996  15.547 -0.5886 -0.1068 -0.1405
12398TIP3    H158685   1.069   1.004  15.632 -2.0021 -1.8023 -0.6712
12398TIP3    H258686   1.050   0.949  15.492  0.9953 -0.5718 -1.5993
12399TIP3   OH258687   0.706   4.763  16.486  0.1919 -0.2351 -0.9631
12399TIP3    H158688   0.658   4.843  16.510  2.0029  1.1203 -1.7649
12399TIP3    H258689   0.786   4.795  16.445  1.8869 -2.4669  0.5095
12400TIP3   OH258690   5.383   4.329  11.543 -0.3368 -0.0373  0.3160
12400TIP3    H158691   5.399   4.259  11.606  1.7185  0.6595  0.5859
12400TIP3    H258692   5.468   4.370  11.530 -0.8860  0.3598 -2.2845
12401TIP3   OH258693   4.602   0.592  12.052  0.2732  0.0616 -0.1545
12401TIP3    H158694   4.538   0.534  12.010  0.5888  0.6100 -1.4021
12401TIP3    H258695   4.566   0.608  12.139  0.1005 -1.8906  0.1641
12402TIP3   OH258696   6.488   2.739   5.089  0.3984 -0.3527 -0.0711
12402TIP3    H158697   6.567   2.774   5.047 -0.2951  0.2117 -0.9053
12402TIP3    H258698   6.520   2.704   5.173  1.3320  1.0159  0.1754
12403TIP3   OH258699   4.980   6.381  11.831 -0.1636  0.1741  0.0576
12403TIP3    H158700   4.904   6.335  11.868  0.0026 -0.3556 -0.2574
12403TIP3    H258701   4.976   6.468  11.869  0.5875 -0.6747  2.1126
12404TIP3   OH258702   3.261   4.355  13.041  0.0401 -0.0428  0.0870
12404TIP3    H158703   3.261   4.418  13.113  1.0938 -0.8132  0.7718
12404TIP3    H258704   3.301   4.402  12.968 -0.3140  0.4804  0.2275
12405TIP3   OH258705   4.820   1.537   1.530 -0.1816 -0.4507 -0.1368
12405TIP3    H158706   4.852   1.450   1.552 -0.9717 -1.0204 -1.1993
12405TIP3    H258707   4.741   1.522   1.479  0.5494  0.8429 -1.7198
12406TIP3   OH258708   4.549   4.591  16.199  0.1339  0.3406 -0.1059
12406TIP3    H158709   4.495   4.513  16.204  0.8589 -0.2905 -1.8883
12406TIP3    H258710   4.525   4.642  16.277 -2.3544 -0.3317 -0.3973
12407TIP3   OH258711   3.322   6.216  14.848  0.4303  0.0681 -0.1627
12407TIP3    H158712   3.349   6.280  14.913  0.2110  1.2689 -1.2256
12407TIP3    H258713   3.328   6.262  14.764  0.9211 -1.5076 -1.0345
12408TIP3   OH258714   6.506   3.034   6.613  0.9199 -0.0128 -0.0483
12408TIP3    H158715   6.410   3.026   6.616  0.8893  0.5355  0.8016
12408TIP3    H258716   6.538   2.944   6.620  0.4570 -0.2093 -0.5014
12409TIP3   OH258717   2.501   1.573   5.754  0.3741  0.0564  0.7791
12409TIP3    H158718   2.427   1.540   5.804  0.1775 -1.4718 -0.4757
12409TIP3    H258719   2.470   1.575   5.664  1.2405  1.2451  0.4969
12410TIP3   OH258720   2.805   1.625   1.528  0.0293  0.3535  0.4691
12410TIP3    H158721   2.791   1.695   1.464  1.0376  0.1909  0.0499
12410TIP3    H258722   2.900   1.619   1.536 -0.0756 -0.0697  1.5058
12411TIP3   OH258723   1.021   1.091  15.174  0.4245  0.4136 -0.0475
12411TIP3    H158724   1.069   1.144  15.237  1.4257  1.8106 -1.9105
12411TIP3    H258725   0.934   1.130  15.171  0.3350  0.2620  0.5603
12412TIP3   OH258726   3.968   4.236  11.351  0.7983  0.1608  0.3560
12412TIP3    H158727   3.907   4.198  11.287  1.4704 -0.7887  0.2734
12412TIP3    H258728   3.945   4.329  11.352  0.1587  0.0304 -0.5792
12413TIP3   OH258729   5.779   3.071   0.689 -0.5065 -0.1904 -0.0690
12413TIP3    H158730   5.688   3.056   0.715 -0.5875 -0.3124 -0.4150
12413TIP3    H258731   5.798   3.160   0.720 -0.4641 -0.4886  0.7729
12414TIP3   OH258732   0.755   6.501  13.346  0.0832  0.4395 -0.1933
12414TIP3    H158733   0.795   6.549  13.273  0.3986 -0.1355 -0.4029
12414TIP3    H258734   0.673   6.547  13.363  0.7208  1.4861  0.0798
12415TIP3   OH258735   4.436   6.199  13.127 -0.2186  0.4833  0.2525
12415TIP3    H158736   4.367   6.260  13.153  0.1551  0.5147  1.1957
12415TIP3    H258737   4.389   6.117  13.111 -0.4790  0.4740  1.0001
12416TIP3   OH258738   4.014   6.750   6.866 -0.6338 -0.0958 -0.3701
12416TIP3    H158739   3.993   6.657   6.861 -1.8520  0.1279  0.4006
12416TIP3    H258740   4.104   6.753   6.900 -0.5218 -0.9884 -0.5760
12417TIP3   OH258741   4.747   3.595  14.931  0.3458  0.2498 -0.3133
12417TIP3    H158742   4.790   3.678  14.911 -0.7604  1.4791  2.2281
12417TIP3    H258743   4.787   3.566  15.013 -0.9552 -0.5361  0.0541
12418TIP3   OH258744   1.733   6.361   1.976  0.2589  0.3271  0.1053
12418TIP3    H158745   1.691   6.279   1.949  0.9491  0.1835 -0.5335
12418TIP3    H258746   1.663   6.426   1.972 -1.0232 -0.7198  3.2617
12419TIP3   OH258747   5.796   3.130   2.033  0.0255  0.0649  0.1486
12419TIP3    H158748   5.787   3.131   1.938  0.8879  0.5462  0.0728
12419TIP3    H258749   5.723   3.075   2.063 -1.0612  1.0262 -0.6885
12420TIP3   OH258750   3.237   4.337  15.962 -0.6862  0.8779  0.0113
12420TIP3    H158751   3.296   4.269  15.996  0.3555  1.4321 -0.6699
12420TIP3    H258752   3.156   4.290  15.941 -0.7121  0.2126  1.5151
12421TIP3   OH258753   4.286   1.709  11.066  0.6116  0.5149 -0.3581
12421TIP3    H158754   4.367   1.737  11.107  1.4255 -2.9915  0.5879
12421TIP3    H258755   4.308   1.696  10.974  0.4465  2.0387 -0.6220
12422TIP3   OH258756   4.226   4.926  13.165  0.2559  0.4352  0.0885
12422TIP3    H158757   4.286   4.996  13.142  1.0842 -0.4798 -0.5598
12422TIP3    H258758   4.280   4.861  13.210 -0.3851 -0.0488  0.1753
12423TIP3   OH258759   5.799   4.161   4.466 -0.1042  0.1358  0.3875
12423TIP3    H158760   5.824   4.133   4.378  0.7505  1.9607  0.0344
12423TIP3    H258761   5.852   4.105   4.524 -1.1646 -1.5371 -0.2171
12424TIP3   OH258762   3.658   4.051   3.694 -0.5177  0.0494  0.7460
12424TIP3    H158763   3.658   3.962   3.729  0.6617  0.5918  2.1654
12424TIP3    H258764   3.730   4.095   3.739 -0.5979  1.5088 -0.5089
12425TIP3   OH258765   5.104   2.255  12.293  0.5417 -0.5714  0.2587
12425TIP3    H158766   5.070   2.177  12.338  1.7382  0.0189  2.2720
12425TIP3    H258767   5.188   2.226  12.256 -0.3385 -0.9946 -1.4654
12426TIP3   OH258768   6.612   4.360  11.565 -0.1284 -0.3965  0.1988
12426TIP3    H158769   6.631   4.453  11.560  0.2742 -0.6130 -3.4117
12426TIP3    H258770   6.537   4.353  11.623 -0.4634  2.2206  0.1079
12427TIP3   OH258771   6.421   0.785   0.512  0.1857 -0.2637 -0.0130
12427TIP3    H158772   6.349   0.846   0.524  0.2465  0.2690 -2.1113
12427TIP3    H258773   6.392   0.728   0.440  0.5557 -2.0692  1.2172
12428TIP3   OH258774   0.140   1.537   2.334  0.1393  0.5512 -0.1588
12428TIP3    H158775   0.228   1.562   2.360  0.7337 -0.0750 -1.5442
12428TIP3    H258776   0.152   1.484   2.255 -1.2974 -1.5537  0.9963
12429TIP3   OH258777   4.915   1.502   1.174 -0.6498 -0.1827 -0.3850
12429TIP3    H158778   4.826   1.535   1.174 -1.0928 -1.2166  2.9210
12429TIP3    H258779   4.970   1.581   1.178 -1.3296  0.4877 -3.2087
12430TIP3   OH258780   3.896   2.129  17.271  0.2121  0.3460  0.4906
12430TIP3    H158781   3.885   2.186  17.347 -0.9702  0.5444  0.1804
12430TIP3    H258782   3.968   2.168  17.222 -1.5028  2.4083 -0.4621
12431TIP3   OH258783   3.640   1.775   0.647 -0.2396 -0.1668  0.2475
12431TIP3    H158784   3.582   1.712   0.690 -0.6013  0.3776  0.5557
12431TIP3    H258785   3.726   1.759   0.687 -0.8389  1.2630  2.2063
12432TIP3   OH258786   2.176   5.665   3.467  0.1497  0.0999  0.6516
12432TIP3    H158787   2.185   5.683   3.560  0.7838  0.1660  0.5837
12432TIP3    H258788   2.254   5.704   3.427 -0.2567  0.3165  0.0571
12433TIP3   OH258789   3.421   4.732   6.406  0.2437 -0.3088  0.2719
12433TIP3    H158790   3.484   4.804   6.415 -0.6259  0.5010 -0.0124
12433TIP3    H258791   3.338   4.768   6.437 -0.4077 -0.8967 -0.7415
12434TIP3   OH258792   0.185   5.420   0.624  0.6970 -0.5723  0.1555
12434TIP3    H158793   0.229   5.414   0.709  0.9347 -0.1620  0.0591
12434TIP3    H258794   0.093   5.434   0.646  1.0876  1.7940  0.3281
12435TIP3   OH258795   6.051   1.298  10.576  0.4059  0.0606 -0.3247
12435TIP3    H158796   6.066   1.389  10.602  1.1626 -0.7084  2.0699
12435TIP3    H258797   6.012   1.257  10.653  1.8916 -2.0948 -0.6750
12436TIP3   OH258798   0.863   4.997  14.823  0.4011  0.3098 -0.3540
12436TIP3    H158799   0.838   4.939  14.895  2.4585  1.0032  0.9623
12436TIP3    H258800   0.881   4.938  14.750 -1.9230 -0.3853 -0.4245
12437TIP3   OH258801   2.716   6.017  11.509  0.4695 -0.5376  0.2130
12437TIP3    H158802   2.628   6.007  11.545  0.9035 -1.4779  1.0341
12437TIP3    H258803   2.703   6.013  11.414 -0.4761  0.2721  0.3005
12438TIP3   OH258804   6.763   4.965  16.345  0.2983 -0.6651 -0.5504
12438TIP3    H158805   6.671   4.940  16.357 -0.8308  2.7651 -1.5200
12438TIP3    H258806   6.805   4.946  16.429 -1.8881  0.1094  0.7432
12439TIP3   OH258807   1.940   3.284   0.556 -0.1361  0.3322  0.0766
12439TIP3    H158808   1.897   3.324   0.481 -0.7888 -1.3482 -0.4783
12439TIP3    H258809   1.878   3.295   0.628  0.7311  2.4487  0.5420
12440TIP3   OH258810   4.803   5.783  14.334 -0.5136 -0.2220  0.6536
12440TIP3    H158811   4.838   5.789  14.423  0.3841 -1.3290  0.3817
12440TIP3    H258812   4.740   5.855  14.328 -0.4500 -0.0324  2.1276
12441TIP3   OH258813   0.954   4.225   5.949 -0.3735  0.1557  0.6489
12441TIP3    H158814   0.964   4.146   5.897  0.6866 -0.9289  2.4688
12441TIP3    H258815   0.868   4.259   5.925  0.2048 -0.1454 -2.0023
12442TIP3   OH258816   5.086   1.385  14.078 -0.3576 -0.8391 -0.2246
12442TIP3    H158817   5.033   1.319  14.123 -1.3649  0.1466  0.0663
12442TIP3    H258818   5.065   1.467  14.123  2.6827 -0.6623  0.9807
12443TIP3   OH258819   5.390   3.275  12.168 -0.6423  0.2718  0.7275
12443TIP3    H158820   5.471   3.254  12.215  0.4186 -0.8280 -1.5232
12443TIP3    H258821   5.365   3.192  12.126 -2.8981  0.6266  1.3066
12444TIP3   OH258822   1.285   6.200   6.655 -0.7559  0.1959  0.0488
12444TIP3    H158823   1.298   6.210   6.561  1.5374  0.9445  0.4164
12444TIP3    H258824   1.251   6.285   6.684 -0.3617  0.3576  0.0514
12445TIP3   OH258825   5.958   3.608   2.202 -0.1345 -0.3285  0.1882
12445TIP3    H158826   6.033   3.599   2.143 -0.0221  0.2799  0.2287
12445TIP3    H258827   5.890   3.553   2.164 -0.6654  1.4265 -1.5223
12446TIP3   OH258828   5.997   6.704   2.539 -0.1975  0.2689  0.4785
12446TIP3    H158829   6.065   6.739   2.481 -0.8546  0.0211 -0.4661
12446TIP3    H258830   5.950   6.781   2.569  0.7731  0.4755  1.4896
12447TIP3   OH258831   0.608   1.232   2.826  0.7327  0.2464 -0.3466
12447TIP3    H158832   0.558   1.278   2.759 -1.3326  0.9866  1.6333
12447TIP3    H258833   0.556   1.155   2.846  0.9753  0.3940  0.8910
12448TIP3   OH258834   6.745   3.988   4.349  0.6953 -0.7142 -0.3254
12448TIP3    H158835   6.683   3.935   4.398  0.6726 -1.3968 -1.0778
12448TIP3    H258836   6.763   4.063   4.405  0.1973 -1.1755  0.4518
12449TIP3   OH258837   3.360   3.773  15.685 -0.0303  0.7795 -0.2291
12449TIP3    H158838   3.345   3.820  15.602  1.8198 -0.1915 -1.1266
12449TIP3    H258839   3.297   3.701  15.683 -1.0999  1.6865 -0.0313
12450TIP3   OH258840   5.531   5.635  13.310 -0.0217  0.3548 -0.1451
12450TIP3    H158841   5.456   5.676  13.267 -0.4534 -0.9804 -0.6892
12450TIP3    H258842   5.600   5.701  13.305 -0.6269  0.9209 -1.2677
12451TIP3   OH258843   2.102   4.850  11.145  0.3247 -0.1391 -0.2140
12451TIP3    H158844   2.011   4.881  11.144  0.1915 -0.5048  0.2822
12451TIP3    H258845   2.124   4.845  11.238  0.5536 -0.9205 -0.3112
12452TIP3   OH258846   4.973   1.423  13.318 -0.0163  0.2950 -0.9655
12452TIP3    H158847   5.029   1.385  13.386  0.3358 -0.5232 -1.7086
12452TIP3    H258848   4.924   1.492  13.363  2.4284  1.8103 -0.5559
12453TIP3   OH258849   5.654   2.662   2.653  0.1042  0.3167  0.1401
12453TIP3    H158850   5.581   2.665   2.714 -0.6888 -2.1849 -0.5966
12453TIP3    H258851   5.730   2.642   2.708 -0.1850  0.4681  0.5985
12454TIP3   OH258852   4.262   0.904  14.484  0.7692  0.2249 -0.1813
12454TIP3    H158853   4.227   0.885  14.397 -0.3928  0.6603  0.1773
12454TIP3    H258854   4.194   0.957  14.526  1.3836  0.1421  0.9381
12455TIP3   OH258855   3.001   3.376  12.222  0.8922  0.1729 -0.2678
12455TIP3    H158856   3.001   3.300  12.164  0.6179  0.1260 -0.2112
12455TIP3    H258857   2.933   3.433  12.185  0.0967 -0.2487  0.5026
12456TIP3   OH258858   5.727   3.137   3.607 -0.4312 -0.4142  0.1539
12456TIP3    H158859   5.752   3.134   3.514 -2.3813 -0.1466 -0.4015
12456TIP3    H258860   5.683   3.054   3.623  0.0395 -0.5264  0.9012
12457TIP3   OH258861   3.236   1.670  15.239  0.3723  0.3103  0.4415
12457TIP3    H158862   3.193   1.606  15.296 -0.4476  0.7374  0.3086
12457TIP3    H258863   3.264   1.740  15.298  1.9646 -0.5086  0.7017
12458TIP3   OH258864   2.445   6.156  12.825  0.5179  0.3207 -0.5618
12458TIP3    H158865   2.483   6.082  12.873 -0.0560 -0.1400 -0.8100
12458TIP3    H258866   2.515   6.184  12.766  1.2297  0.8916  0.5293
12459TIP3   OH258867   0.318   0.479   1.981 -0.3427 -0.2093  0.0334
12459TIP3    H158868   0.318   0.533   2.060 -0.3045  0.5179 -0.4593
12459TIP3    H258869   0.396   0.423   1.989  0.6932  1.1601 -0.3692
12460TIP3   OH258870   1.697   1.117  14.412 -0.4162  0.3365  0.1801
12460TIP3    H158871   1.793   1.113  14.412 -0.3765  1.2565  1.1901
12460TIP3    H258872   1.669   1.025  14.402  0.5556 -0.1319  1.7422
12461TIP3   OH258873   6.343   0.520   3.169  0.2399 -0.2672  0.4205
12461TIP3    H158874   6.275   0.453   3.174 -0.1957  0.3388  3.0558
12461TIP3    H258875   6.302   0.592   3.121 -0.0236 -1.0001 -0.4683
12462TIP3   OH258876   4.874   6.202  13.116 -0.3357  0.1507  0.5063
12462TIP3    H158877   4.820   6.155  13.052  0.6389 -1.0833  0.5761
12462TIP3    H258878   4.819   6.205  13.195 -0.6870 -0.2357  0.2804
12463TIP3   OH258879   0.851   2.757  17.030  0.4393  0.3360 -0.0082
12463TIP3    H158880   0.854   2.701  16.953  2.7464  0.4152 -0.0087
12463TIP3    H258881   0.767   2.803  17.023  1.2010  1.3663 -3.2183
12464TIP3   OH258882   0.242   3.114   3.436  0.3778  0.2145  0.4306
12464TIP3    H158883   0.151   3.109   3.465  0.3628  0.5183  0.4340
12464TIP3    H258884   0.243   3.068   3.352 -0.0556  1.4222 -0.2443
12465TIP3   OH258885   1.992   2.417   4.610  0.2734  0.2030 -0.0202
12465TIP3    H158886   2.027   2.332   4.637 -1.1301 -1.0398 -1.9453
12465TIP3    H258887   2.053   2.481   4.646  1.2848 -1.6050  1.5972
12466TIP3   OH258888   0.904   2.169   5.434 -0.0210 -0.4206 -0.0434
12466TIP3    H158889   0.984   2.117   5.427  0.8252  1.0693 -1.7464
12466TIP3    H258890   0.866   2.165   5.346 -0.2906  1.2719 -0.0114
12467TIP3   OH258891   6.765   2.834   5.107  0.2455 -0.6366  0.4642
12467TIP3    H158892   6.784   2.922   5.075  2.7172 -1.1180  0.4974
12467TIP3    H258893   6.847   2.805   5.147 -1.0738 -2.2540  2.1019
12468TIP3   OH258894   3.348   0.357   3.172 -0.2667  0.0667  0.4461
12468TIP3    H158895   3.407   0.297   3.218  1.1245  0.3576 -0.9234
12468TIP3    H258896   3.337   0.318   3.085  0.4350  1.6127 -0.3673
12469TIP3   OH258897   0.846   2.979  11.937 -0.2794  0.2786  0.4062
12469TIP3    H158898   0.853   3.017  11.849 -1.1693  0.4315  0.4026
12469TIP3    H258899   0.803   3.046  11.989 -1.3323 -0.4974  0.5422
12470TIP3   OH258900   5.564   3.380   5.727 -0.7303 -0.1897  0.1355
12470TIP3    H158901   5.629   3.337   5.671 -0.3865  2.7791 -1.9264
12470TIP3    H258902   5.616   3.434   5.787 -1.2018 -0.4939  0.8236
12471TIP3   OH258903   1.692   4.412  14.495 -0.2953 -0.3459  0.0400
12471TIP3    H158904   1.641   4.454  14.425 -0.6614  1.4995  1.3770
12471TIP3    H258905   1.782   4.412  14.462 -0.7075 -1.0301 -1.1269
12472TIP3   OH258906   0.393   1.173   1.106  0.0388 -0.3844 -0.3372
12472TIP3    H158907   0.391   1.109   1.178 -0.7821  0.2293  0.2007
12472TIP3    H258908   0.320   1.147   1.050  0.9324 -1.1095 -1.1798
12473TIP3   OH258909   4.427   6.158   4.497 -0.1008 -0.0899  0.2323
12473TIP3    H158910   4.467   6.082   4.538  1.7538 -0.6229 -2.4454
12473TIP3    H258911   4.433   6.227   4.562  0.1131 -1.6615  1.9158
12474TIP3   OH258912   2.343   5.838  13.895  0.2688  0.2730  0.6673
12474TIP3    H158913   2.373   5.806  13.810  0.0252  0.9129  0.3364
12474TIP3    H258914   2.419   5.830  13.952  0.5862  0.3396  0.2527
12475TIP3   OH258915   6.392   0.597  16.874  0.7372 -0.0401  0.2735
12475TIP3    H158916   6.405   0.680  16.921  1.4826 -0.3133  0.5632
12475TIP3    H258917   6.357   0.537  16.940 -0.4846  0.2317 -0.1097
12476TIP3   OH258918   2.539   5.652   3.655  0.0087 -0.3253 -0.0305
12476TIP3    H158919   2.522   5.665   3.748 -1.9034  1.6210 -0.6266
12476TIP3    H258920   2.462   5.606   3.622 -0.4825  1.2500 -1.1297
12477TIP3   OH258921   4.671   3.709  16.978  0.9088 -0.1718  0.2695
12477TIP3    H158922   4.646   3.620  17.005  0.8310 -0.2106  0.0741
12477TIP3    H258923   4.633   3.719  16.890  0.9168  0.0554  0.2917
12478TIP3   OH258924   0.779   5.535  11.066  0.3133 -0.4782  0.3780
12478TIP3    H158925   0.708   5.482  11.029  0.1051  1.2296 -1.7756
12478TIP3    H258926   0.855   5.477  11.064 -0.7937 -2.0466  1.9442
12479TIP3   OH258927   5.147   0.128   6.740  0.2934 -0.4093 -0.3239
12479TIP3    H158928   5.238   0.108   6.717 -0.4848 -2.1406 -2.0015
12479TIP3    H258929   5.113   0.046   6.775 -0.8413  0.0309 -0.3952
12480TIP3   OH258930   2.715   1.614   5.274 -0.0022 -1.0328 -0.2193
12480TIP3    H158931   2.790   1.668   5.298 -0.0106  0.4332 -3.2030
12480TIP3    H258932   2.710   1.547   5.342  0.2658  2.4528  3.3872
12481TIP3   OH258933   6.680   6.216   0.866  0.7816 -0.4013  0.1844
12481TIP3    H158934   6.621   6.157   0.819  1.2630 -1.1248  0.4909
12481TIP3    H258935   6.700   6.285   0.802  0.1499 -0.5185 -0.1428
12482TIP3   OH258936   3.372   6.431   2.578  0.6507 -0.3099 -0.3389
12482TIP3    H158937   3.392   6.424   2.484  0.7519 -1.2672 -0.2530
12482TIP3    H258938   3.458   6.430   2.621  0.5387 -1.5306 -0.1398
12483TIP3   OH258939   1.409   1.550  12.760  0.9067  0.2688 -0.0842
12483TIP3    H158940   1.332   1.606  12.761  1.2110  0.6841  0.1891
12483TIP3    H258941   1.375   1.462  12.742  0.1911  0.2010  1.4755
12484TIP3   OH258942   2.212   6.265  12.658 -0.0285 -0.4147 -0.3993
12484TIP3    H158943   2.291   6.230  12.700  0.6835  0.8606 -0.6723
12484TIP3    H258944   2.144   6.201  12.681  0.5651 -0.3255  1.7913
12485TIP3   OH258945   6.582   4.249  14.378  0.7282  0.2606 -0.0223
12485TIP3    H158946   6.649   4.183  14.360  4.1064  2.7837  2.5881
12485TIP3    H258947   6.533   4.214  14.452  1.8305  0.1922  0.6817
12486TIP3   OH258948   0.891   2.762  16.438  0.4691  0.4238  0.7785
12486TIP3    H158949   0.922   2.681  16.397  0.6587 -0.4044  2.5080
12486TIP3    H258950   0.897   2.827  16.369  1.8128 -0.7036 -0.2099
12487TIP3   OH258951   5.545   5.849   1.423  0.0911  0.1727  0.1766
12487TIP3    H158952   5.498   5.825   1.502  1.5014 -1.9487  0.4034
12487TIP3    H258953   5.637   5.839   1.445  0.6004  1.8996 -1.0153
12488TIP3   OH258954   4.146   3.955  11.661 -0.3151  0.7221  0.2440
12488TIP3    H158955   4.155   3.866  11.628 -0.9682  1.4080 -1.8032
12488TIP3    H258956   4.206   3.959  11.735  3.1169 -0.0803 -2.3940
12489TIP3   OH258957   0.313   2.507   5.279  0.4296 -0.0294  0.3101
12489TIP3    H158958   0.397   2.498   5.325  1.9713  0.0154 -2.4178
12489TIP3    H258959   0.278   2.418   5.277 -0.5995  0.2726  3.2573
12490TIP3   OH258960   3.576   2.328   0.203 -0.5878 -0.1924  0.1392
12490TIP3    H158961   3.486   2.345   0.175 -1.0242 -1.8372  0.4993
12490TIP3    H258962   3.630   2.375   0.140 -1.6345 -1.3148 -1.6470
12491TIP3   OH258963   5.238   0.263   3.900 -0.5180 -0.3346 -0.3640
12491TIP3    H158964   5.258   0.356   3.894  0.4922 -0.4536  0.9244
12491TIP3    H258965   5.249   0.242   3.992  0.1899 -1.9365 -0.7998
12492TIP3   OH258966   5.671   6.387  10.497 -0.1639  0.1948  0.3844
12492TIP3    H158967   5.748   6.415  10.547  0.4442 -1.3445  0.3036
12492TIP3    H258968   5.604   6.372  10.564  0.2654 -0.6225  0.6248
12493TIP3   OH258969   6.276   6.189  17.040 -0.5057 -0.0562 -0.1137
12493TIP3    H158970   6.360   6.144  17.030 -0.6634  0.1571 -2.8724
12493TIP3    H258971   6.266   6.200  17.134  2.0206 -1.0952  0.3308
12494TIP3   OH258972   2.773   6.721  15.189  0.4507 -0.0636 -0.0893
12494TIP3    H158973   2.811   6.714  15.101  0.6372  0.0156 -0.0166
12494TIP3    H258974   2.837   6.677  15.246  0.2220 -0.3126 -0.0248
12495TIP3   OH258975   6.547   2.326   0.218  0.1824 -0.2531 -0.2810
12495TIP3    H158976   6.641   2.332   0.203  0.1223 -0.2817 -0.6812
12495TIP3    H258977   6.538   2.278   0.301  0.5870  2.0493  1.1302
12496TIP3   OH258978   6.675   0.567   2.851  0.2007  0.5705 -0.0550
12496TIP3    H158979   6.651   0.637   2.913 -0.6526 -0.0676  0.3412
12496TIP3    H258980   6.658   0.486   2.899  2.7537  0.0687  0.1032
12497TIP3   OH258981   4.604   3.699   1.368 -0.0581 -0.5247  0.6008
12497TIP3    H158982   4.523   3.750   1.365 -0.9508 -1.9133  0.4290
12497TIP3    H258983   4.668   3.752   1.322 -1.6471 -0.7467 -1.9630
12498TIP3   OH258984   1.842   6.144  12.152 -0.1282  0.5200  0.4969
12498TIP3    H158985   1.757   6.188  12.145 -0.2620  0.1439 -0.3876
12498TIP3    H258986   1.859   6.139  12.246 -2.3890 -1.8312  0.8458
12499TIP3   OH258987   0.365   0.048   2.323  0.0777  0.0313 -0.3818
12499TIP3    H158988   0.331   0.129   2.286  1.0001  0.9823  0.7760
12499TIP3    H258989   0.295   0.015   2.379 -0.1396  0.2766 -0.5126
12500TIP3   OH258990   6.553   0.890   5.225 -0.0271 -0.1262 -0.4778
12500TIP3    H158991   6.614   0.819   5.204  0.9847  0.4365  0.4775
12500TIP3    H258992   6.609   0.968   5.229 -0.6459  0.2346  1.4031
12501TIP3   OH258993   6.128   0.398  13.579 -0.2400 -0.1132  0.0865
12501TIP3    H158994   6.053   0.426  13.632 -0.3788 -1.2402  0.4879
12501TIP3    H258995   6.195   0.374  13.643  0.4886  0.9142 -0.2710
12502TIP3   OH258996   0.889   5.356   0.824 -0.5818 -0.0062  0.2431
12502TIP3    H158997   0.974   5.400   0.827 -0.9380  0.7102  0.0439
12502TIP3    H258998   0.844   5.384   0.903 -0.1724 -1.3458  0.9569
12503TIP3   OH258999   2.795   6.215  14.378  0.6640  0.0683  0.0804
12503TIP3    H159000   2.833   6.138  14.335 -0.0143 -0.4791  0.4497
12503TIP3    H259001   2.865   6.280  14.377  1.1645 -0.4737 -0.4490
12504TIP3   OH259002   0.475   1.473  13.713  0.5995 -0.5884 -0.2525
12504TIP3    H159003   0.506   1.459  13.802  2.1840  3.0039 -0.1468
12504TIP3    H259004   0.542   1.434  13.657  1.3532  0.2004  0.0944
12505TIP3   OH259005   6.064   6.788   4.625  0.4696 -0.1918  0.3272
12505TIP3    H159006   6.145   6.836   4.647 -0.1258  0.7911  0.3997
12505TIP3    H259007   6.070   6.707   4.675  0.8922  0.3738  1.2121
12506TIP3   OH259008   5.009   6.697   6.753  0.0097 -0.1558 -0.2829
12506TIP3    H159009   4.931   6.653   6.719 -0.5412  0.5610  0.0404
12506TIP3    H259010   5.065   6.625   6.784 -1.2623 -0.6026  1.0438
12507TIP3   OH259011   5.880   2.656  14.752 -0.3843  0.0716 -0.0781
12507TIP3    H159012   5.866   2.705  14.833 -1.4304 -0.9060  0.3415
12507TIP3    H259013   5.969   2.621  14.760 -0.6539 -0.4089  0.8586
12508TIP3   OH259014   0.517   1.761  15.642  0.0144  0.0646  0.4232
12508TIP3    H159015   0.603   1.800  15.655 -0.3476  0.5343  1.3948
12508TIP3    H259016   0.471   1.821  15.584  0.5159 -0.4463 -0.5152
12509TIP3   OH259017   6.434   6.011   1.385 -0.3972 -0.2074  0.1747
12509TIP3    H159018   6.480   5.933   1.353 -1.9500 -0.5185 -1.3741
12509TIP3    H259019   6.479   6.084   1.341 -1.1965 -0.4967 -1.1734
12510TIP3   OH259020   0.478   4.332   0.905  0.2825  0.1010  0.2670
12510TIP3    H159021   0.553   4.348   0.962 -0.6709 -0.4605  1.7096
12510TIP3    H259022   0.419   4.406   0.921  0.8611  0.9586 -1.4508
12511TIP3   OH259023   0.014   5.582  16.354 -0.1504  0.6814  0.0839
12511TIP3    H159024  -0.022   5.614  16.271 -0.2380  0.6463  0.1089
12511TIP3    H259025   0.046   5.660  16.398 -1.3159  0.8730  0.6068
12512TIP3   OH259026   4.615   3.833   2.160  0.2332  0.1920 -0.1177
12512TIP3    H159027   4.595   3.877   2.242  1.9809 -0.6182  0.7646
12512TIP3    H259028   4.694   3.876   2.128  1.3787 -1.6107  0.2392
12513TIP3   OH259029   4.189   5.455   2.620 -0.6450 -0.1347 -0.1474
12513TIP3    H159030   4.143   5.378   2.586  1.3613 -0.9425 -1.0841
12513TIP3    H259031   4.119   5.517   2.641 -2.2947 -2.1794  0.5929
12514TIP3   OH259032   5.174   6.342  13.388 -0.0114 -0.5003  0.3082
12514TIP3    H159033   5.206   6.267  13.338  0.4288  0.2412 -0.5319
12514TIP3    H259034   5.121   6.392  13.325  3.0811  2.1147 -0.3447
12515TIP3   OH259035   1.426   2.345  12.720 -0.2402  0.3833 -0.5503
12515TIP3    H159036   1.396   2.419  12.773 -1.7242 -0.2172 -0.5538
12515TIP3    H259037   1.493   2.303  12.773 -1.5404 -0.0620  0.7406
12516TIP3   OH259038   5.900   6.093  11.460 -0.3787 -0.1758  0.0989
12516TIP3    H159039   5.890   6.098  11.365  0.2626 -0.3767  0.0216
12516TIP3    H259040   5.894   5.999  11.480 -2.2732 -0.0017  0.4531
12517TIP3   OH259041   3.728   5.037   1.364 -0.1808 -0.4110  0.0029
12517TIP3    H159042   3.725   5.124   1.403 -2.0976 -0.6863  0.5462
12517TIP3    H259043   3.816   5.004   1.385  0.3776  1.1871  0.2225
12518TIP3   OH259044   1.176   3.331   4.263 -0.0087 -0.6723 -0.2370
12518TIP3    H159045   1.206   3.354   4.175 -1.1355 -0.4667 -0.5756
12518TIP3    H259046   1.211   3.401   4.319 -0.2986 -0.1535 -0.7000
12519TIP3   OH259047   0.688   2.386  12.346 -0.5028 -0.0581 -0.4283
12519TIP3    H159048   0.740   2.348  12.417 -1.2825  0.9873  0.7367
12519TIP3    H259049   0.741   2.459  12.313 -0.9089  0.5798  0.3024
12520TIP3   OH259050   5.196   1.284  13.011 -0.1368 -0.0206 -0.0469
12520TIP3    H159051   5.291   1.295  13.014 -0.1052 -0.6580  1.5304
12520TIP3    H259052   5.174   1.292  12.918  1.1909  2.1990 -0.2017
12521TIP3   OH259053   2.832   2.135  13.169 -0.5248 -0.1897 -0.1260
12521TIP3    H159054   2.768   2.200  13.199  0.0680 -0.2501  1.3178
12521TIP3    H259055   2.810   2.056  13.219 -0.0898 -0.5679 -0.5335
12522TIP3   OH259056   1.761   1.205   3.477 -0.0921 -0.3233 -0.6213
12522TIP3    H159057   1.844   1.201   3.524  0.4962  0.3528 -1.5945
12522TIP3    H259058   1.720   1.120   3.492  0.2374 -0.2248  0.8435
12523TIP3   OH259059   6.434   0.297   4.618  0.1560 -0.0914  0.7056
12523TIP3    H159060   6.517   0.271   4.658  0.1435 -1.5967 -0.1837
12523TIP3    H259061   6.439   0.262   4.529 -0.4994  1.7742 -0.0742
12524TIP3   OH259062   3.138   5.423  11.790 -0.5406  0.4051  0.0791
12524TIP3    H159063   3.090   5.345  11.761 -1.1709  0.4867  0.8758
12524TIP3    H259064   3.091   5.452  11.868  0.6468  0.6456  0.7237
12525TIP3   OH259065   4.494   2.681   4.864 -0.5878  0.2911  0.1282
12525TIP3    H159066   4.441   2.610   4.828 -0.3318  1.1203 -1.9047
12525TIP3    H259067   4.585   2.655   4.846 -0.4605  0.7513  0.1121
12526TIP3   OH259068   2.442   4.423   2.279  0.3369  0.6821  0.1721
12526TIP3    H159069   2.349   4.418   2.258 -0.2222  1.7074  2.2390
12526TIP3    H259070   2.458   4.517   2.292  1.3572  0.3873  1.0651
12527TIP3   OH259071   6.621   2.945   1.432 -0.1688  0.1816  0.8052
12527TIP3    H159072   6.569   2.914   1.357  1.8137 -0.5672 -0.2869
12527TIP3    H259073   6.582   3.029   1.455  0.2204  1.1907 -2.0963
12528TIP3   OH259074   3.836   6.645   1.470  0.0081  0.0103  0.9612
12528TIP3    H159075   3.900   6.712   1.448  2.6436 -2.5341  0.5051
12528TIP3    H259076   3.836   6.586   1.394 -2.1629 -0.5688  1.3809
12529TIP3   OH259077   3.140   1.641  15.628 -0.3554 -0.3238 -0.4233
12529TIP3    H159078   3.109   1.585  15.699  1.1265 -1.8888 -0.9735
12529TIP3    H259079   3.079   1.714  15.627 -1.2784 -1.0290  1.4823
12530TIP3   OH259080   3.761   1.191   6.286 -0.2492 -0.2764  0.3371
12530TIP3    H159081   3.759   1.265   6.225  0.9846 -1.2879 -0.9558
12530TIP3    H259082   3.855   1.178   6.304 -0.1935 -3.5557 -1.9518
12531TIP3   OH259083   6.700   2.323   1.230  0.0161  0.2514 -0.1571
12531TIP3    H159084   6.701   2.269   1.309  0.7233 -0.3397 -0.5683
12531TIP3    H259085   6.618   2.299   1.186  0.9738 -1.4915 -1.0217
12532TIP3   OH259086   0.207   2.254   0.625 -0.3761  0.7379  0.6765
12532TIP3    H159087   0.197   2.184   0.560  0.9567  0.4213  0.7991
12532TIP3    H259088   0.189   2.334   0.575  2.5028  0.6489 -0.5846
12533TIP3   OH259089   3.588   0.416   4.461 -0.3723  0.7077  0.1286
12533TIP3    H159090   3.626   0.424   4.548  0.0891 -0.4877  0.0534
12533TIP3    H259091   3.493   0.419   4.474 -0.3010  0.5061  0.6780
12534TIP3   OH259092   3.733   3.101  16.443 -0.2287 -0.3255 -0.0108
12534TIP3    H159093   3.823   3.114  16.412  0.3227 -1.6780  0.9960
12534TIP3    H259094   3.742   3.070  16.533 -1.7658  1.2864  0.7403
12535TIP3   OH259095   5.356   3.419   0.873  0.3423  0.2547  0.3361
12535TIP3    H159096   5.263   3.397   0.864  0.4234  0.0130  0.0922
12535TIP3    H259097   5.387   3.429   0.783  0.1498  2.0377  0.4388
12536TIP3   OH259098   6.425   5.930  15.588  0.4777 -0.2738  0.3215
12536TIP3    H159099   6.519   5.938  15.604  0.1771  2.8294  0.9320
12536TIP3    H259100   6.414   5.954  15.496  0.0739  1.7448  0.8647
12537TIP3   OH259101   0.005   5.304  17.074  0.1405 -0.2451 -0.1408
12537TIP3    H159102  -0.082   5.326  17.107 -0.4213  0.6866 -2.1579
12537TIP3    H259103   0.035   5.384  17.032  1.1530 -1.1611 -1.1789
12538TIP3   OH259104   0.209   1.901  13.631 -0.8203 -0.0049 -0.2582
12538TIP3    H159105   0.195   1.920  13.538  1.3553  2.4555 -0.1666
12538TIP3    H259106   0.287   1.845  13.633  0.3904  1.6391  0.1334
12539TIP3   OH259107   3.299   3.506  11.413 -0.2454  0.1669  0.6140
12539TIP3    H159108   3.259   3.495  11.327  0.8764  0.6459  0.0121
12539TIP3    H259109   3.389   3.475  11.401  0.3091  1.5123  1.2571
12540TIP3   OH259110   1.802   2.744  14.538  0.6042 -0.0075 -0.3610
12540TIP3    H159111   1.824   2.794  14.460 -2.2640 -1.5070 -2.2123
12540TIP3    H259112   1.852   2.663  14.530  3.0783  1.2919  1.2328
12541TIP3   OH259113   1.868   0.367  11.491 -0.5658 -0.4510  0.1761
12541TIP3    H159114   1.856   0.305  11.418  0.7798  0.6802 -1.0328
12541TIP3    H259115   1.941   0.332  11.541  0.7941  0.6020 -1.0258
12542TIP3   OH259116   2.248   2.953   1.091 -0.1246 -0.3609 -0.2090
12542TIP3    H159117   2.193   2.880   1.119  0.1868 -0.4075  0.2702
12542TIP3    H259118   2.214   3.028   1.140  1.6944 -0.8106  1.8165
12543TIP3   OH259119   2.081   1.695   6.759  0.5011 -0.0171  0.3426
12543TIP3    H159120   1.993   1.710   6.792  0.7350  0.9047  0.5707
12543TIP3    H259121   2.086   1.749   6.680  1.2199  0.8003  0.9361
12544TIP3   OH259122   5.998   1.822   4.151 -0.4655  0.0465 -0.3999
12544TIP3    H159123   6.085   1.838   4.114 -1.1481 -0.8987 -2.4543
12544TIP3    H259124   6.014   1.816   4.246  1.7233 -0.1929 -0.7510
12545TIP3   OH259125   1.892   2.693  13.120 -0.2903  0.2990  0.2191
12545TIP3    H159126   1.802   2.718  13.143 -0.3932 -1.4881  2.0015
12545TIP3    H259127   1.884   2.651  13.035 -1.2020 -0.0228  0.4528
12546TIP3   OH259128   6.245   6.694   2.047  0.2018 -0.0201  0.2538
12546TIP3    H159129   6.204   6.609   2.035  3.3817 -1.0429 -5.1964
12546TIP3    H259130   6.319   6.678   2.104  0.0260 -0.6279  0.3116
12547TIP3   OH259131   1.716   5.043   2.393  0.3007 -0.0634 -0.4467
12547TIP3    H159132   1.745   4.997   2.472 -0.7312 -0.8904 -0.5412
12547TIP3    H259133   1.702   5.133   2.421 -0.4655 -0.4469  0.4184
12548TIP3   OH259134   3.450   4.408   0.274 -0.0289 -0.2320  0.1749
12548TIP3    H159135   3.434   4.327   0.227  0.0856  0.8104 -1.7304
12548TIP3    H259136   3.392   4.472   0.233  0.9629  0.9995  0.6331
12549TIP3   OH259137   4.915   0.346   2.696  0.0644 -0.4384 -0.0311
12549TIP3    H159138   4.877   0.431   2.719 -0.2680 -1.0215  1.6637
12549TIP3    H259139   4.965   0.363   2.616 -2.2447  0.7633 -1.3110
12550TIP3   OH259140   1.724   3.766   3.332 -0.1299  0.0172 -0.2928
12550TIP3    H159141   1.701   3.829   3.263 -0.4313  0.1813 -0.0417
12550TIP3    H259142   1.647   3.709   3.339 -0.2887  0.3022  0.2518
12551TIP3   OH259143   4.010   3.636   2.520  0.5758  0.7433  0.1477
12551TIP3    H159144   4.063   3.716   2.523 -1.2790  1.9750  0.5433
12551TIP3    H259145   3.939   3.651   2.582 -1.0314 -0.3261 -1.3770
12552TIP3   OH259146   0.985   6.818   4.368  0.1927 -0.3598 -0.1960
12552TIP3    H159147   0.890   6.826   4.373  0.2107  0.0304 -0.3829
12552TIP3    H259148   1.000   6.734   4.326 -0.0392 -1.0503  1.0950
12553TIP3   OH259149   1.064   5.912  13.032  0.5129 -0.2173  0.1355
12553TIP3    H159150   1.017   5.873  13.105  0.0418  2.0564  1.1098
12553TIP3    H259151   1.019   5.879  12.954 -1.9946  0.9342  1.0221
12554TIP3   OH259152   1.343   6.035  13.959  0.5733  0.6869  0.2635
12554TIP3    H159153   1.291   6.054  14.037  1.8113 -2.0454  1.8398
12554TIP3    H259154   1.407   5.970  13.988  1.5982  0.2076 -2.8508
12555TIP3   OH259155   2.186   2.343  14.488 -0.3084  0.9597 -0.0888
12555TIP3    H159156   2.173   2.302  14.574 -0.9053  0.9817 -0.1593
12555TIP3    H259157   2.097   2.350  14.452  0.0261  0.1743 -1.0745
12556TIP3   OH259158   6.084   1.766  13.209 -0.0883 -0.3704 -0.1933
12556TIP3    H159159   6.160   1.805  13.253  0.5919  0.3078 -1.9293
12556TIP3    H259160   6.119   1.688  13.166 -0.3136  0.0903 -1.2169
12557TIP3   OH259161   1.821   4.260  11.063 -0.6824 -0.0006 -0.2185
12557TIP3    H159162   1.907   4.256  11.022 -0.6855  1.7689 -0.4080
12557TIP3    H259163   1.833   4.221  11.150  0.5405  1.1669  0.1472
12558TIP3   OH259164   5.763   0.995   1.824  0.8135 -0.9033 -0.2372
12558TIP3    H159165   5.794   1.067   1.769  0.9559  0.9297  2.1876
12558TIP3    H259166   5.698   0.950   1.770  0.4670  1.2309 -1.6444
12559TIP3   OH259167   4.773   3.508  13.100  0.4902 -0.1427 -0.0874
12559TIP3    H159168   4.849   3.566  13.102  0.4072 -0.0303 -0.1397
12559TIP3    H259169   4.709   3.555  13.046 -0.0630  0.3172  0.9649
12560TIP3   OH259170   0.602   6.206   1.699 -0.7128  0.4287  0.0571
12560TIP3    H159171   0.624   6.258   1.622  0.9366  0.9702  0.8549
12560TIP3    H259172   0.571   6.271   1.763  1.7282  0.5442  1.1928
12561TIP3   OH259173   0.256   5.496   3.590 -0.4357 -0.0900  0.0756
12561TIP3    H159174   0.192   5.491   3.661 -0.2872  0.8588  0.2851
12561TIP3    H259175   0.224   5.434   3.525 -0.6814 -0.8223  0.8841
12562TIP3   OH259176   3.668   2.909   1.168  0.1150 -0.4737  0.0539
12562TIP3    H159177   3.632   2.932   1.083  0.7128  1.8344  0.3871
12562TIP3    H259178   3.603   2.940   1.231 -0.1160 -1.7552  0.4511
12563TIP3   OH259179   2.446   0.497   4.207 -0.2719  0.4526 -0.4717
12563TIP3    H159180   2.533   0.534   4.220 -0.4301  0.4523  0.6667
12563TIP3    H259181   2.390   0.572   4.190 -0.5383  0.7454  1.5374
12564TIP3   OH259182   5.733   4.903   4.838 -0.8033 -0.5859  0.0357
12564TIP3    H159183   5.672   4.880   4.768 -1.8982 -0.9333  1.1039
12564TIP3    H259184   5.713   4.994   4.859 -0.6031 -0.5433  0.0491
12565TIP3   OH259185   1.926   2.175  13.897  0.5785  0.1914 -0.5998
12565TIP3    H159186   1.881   2.236  13.956  1.1863  0.8298 -0.7945
12565TIP3    H259187   1.858   2.111  13.873  0.3613 -0.1638  0.9082
12566TIP3   OH259188   1.444   0.750   5.066  0.0009  0.1787 -0.0766
12566TIP3    H159189   1.523   0.716   5.108 -0.5665 -1.4755 -0.3016
12566TIP3    H259190   1.461   0.843   5.054  1.9292 -0.1689 -0.1685
12567TIP3   OH259191   1.876   0.722  15.954  0.0422 -0.5851  0.0326
12567TIP3    H159192   1.821   0.649  15.981  0.4171 -0.8199  0.1686
12567TIP3    H259193   1.827   0.801  15.979 -1.4022 -0.7509 -2.1710
12568TIP3   OH259194   0.294   2.827  11.283 -0.7904 -0.1250  0.1555
12568TIP3    H159195   0.345   2.837  11.363 -0.8255 -2.4022  0.4912
12568TIP3    H259196   0.204   2.844  11.310 -0.6338  0.4688  0.3044
12569TIP3   OH259197   6.258   2.416   1.854 -0.1306 -0.2755  0.3996
12569TIP3    H159198   6.187   2.453   1.801  0.2416  0.6766  0.5572
12569TIP3    H259199   6.215   2.349   1.908 -0.1348 -2.9278 -2.7185
12570TIP3   OH259200   2.561   0.241  14.517 -0.6206  0.6699  0.1606
12570TIP3    H159201   2.591   0.260  14.606 -0.7000  1.7680 -0.0318
12570TIP3    H259202   2.507   0.162  14.526 -0.1588  0.4436  0.9905
12571TIP3   OH259203   0.684   2.330  10.868 -0.4796 -0.3373 -0.0849
12571TIP3    H159204   0.648   2.350  10.954 -3.0680 -3.7355 -0.2762
12571TIP3    H259205   0.761   2.276  10.886  0.3662  0.9106  0.1202
12572TIP3   OH259206   5.929   0.544   5.470 -0.2841  0.1856 -0.0673
12572TIP3    H159207   5.916   0.554   5.565 -0.7934  0.0441 -0.1208
12572TIP3    H259208   6.023   0.531   5.460 -0.2823 -0.2263  0.4582
12573TIP3   OH259209   0.822   5.123  12.855 -0.8745  0.1631  0.4658
12573TIP3    H159210   0.917   5.112  12.848 -0.9618 -0.8729  0.8437
12573TIP3    H259211   0.794   5.147  12.767 -0.2596  0.4941  0.3573
12574TIP3   OH259212   6.637   2.647   2.763 -0.2619  0.0551 -0.4395
12574TIP3    H159213   6.617   2.740   2.770 -1.2850 -0.2460  1.1790
12574TIP3    H259214   6.585   2.616   2.689  0.4659  0.8607 -1.2912
12575TIP3   OH259215   2.454   6.256  16.206  0.4187 -0.8987 -0.3161
12575TIP3    H159216   2.474   6.276  16.297  1.5781 -0.4037 -0.6691
12575TIP3    H259217   2.358   6.256  16.201  0.3680  0.4408  0.5921
12576TIP3   OH259218   3.861   1.058   0.203  0.2060  0.1650 -0.2445
12576TIP3    H159219   3.843   1.090   0.291 -1.6274 -1.2608 -0.0640
12576TIP3    H259220   3.846   1.134   0.146 -1.3499  0.3884  0.4357
12577TIP3   OH259221   6.524   5.189  16.357 -0.0265  0.0017 -0.0393
12577TIP3    H159222   6.498   5.129  16.287 -0.3216  0.3224 -0.2100
12577TIP3    H259223   6.606   5.153  16.391  0.0392 -0.2444 -0.4481
12578TIP3   OH259224   4.375   5.590  13.576  0.4780  0.0103 -0.4332
12578TIP3    H159225   4.366   5.527  13.504  3.1317  0.9376 -1.6215
12578TIP3    H259226   4.414   5.668  13.536  1.3172  0.8283  1.8743
12579TIP3   OH259227   6.705   3.707   1.480  0.1328  0.1696 -0.5789
12579TIP3    H159228   6.635   3.733   1.540 -0.0051  1.8772 -1.4380
12579TIP3    H259229   6.710   3.779   1.417  0.1226 -1.6742 -2.7333
12580TIP3   OH259230   3.263   2.701  14.462 -0.2789 -0.2902  0.1816
12580TIP3    H159231   3.328   2.767  14.485 -0.4007 -0.0470 -0.1750
12580TIP3    H259232   3.309   2.644  14.400  0.3375 -1.4587  1.6628
12581TIP3   OH259233   0.472   5.590   6.665  0.5882 -0.1841 -0.2334
12581TIP3    H159234   0.561   5.622   6.679  0.9025 -0.8463 -0.7020
12581TIP3    H259235   0.479   5.528   6.593 -0.7848  2.0507 -2.3815
12582TIP3   OH259236   4.778   6.000  15.572 -0.3678 -0.3234  0.4598
12582TIP3    H159237   4.817   6.033  15.491 -3.1302  2.0993  0.0501
12582TIP3    H259238   4.852   5.996  15.633  0.9785  2.0096 -0.9172
12583TIP3   OH259239   0.335   0.554   5.793 -0.0282 -0.0606  0.5687
12583TIP3    H159240   0.251   0.599   5.806 -0.0353 -0.4706  2.0659
12583TIP3    H259241   0.395   0.623   5.765 -1.5483 -0.2774 -3.6388
12584TIP3   OH259242   0.788   4.101   3.661 -0.4562  0.0766 -0.5689
12584TIP3    H159243   0.751   4.017   3.634  1.0525 -1.0311  0.7531
12584TIP3    H259244   0.847   4.125   3.589  0.7877 -1.0937  0.0353
12585TIP3   OH259245   2.505   5.311  10.360  0.1718 -0.1924 -0.5467
12585TIP3    H159246   2.420   5.271  10.340  1.0427 -2.2312 -0.2959
12585TIP3    H259247   2.530   5.272  10.444  0.9080  1.1579 -0.1290
12586TIP3   OH259248   5.953   2.526   3.410  0.7407  0.1150  0.6388
12586TIP3    H159249   5.977   2.617   3.431 -0.6437  0.4950  0.6200
12586TIP3    H259250   5.913   2.493   3.490 -0.9211  0.2865 -0.1111
12587TIP3   OH259251   1.768   5.147  13.515  0.0040 -0.3182  0.3140
12587TIP3    H159252   1.768   5.239  13.540  0.0903 -0.5070  0.9998
12587TIP3    H259253   1.711   5.144  13.437  0.2339  0.3555  0.1157
12588TIP3   OH259254   0.782   4.410  10.767  0.1438 -0.7756  0.1338
12588TIP3    H159255   0.762   4.439  10.678 -1.0212  1.0590  0.9524
12588TIP3    H259256   0.811   4.490  10.812  0.1588 -1.5641  1.5514
12589TIP3   OH259257   2.174   4.009   5.514  0.5365 -0.1256  0.8518
12589TIP3    H159258   2.268   4.019   5.497  0.5656 -1.7470  0.0312
12589TIP3    H259259   2.144   3.945   5.449 -0.8356 -0.7979  2.1204
12590TIP3   OH259260   0.880   3.750   0.385 -0.2269 -0.3363 -0.1227
12590TIP3    H159261   0.842   3.837   0.372 -0.3907 -0.0731  1.9017
12590TIP3    H259262   0.840   3.719   0.467  0.2840 -2.0615 -0.5109
12591TIP3   OH259263   4.160   2.107  16.401  0.5553 -0.4445 -0.6239
12591TIP3    H159264   4.107   2.099  16.322  1.1605 -1.0537 -0.9740
12591TIP3    H259265   4.105   2.156  16.462 -0.3462 -0.9287 -1.0334
12592TIP3   OH259266   1.078   5.799   0.852  0.2042 -0.2433 -0.2227
12592TIP3    H159267   0.995   5.785   0.807  0.4823 -0.6807 -0.5930
12592TIP3    H259268   1.144   5.759   0.795  0.4455 -1.6835  1.0546
12593TIP3   OH259269   2.971   0.382  11.894  0.2459 -0.1054 -0.0865
12593TIP3    H159270   2.921   0.459  11.870  1.6627  1.1004  0.7652
12593TIP3    H259271   2.980   0.387  11.989 -0.8725 -2.0919  0.1559
12594TIP3   OH259272   6.360   1.707   0.558  0.0742  0.2200  0.5165
12594TIP3    H159273   6.373   1.771   0.627  1.5304  3.2733 -2.4923
12594TIP3    H259274   6.446   1.667   0.545 -0.2368 -0.4763  0.5473
12595TIP3   OH259275   1.972   1.218  11.868  0.3338 -0.6229 -0.5599
12595TIP3    H159276   2.004   1.188  11.783 -0.9269 -0.6785 -1.0220
12595TIP3    H259277   1.911   1.289  11.847 -0.5907 -1.1692  0.2531
12596TIP3   OH259278   3.299   1.603   0.011  0.4412 -0.2083  0.6186
12596TIP3    H159279   3.270   1.515   0.033  2.2735 -0.5797  1.6318
12596TIP3    H259280   3.231   1.660   0.048  0.6089 -1.0852  2.3498
12597TIP3   OH259281   1.570   3.237  14.299  0.3131  0.3389  0.6612
12597TIP3    H159282   1.572   3.181  14.221 -2.0470 -0.0390  0.8390
12597TIP3    H259283   1.568   3.326  14.264 -1.2374  0.1627  0.2544
12598TIP3   OH259284   1.814   6.456  16.826  0.2413  0.2839  0.1875
12598TIP3    H159285   1.866   6.507  16.888  1.6841 -0.9602  0.0379
12598TIP3    H259286   1.744   6.419  16.878  1.5263 -0.8765  1.1203
12599TIP3   OH259287   3.501   6.098   5.841  0.4586  0.0984 -0.1325
12599TIP3    H159288   3.458   6.172   5.797 -0.9765 -0.1677  0.8117
12599TIP3    H259289   3.471   6.021   5.793  0.9864  0.0152 -0.3368
12600TIP3   OH259290   2.475   5.968  13.125 -0.3460 -0.4135  0.2273
12600TIP3    H159291   2.525   5.996  13.202  0.4725  0.2581 -0.5326
12600TIP3    H259292   2.538   5.971  13.053 -1.5374  0.6979 -0.7955
12601TIP3   OH259293   4.109   4.389   0.187 -0.3914 -0.0433  0.2366
12601TIP3    H159294   4.194   4.380   0.146  0.7948  2.8436  1.8977
12601TIP3    H259295   4.125   4.443   0.265 -3.4600 -0.7292  1.4457
12602TIP3   OH259296   3.743   2.366  15.789 -0.3020 -0.1597  0.4073
12602TIP3    H159297   3.795   2.428  15.840 -2.3481  1.1412  0.9946
12602TIP3    H259298   3.741   2.404  15.701  1.5846 -1.3896 -0.2042
12603TIP3   OH259299   5.931   1.493  11.907  0.2998  0.0614 -0.4551
12603TIP3    H159300   5.893   1.553  11.971  0.7808 -0.4226  0.2754
12603TIP3    H259301   6.001   1.544  11.865  1.9540 -0.5809  1.4619
12604TIP3   OH259302   6.247   6.078  12.614  0.6989  0.4457 -0.1747
12604TIP3    H159303   6.285   6.066  12.527 -0.5454 -1.0041 -0.5414
12604TIP3    H259304   6.198   6.160  12.608 -0.6866 -0.4347 -1.3470
12605TIP3   OH259305   4.799   0.191   4.633 -0.3504  0.1392 -0.1525
12605TIP3    H159306   4.840   0.126   4.689  0.8176  0.3169 -0.7632
12605TIP3    H259307   4.823   0.165   4.544 -2.1479 -0.1232 -0.5757
12606TIP3   OH259308   5.508   3.463  16.161 -0.0285 -0.2798 -0.7568
12606TIP3    H159309   5.541   3.431  16.244 -1.2631  1.1283  0.3106
12606TIP3    H259310   5.413   3.449  16.166 -0.1513  0.1492 -1.7562
12607TIP3   OH259311   2.942   3.006   0.461 -0.3954 -0.6380 -0.4571
12607TIP3    H159312   2.924   2.917   0.433  2.6626 -1.5172  0.2868
12607TIP3    H259313   3.009   2.998   0.528 -0.2507  2.2033 -0.1907
12608TIP3   OH259314   5.910   1.882  14.278  0.6142  0.0396  0.4587
12608TIP3    H159315   5.855   1.827  14.224 -2.1577  2.2925  0.8602
12608TIP3    H259316   5.956   1.821  14.336  1.3376 -2.1458 -2.3205
12609TIP3   OH259317   4.257   6.008  13.811  0.1140 -0.1535  0.1118
12609TIP3    H159318   4.235   6.021  13.718 -4.7534  1.8039  1.4043
12609TIP3    H259319   4.226   5.920  13.831  0.5637 -0.3256  0.0567
12610TIP3   OH259320   5.118   3.053  12.881  0.2154 -0.6672  0.1718
12610TIP3    H159321   5.187   2.991  12.855 -0.6005 -1.1883 -0.7551
12610TIP3    H259322   5.062   3.061  12.804 -0.3327  0.3622  0.6642
12611TIP3   OH259323   5.054   5.373   2.994 -0.2683 -0.2359  0.2208
12611TIP3    H159324   5.084   5.282   2.992 -0.5779 -0.3415  0.5095
12611TIP3    H259325   4.985   5.375   3.060 -0.0388  0.2778  0.4489
12612TIP3   OH259326   4.948   5.864  12.002 -0.2805  0.3434  0.3253
12612TIP3    H159327   5.001   5.931  11.957  1.0599 -0.2756  0.9360
12612TIP3    H259328   5.006   5.830  12.070 -2.1247  0.9199  2.2169
12613TIP3   OH259329   5.782   5.847   6.069  0.4187 -0.5762  0.3290
12613TIP3    H159330   5.794   5.854   5.974  0.7396  0.3453  0.4276
12613TIP3    H259331   5.747   5.759   6.083 -2.6142  0.3678 -0.9492
12614TIP3   OH259332   4.172   3.677   2.819 -0.5482  0.4107 -0.1611
12614TIP3    H159333   4.240   3.675   2.751 -0.6410  0.2638 -0.2487
12614TIP3    H259334   4.220   3.667   2.901 -0.4766  0.1531 -0.2331
12615TIP3   OH259335   5.969   2.656   0.516 -0.5811  0.2962  0.2161
12615TIP3    H159336   5.935   2.736   0.476  0.1860  0.4481 -0.1413
12615TIP3    H259337   6.032   2.623   0.452  0.9923  0.7883  1.4999
12616TIP3   OH259338   4.644   2.723   1.053 -0.0178  0.5531  0.0803
12616TIP3    H159339   4.625   2.779   0.978 -1.8632  1.2972  1.0759
12616TIP3    H259340   4.733   2.690   1.036 -0.6146  0.2363 -2.6953
12617TIP3   OH259341   6.629   4.414  13.801  0.6676  0.3709  0.0585
12617TIP3    H159342   6.540   4.449  13.800  0.7051  0.5160  1.1993
12617TIP3    H259343   6.642   4.383  13.891  1.1738 -1.1861 -0.5346
12618TIP3   OH259344   1.019   3.806   3.675 -0.1399 -0.5461  0.2688
12618TIP3    H159345   1.078   3.881   3.676  1.5596 -1.8156  3.3902
12618TIP3    H259346   0.932   3.843   3.689  0.5262  0.9524  0.5026
12619TIP3   OH259347   1.611   2.586   4.456 -0.0880  0.0107  0.1941
12619TIP3    H159348   1.682   2.536   4.416 -1.2359  0.0548 -1.9699
12619TIP3    H259349   1.655   2.646   4.517  1.8405  0.8258 -1.9198
12620TIP3   OH259350   3.128   1.014   2.223 -0.0302  0.2354  0.3471
12620TIP3    H159351   3.081   0.985   2.301  0.6131 -0.7158  0.4014
12620TIP3    H259352   3.213   1.045   2.256 -0.5990  1.9392  0.2549
12621TIP3   OH259353   2.755   4.889   5.571 -0.1248  0.4867 -0.1975
12621TIP3    H159354   2.804   4.806   5.574 -2.0294 -0.6513  0.4289
12621TIP3    H259355   2.822   4.955   5.554  1.8595 -0.8380  2.0174
12622TIP3   OH259356   2.007   6.049   1.470 -0.8410 -0.0769  0.1731
12622TIP3    H159357   1.963   6.027   1.552 -1.7045 -0.1567 -0.3098
12622TIP3    H259358   1.958   6.002   1.403 -1.7852  2.1050 -0.6974
12623TIP3   OH259359   4.494   4.967  12.554 -0.0164 -0.0352 -0.0113
12623TIP3    H159360   4.495   5.025  12.478 -1.1464  0.5187  0.3886
12623TIP3    H259361   4.563   5.002  12.611 -0.2961  0.5708 -0.0352
12624TIP3   OH259362   0.511   2.467   2.898 -0.2760  0.7786  0.4093
12624TIP3    H159363   0.594   2.443   2.938  0.2189  2.2393  0.2809
12624TIP3    H259364   0.480   2.541   2.951 -1.5767  0.1330  0.5718
12625TIP3   OH259365   5.324   2.130  12.180 -0.0026  0.3572  0.0513
12625TIP3    H159366   5.382   2.132  12.104 -0.2385  0.2222 -0.1318
12625TIP3    H259367   5.316   2.037  12.201  0.1347  0.3996  0.2997
12626TIP3   OH259368   5.846   2.544   2.226 -0.3035 -0.1342 -0.1935
12626TIP3    H159369   5.793   2.464   2.229 -1.0189  0.3240 -0.4908
12626TIP3    H259370   5.789   2.613   2.258  0.2456  0.2984 -0.1309
12627TIP3   OH259371   0.028   1.504   1.086 -0.2549  0.1463  0.4546
12627TIP3    H159372   0.043   1.576   1.147  0.2210  1.8338 -1.5725
12627TIP3    H259373   0.102   1.445   1.099 -1.6970 -1.0829  3.5700
12628TIP3   OH259374   0.673   5.425  16.782  0.0945 -0.1939 -0.1220
12628TIP3    H159375   0.587   5.467  16.788  0.0792 -0.5161  2.5190
12628TIP3    H259376   0.665   5.365  16.708 -2.4769 -1.3058  1.0010
12629TIP3   OH259377   6.209   5.035  15.210  0.0287 -0.2208  0.0843
12629TIP3    H159378   6.167   5.114  15.178  0.3529  0.1238  0.5143
12629TIP3    H259379   6.188   5.032  15.303 -1.6787 -1.7014 -0.3073
12630TIP3   OH259380   2.374   3.457   2.718  0.2012 -0.4620 -0.2828
12630TIP3    H159381   2.349   3.406   2.641 -1.3469  0.0414 -0.1492
12630TIP3    H259382   2.303   3.521   2.728  0.1375 -0.8163  1.8303
12631TIP3   OH259383   4.747   1.503   2.552  0.6541 -0.1460 -0.1458
12631TIP3    H159384   4.695   1.580   2.579  0.7066 -0.1086 -0.1507
12631TIP3    H259385   4.685   1.430   2.556 -0.2242  0.3713 -3.0808
12632TIP3   OH259386   1.557   0.022   2.003 -0.1962  0.2212 -0.0845
12632TIP3    H159387   1.569  -0.036   2.079  0.3573  0.4680  0.0195
12632TIP3    H259388   1.533   0.106   2.041  3.3249  1.2574  0.0329
12633TIP3   OH259389   2.862   5.972  13.027 -0.3242  0.2426 -0.1039
12633TIP3    H159390   2.932   6.024  12.987 -0.9006  1.4710  0.4685
12633TIP3    H259391   2.791   6.034  13.041 -1.4767 -0.9690 -0.5197
12634TIP3   OH259392   6.211   2.154  14.204  0.2558 -0.3323  0.5333
12634TIP3    H159393   6.205   2.089  14.134 -0.5681 -0.3327  0.6029
12634TIP3    H259394   6.293   2.200  14.186  0.1348 -0.4433 -0.3323
12635TIP3   OH259395   5.396   1.903   1.478 -0.3651  0.0285  0.1871
12635TIP3    H159396   5.325   1.933   1.536  0.4677 -0.3823  1.4375
12635TIP3    H259397   5.360   1.912   1.390 -0.5843  3.6150  0.5557
12636TIP3   OH259398   1.538   2.034  16.387 -0.3528  0.0978  0.8493
12636TIP3    H159399   1.480   1.968  16.349  2.7939 -1.3011 -1.8044
12636TIP3    H259400   1.513   2.116  16.346 -0.0547 -0.6080 -0.7556
12637TIP3   OH259401   2.053   0.931   1.887  0.5546  0.0892  0.5881
12637TIP3    H159402   2.130   0.962   1.935  1.4902  0.4223 -1.0610
12637TIP3    H259403   2.063   0.836   1.885  0.6461  0.0934  0.8492
12638TIP3   OH259404   3.137   2.152  14.744  0.5639  0.0262 -0.1827
12638TIP3    H159405   3.160   2.113  14.828  0.9624  0.4272 -0.0984
12638TIP3    H259406   3.125   2.078  14.685 -2.0719 -0.3609  0.8058
12639TIP3   OH259407   3.644   2.848  15.082 -0.3756 -0.8339 -0.9387
12639TIP3    H159408   3.596   2.874  15.161 -0.6153 -1.5726 -0.8399
12639TIP3    H259409   3.589   2.879  15.010 -1.1795 -1.9768 -0.8286
12640TIP3   OH259410   1.603   3.797   0.310 -0.4124  0.0774 -0.2747
12640TIP3    H159411   1.518   3.755   0.299  0.2093 -2.2251  3.0183
12640TIP3    H259412   1.666   3.734   0.277  0.2015  0.8286 -0.5703
12641TIP3   OH259413   4.419   3.580   3.647 -0.2672 -0.1685  0.2138
12641TIP3    H159414   4.488   3.643   3.628 -1.2348  0.9761  0.4567
12641TIP3    H259415   4.439   3.549   3.735 -0.9848  1.3949  0.9429
12642TIP3   OH259416   1.369   3.044  13.727  0.1935  0.0034  0.1583
12642TIP3    H159417   1.330   3.123  13.763 -0.3481  0.6880 -1.8950
12642TIP3    H259418   1.299   2.978  13.732 -0.6262  0.7046 -1.7029
12643TIP3   OH259419   4.308   4.355  11.604  0.1511 -0.1101  0.4118
12643TIP3    H159420   4.251   4.327  11.677 -0.2992  2.5028  1.1080
12643TIP3    H259421   4.258   4.425  11.561  1.3746 -0.1527 -1.0954
12644TIP3   OH259422   4.885   1.133  13.839  0.0298  0.3914  0.0952
12644TIP3    H159423   4.872   1.127  13.934  1.6486 -1.8074  0.1951
12644TIP3    H259424   4.979   1.122  13.827 -0.3570 -0.9159 -1.8819
12645TIP3   OH259425   3.400   1.807   2.542  0.1067 -0.7698 -0.3088
12645TIP3    H159426   3.423   1.866   2.470 -1.0804  0.3307  0.1939
12645TIP3    H259427   3.450   1.727   2.525  1.3547  0.1977 -1.2731
12646TIP3   OH259428   0.983   0.153  12.240 -0.6594 -0.5270 -0.5436
12646TIP3    H159429   1.073   0.183  12.247 -1.0981  0.7405  0.0017
12646TIP3    H259430   0.976   0.116  12.153  0.7477 -1.9039 -0.0741
12647TIP3   OH259431   1.702   6.640  14.702  0.5327 -0.3388 -0.1300
12647TIP3    H159432   1.756   6.675  14.631  0.0956 -2.8224 -1.7515
12647TIP3    H259433   1.641   6.711  14.723  1.2622  0.7590 -1.6303
12648TIP3   OH259434   5.211   2.730   4.970  0.2369 -0.2938 -0.0410
12648TIP3    H159435   5.266   2.791   5.019  1.1314 -0.3546 -0.9598
12648TIP3    H259436   5.124   2.770   4.970  0.7866  0.9180 -0.5264
12649TIP3   OH259437   1.642   4.727  10.719 -0.3459 -0.1048  0.2790
12649TIP3    H159438   1.637   4.814  10.756  1.6965  1.4896 -2.8948
12649TIP3    H259439   1.553   4.707  10.691 -0.7327  1.2055  0.5500
12650TIP3   OH259440   2.786   3.253  15.554  0.5070 -0.5005  0.6741
12650TIP3    H159441   2.803   3.160  15.567  1.9894 -0.1180  1.5703
12650TIP3    H259442   2.825   3.274  15.469  0.4923 -0.6177  0.6394
12651TIP3   OH259443   1.983   4.607   5.725 -0.3462 -0.0885 -0.5366
12651TIP3    H159444   1.978   4.602   5.820  0.8356  0.8948 -0.4131
12651TIP3    H259445   2.077   4.599   5.705 -0.5920 -0.3899 -1.6211
12652TIP3   OH259446   6.778   1.878   2.264 -0.8851  0.5727 -0.1428
12652TIP3    H159447   6.770   1.893   2.358  0.5724 -0.6296  0.2007
12652TIP3    H259448   6.873   1.872   2.249 -1.1708 -1.0638 -1.3924
12653TIP3   OH259449   6.340   4.560  15.139  0.2849  0.0580  0.2467
12653TIP3    H159450   6.379   4.473  15.128 -0.0872  0.0005 -0.6731
12653TIP3    H259451   6.272   4.564  15.072 -0.2034  0.7755  0.7823
12654TIP3   OH259452   0.057   1.057   1.934 -0.1342 -0.8704 -0.0238
12654TIP3    H159453   0.054   1.042   2.028 -1.7380  0.3488  0.1403
12654TIP3    H259454   0.123   1.125   1.923  1.0094 -1.9355  0.0609
12655TIP3   OH259455   2.096   5.934   3.658 -0.7140  0.0080 -0.0935
12655TIP3    H159456   2.160   5.867   3.684  0.3001  1.2394  0.6298
12655TIP3    H259457   2.062   5.967   3.741  0.4827  2.0047 -0.3831
12656TIP3   OH259458   3.772   5.345  12.042 -0.9702  0.7361  0.1570
12656TIP3    H159459   3.772   5.366  11.949 -2.3036 -0.3599 -0.1141
12656TIP3    H259460   3.856   5.301  12.057 -1.1176  0.1571 -0.7050
12657TIP3   OH259461   2.196   3.528   4.342  0.0682  0.3701  0.2859
12657TIP3    H159462   2.110   3.486   4.331 -0.5313  1.6378  0.0208
12657TIP3    H259463   2.253   3.485   4.279 -0.8115  0.6820 -0.7371
12658TIP3   OH259464   2.360   6.108   2.054  0.2958  0.2873  0.2238
12658TIP3    H159465   2.435   6.135   2.001  0.5420  3.2350  1.9268
12658TIP3    H259466   2.302   6.063   1.993  1.9688  0.8654 -1.8457
12659TIP3   OH259467   4.087   5.416   5.623 -0.0026  0.7284  0.1218
12659TIP3    H159468   3.997   5.382   5.628  0.0044  0.8249  0.9336
12659TIP3    H259469   4.102   5.456   5.708  1.8898 -1.9377  1.0994
12660TIP3   OH259470   4.923   5.531   1.815  0.6641 -0.0668  0.0629
12660TIP3    H159471   4.897   5.440   1.804 -0.2889  0.1132  0.7586
12660TIP3    H259472   5.017   5.527   1.836  0.3169 -0.9576  1.4414
12661TIP3   OH259473   0.056   1.144   3.741  0.2821  0.1951 -1.0750
12661TIP3    H159474   0.137   1.188   3.769  0.3809 -0.7112  0.0772
12661TIP3    H259475  -0.013   1.192   3.787  0.4602 -1.4320  0.9540
12662TIP3   OH259476   3.112   5.073  15.939 -0.2349 -0.3998  0.1530
12662TIP3    H159477   3.028   5.117  15.952  0.6334  1.0576  0.9147
12662TIP3    H259478   3.125   5.076  15.844 -1.0659 -0.6602  0.0273
12663TIP3   OH259479   0.260   5.855  14.100 -0.3355 -0.0232  0.8559
12663TIP3    H159480   0.350   5.869  14.129 -0.4244  0.5428  0.8810
12663TIP3    H259481   0.220   5.803  14.170 -1.0090  2.7189  2.6099
12664TIP3   OH259482   1.896   4.870  13.246  0.3829 -0.0436  0.0777
12664TIP3    H159483   1.806   4.897  13.267  0.1187  0.2531 -1.3654
12664TIP3    H259484   1.938   4.950  13.216  1.1705 -0.1704  0.8156
12665TIP3   OH259485   3.194   5.099   0.275  0.7765  0.5409  0.0413
12665TIP3    H159486   3.253   5.065   0.209 -0.5115  0.9031 -1.3213
12665TIP3    H259487   3.212   5.193   0.278  1.7558  0.3249  1.1609
12666TIP3   OH259488   1.726   4.414   2.005 -0.3864 -0.5059 -0.2325
12666TIP3    H159489   1.670   4.425   2.082  0.1471  0.1567  0.0605
12666TIP3    H259490   1.693   4.334   1.963 -0.7903 -0.7715  0.5830
12667TIP3   OH259491   5.818   3.830   0.688 -0.2918  0.2022  0.2882
12667TIP3    H159492   5.892   3.847   0.747 -0.2316  0.4554  0.1418
12667TIP3    H259493   5.740   3.849   0.740 -0.2307  0.7469  0.1857
12668TIP3   OH259494   2.974   5.291  10.964  0.2192  0.4318 -0.3013
12668TIP3    H159495   3.005   5.361  10.907 -0.0039  1.3704  0.6936
12668TIP3    H259496   2.982   5.211  10.912  0.3195  1.2193 -1.5126
12669TIP3   OH259497   5.704   1.533  12.426  0.1785  0.2655  0.8362
12669TIP3    H159498   5.729   1.485  12.348 -0.7937  0.1563  0.5831
12669TIP3    H259499   5.609   1.542  12.420  0.3412  2.2804  0.8537
12670TIP3   OH259500   4.235   5.323   3.063  0.1822  0.5741 -0.0130
12670TIP3    H159501   4.292   5.331   3.139  1.6266 -1.7221 -0.7963
12670TIP3    H259502   4.189   5.240   3.075  1.2801 -0.4041 -2.1414
12671TIP3   OH259503   5.327   6.149   2.194 -0.1035 -0.2015  0.1145
12671TIP3    H159504   5.410   6.187   2.224 -0.2338  0.0210  0.1978
12671TIP3    H259505   5.315   6.072   2.249  0.1517 -0.3533 -0.0397
12672TIP3   OH259506   4.025   4.943   1.391  0.7069 -0.3097  0.4418
12672TIP3    H159507   4.061   5.023   1.430 -0.8352  1.0933 -0.9401
12672TIP3    H259508   3.982   4.898   1.463  1.2632  0.2826  1.1569
12673TIP3   OH259509   5.275   4.332   0.789  0.0923  0.1772  0.1264
12673TIP3    H159510   5.272   4.375   0.874 -1.8396  1.0896 -0.3628
12673TIP3    H259511   5.263   4.239   0.808  2.3637  0.0341  1.0318
12674TIP3   OH259512   1.645   3.879  13.061 -0.0157  0.1890 -0.3576
12674TIP3    H159513   1.605   3.958  13.023  2.3660  1.0144 -1.2265
12674TIP3    H259514   1.653   3.899  13.154  0.9879  1.1607 -0.6451
12675TIP3   OH259515   4.818   5.975   2.819  0.2703  0.8307 -0.2443
12675TIP3    H159516   4.823   5.964   2.914  0.3201 -1.2990 -0.4755
12675TIP3    H259517   4.748   5.916   2.792  0.4868  1.1740 -1.5723
12676TIP3   OH259518   0.186   6.527   1.913  0.2106  0.3663 -0.2155
12676TIP3    H159519   0.251   6.457   1.916 -0.4120 -0.1423  2.1568
12676TIP3    H259520   0.208   6.584   1.987 -0.6496  1.4418 -0.7699
12677TIP3   OH259521   2.200   3.202   1.231 -0.2849 -0.5249 -0.0502
12677TIP3    H159522   2.270   3.240   1.179  0.7352 -3.8803 -1.2780
12677TIP3    H259523   2.204   3.248   1.315  3.3759 -0.5822 -0.1189
12678TIP3   OH259524   2.315   2.487  13.798  0.1401 -0.2607 -0.0728
12678TIP3    H159525   2.251   2.415  13.794 -0.7421  0.5070 -0.0133
12678TIP3    H259526   2.375   2.461  13.868 -1.5355  0.1386  1.5852
12679TIP3   OH259527   2.608   5.132  16.313 -0.5874  0.3978  0.0243
12679TIP3    H159528   2.596   5.077  16.390 -2.2265 -0.2228 -0.6431
12679TIP3    H259529   2.701   5.151  16.311 -0.0166 -2.2354  0.3692
12680TIP3   OH259530   6.591   0.679   4.281 -0.0493 -0.4498  0.2679
12680TIP3    H159531   6.584   0.770   4.252 -1.1878 -0.4440  0.5065
12680TIP3    H259532   6.569   0.682   4.374  1.0114 -0.8210  0.5291
12681TIP3   OH259533   0.863   1.750  17.107  0.4320  0.1367  0.2914
12681TIP3    H159534   0.934   1.688  17.119  1.8194  1.5521 -0.4290
12681TIP3    H259535   0.837   1.740  17.015 -0.5279 -0.6130  0.6402
12682TIP3   OH259536   0.986   5.863  11.670 -0.4722 -0.0485 -0.6422
12682TIP3    H159537   1.024   5.863  11.758  1.2320  1.8655 -1.3468
12682TIP3    H259538   1.017   5.782  11.630 -0.9572 -0.7481  0.3758
12683TIP3   OH259539   1.262   5.684  14.059  0.1623 -0.7131 -0.0459
12683TIP3    H159540   1.222   5.609  14.104  0.2113 -0.6947  0.0283
12683TIP3    H259541   1.355   5.676  14.076  0.0765 -0.1128  0.7577
12684TIP3   OH259542   0.027   1.558   5.704 -0.0696 -0.0865  0.2723
12684TIP3    H159543   0.054   1.610   5.779 -0.3444  1.0790 -0.4204
12684TIP3    H259544   0.096   1.492   5.693 -1.0990 -1.6476  2.8461
12685TIP3   OH259545   6.562   3.600  11.308 -0.1908  0.5830 -0.3535
12685TIP3    H159546   6.610   3.550  11.242 -1.1737 -0.7704 -0.0744
12685TIP3    H259547   6.602   3.574  11.391  0.1340  1.2398 -0.2995
12686TIP3   OH259548   2.199   2.634   5.679  0.2527 -0.0943  0.2568
12686TIP3    H159549   2.177   2.590   5.761 -1.4602 -0.2683 -0.2695
12686TIP3    H259550   2.253   2.572   5.632 -0.8923 -1.0490  0.1682
12687TIP3   OH259551   2.638   4.074   4.480  0.3807  0.1604  0.8752
12687TIP3    H159552   2.691   4.116   4.412  1.2869  0.2602  1.6314
12687TIP3    H259553   2.694   4.005   4.516  0.5385  1.1701  2.6381
12688TIP3   OH259554   2.855   0.018   5.651 -0.1982 -0.0514  0.1009
12688TIP3    H159555   2.852  -0.031   5.733 -0.3959 -0.9320 -0.4316
12688TIP3    H259556   2.947   0.042   5.641 -0.2358  0.4059  0.7730
12689TIP3   OH259557   6.656   3.345   2.996 -0.2402 -0.1535 -0.4092
12689TIP3    H159558   6.648   3.406   3.070  2.8064  0.0448 -0.1523
12689TIP3    H259559   6.575   3.355   2.947 -0.9425  2.1287  1.1385
12690TIP3   OH259560   0.085   1.824   2.876  0.1087 -0.0633  0.6949
12690TIP3    H159561   0.148   1.891   2.850  0.8572 -1.0956 -0.1824
12690TIP3    H259562   0.130   1.741   2.860 -1.4871 -0.8107  0.0218
12691TIP3   OH259563   5.589   2.297   5.794 -0.3484  0.2093 -0.7201
12691TIP3    H159564   5.608   2.383   5.757  1.5424  0.9195  1.7870
12691TIP3    H259565   5.640   2.236   5.741  2.4629  1.2217  0.7711
12692TIP3   OH259566   3.016   4.718  15.787  0.1284 -0.1100 -0.0148
12692TIP3    H159567   3.086   4.747  15.846  0.7296 -0.0323 -0.7574
12692TIP3    H259568   3.046   4.745  15.700 -1.9464  2.0995 -0.0904
12693TIP3   OH259569   2.690   3.754  15.886  0.6505 -0.5581 -0.1855
12693TIP3    H159570   2.692   3.798  15.801  1.8168 -2.0823 -0.9620
12693TIP3    H259571   2.720   3.821  15.948 -1.0480  0.8354 -0.8040
12694TIP3   OH259572   2.910   2.556   4.756 -0.0396  0.3386  0.4990
12694TIP3    H159573   2.928   2.526   4.845  2.0770  1.8237  0.6009
12694TIP3    H259574   2.995   2.552   4.712 -1.0675 -0.3882 -1.4728
12695TIP3   OH259575   5.230   0.015   3.758  0.2574  0.4291  0.4490
12695TIP3    H159576   5.181   0.036   3.679  0.8862  1.7883  0.3941
12695TIP3    H259577   5.237   0.099   3.804  0.4607 -0.2200  1.6196
12696TIP3   OH259578   1.471   2.928   5.346 -0.0675 -0.3664 -0.1332
12696TIP3    H159579   1.516   3.010   5.368  1.1906 -0.6227 -1.6127
12696TIP3    H259580   1.541   2.862   5.346 -1.0357 -1.3952  0.8359
12697TIP3   OH259581   5.384   1.981  12.525 -0.0188  0.5653 -0.3288
12697TIP3    H159582   5.346   2.068  12.522 -0.0736  0.6010  1.0050
12697TIP3    H259583   5.479   1.996  12.524 -0.0174  0.5580 -1.6926
12698TIP3   OH259584   0.651   1.501   4.753  0.3139 -0.3106 -0.3372
12698TIP3    H159585   0.584   1.491   4.684  0.1929  1.5738 -0.5129
12698TIP3    H259586   0.711   1.567   4.719  1.2043 -0.5828  0.6664
12699TIP3   OH259587   3.148   0.084   5.655 -0.1997  0.4511  0.2380
12699TIP3    H159588   3.221   0.037   5.696  0.1687 -0.4678 -1.4154
12699TIP3    H259589   3.185   0.168   5.629  0.3716 -0.1499 -0.9108
12700TIP3   OH259590   1.069   0.259  16.249  1.0981  0.2047 -0.1518
12700TIP3    H159591   1.124   0.304  16.313  3.8755 -1.2564 -1.4141
12700TIP3    H259592   1.029   0.330  16.198  1.9303  1.3008  0.7037
12701TIP3   OH259593   2.900   3.451   6.313  0.0460  0.5120 -0.3684
12701TIP3    H159594   2.941   3.478   6.231  2.1632 -0.7200  0.2463
12701TIP3    H259595   2.867   3.533   6.351 -0.0624  1.2252 -1.9443
12702TIP3   OH259596   2.031   5.598  12.233 -0.4762 -0.2612  0.4782
12702TIP3    H159597   1.983   5.566  12.310  0.3052  0.0924  1.1176
12702TIP3    H259598   2.082   5.672  12.266  1.3130 -1.2832  0.0343
12703TIP3   OH259599   4.845   0.234  13.786 -0.3219  0.3414  0.4468
12703TIP3    H159600   4.838   0.311  13.729  0.6380 -0.2638 -0.5378
12703TIP3    H259601   4.924   0.190  13.755 -0.9440 -1.1146  0.9041
12704TIP3   OH259602   3.526   3.502   1.880 -0.6563 -0.4620  0.8903
12704TIP3    H159603   3.595   3.566   1.895 -1.6804  0.6031  1.0865
12704TIP3    H259604   3.544   3.433   1.944  1.0538 -0.8889 -0.0221
12705TIP3   OH259605   1.607   5.867   3.416 -0.1727 -0.5052  0.3883
12705TIP3    H159606   1.682   5.877   3.357 -1.0100 -0.1949 -0.6448
12705TIP3    H259607   1.596   5.773   3.425  0.5682 -0.5518  0.8367
12706TIP3   OH259608   5.906   0.530  15.572  0.1220 -0.1132 -0.1866
12706TIP3    H159609   5.932   0.494  15.656 -1.2288 -0.3524  0.1364
12706TIP3    H259610   5.839   0.471  15.540 -1.2013  1.3948 -0.2549
12707TIP3   OH259611   1.551   3.334  10.755 -0.0226 -0.1744  0.2383
12707TIP3    H159612   1.628   3.391  10.760 -1.3861  1.9037 -1.1343
12707TIP3    H259613   1.526   3.336  10.662 -1.7423 -0.7395  0.6607
12708TIP3   OH259614   5.325   5.702   2.284 -0.3040  0.4121  0.0287
12708TIP3    H159615   5.369   5.764   2.225  0.0037 -0.8688 -1.0965
12708TIP3    H259616   5.244   5.747   2.309  0.4232  1.7184  0.0801
12709TIP3   OH259617   1.491   4.764  12.023  0.4754  0.3690  0.1977
12709TIP3    H159618   1.522   4.852  12.044  1.5332 -0.1672  0.9051
12709TIP3    H259619   1.561   4.726  11.970 -0.6019  0.4396 -1.3183
12710TIP3   OH259620   4.814   0.909  11.366  0.1734  0.1036  0.7599
12710TIP3    H159621   4.874   0.849  11.322 -0.4716  0.1568 -0.2210
12710TIP3    H259622   4.727   0.885  11.332 -0.1024  1.5187  0.4317
12711TIP3   OH259623   1.970   2.641  16.521 -0.3669  0.0537  0.2318
12711TIP3    H159624   2.029   2.716  16.512  0.3052 -0.3946  0.8565
12711TIP3    H259625   2.012   2.572  16.470 -1.5266  0.4014 -1.2345
12712TIP3   OH259626   6.165   2.934   1.476  0.4677 -0.5716  0.4675
12712TIP3    H159627   6.166   2.842   1.452 -0.0165 -0.1387 -1.3149
12712TIP3    H259628   6.103   2.974   1.415  1.5971  1.1421  0.3940
12713TIP3   OH259629   5.326   3.797   1.949 -0.3350  0.0897 -0.1129
12713TIP3    H159630   5.409   3.796   1.901 -0.0681 -1.3024  0.3621
12713TIP3    H259631   5.333   3.724   2.010 -1.5073  0.5923  0.6297
12714TIP3   OH259632   1.086   2.476  16.878  0.2562  0.1722 -0.0438
12714TIP3    H159633   1.173   2.512  16.859 -0.0600  2.8629  3.1165
12714TIP3    H259634   1.027   2.522  16.818  0.5950  0.9169  0.1842
12715TIP3   OH259635   3.610   3.995   4.062 -0.2718 -0.6563 -0.9404
12715TIP3    H159636   3.675   3.976   4.129  0.2688 -0.3559 -1.3768
12715TIP3    H259637   3.544   3.926   4.072 -1.6678  0.9640  1.7560
12716TIP3   OH259638   0.959   0.453  16.117 -0.2469  0.4090  0.0581
12716TIP3    H159639   1.023   0.525  16.111 -0.8649  1.1154  1.6776
12716TIP3    H259640   0.875   0.497  16.124 -1.0109 -0.5287 -2.5345
12717TIP3   OH259641   3.453   2.403  14.263  0.7404  0.4651  0.5646
12717TIP3    H159642   3.397   2.352  14.205 -0.6869  0.5588  1.8369
12717TIP3    H259643   3.521   2.342  14.291  1.9542  0.6434 -1.8427
12718TIP3   OH259644   0.627   5.219  11.873  0.7131  0.4617 -0.6437
12718TIP3    H159645   0.600   5.177  11.955  2.4791  0.8006  0.1353
12718TIP3    H259646   0.578   5.301  11.870  0.2455  0.1966 -0.1919
12719TIP3   OH259647   3.438   2.754   1.296 -0.1035 -0.1538  0.0879
12719TIP3    H159648   3.451   2.758   1.391 -1.3073  0.6690  0.2349
12719TIP3    H259649   3.509   2.698   1.264  0.8172  0.2553  1.3715
12720TIP3   OH259650   6.385   0.356  16.336  0.3531  0.0906  0.0882
12720TIP3    H159651   6.405   0.439  16.379  1.0146  0.8190 -1.6135
12720TIP3    H259652   6.444   0.293  16.379  0.5105  0.6667  0.7391
12721TIP3   OH259653   5.029   6.432   0.705 -0.2150 -0.3554  0.0371
12721TIP3    H159654   5.082   6.481   0.643 -2.2333  2.5478  0.4870
12721TIP3    H259655   4.955   6.400   0.653 -0.4217 -0.3908  0.3526
12722TIP3   OH259656   6.806   0.358  16.794 -0.1382  0.3452 -0.3920
12722TIP3    H159657   6.791   0.304  16.716  1.7746 -0.5252 -0.1766
12722TIP3    H259658   6.734   0.336  16.853 -0.5893 -0.3412 -1.1869
12723TIP3   OH259659   2.604   5.615  12.963  0.5324  0.0218 -0.1174
12723TIP3    H159660   2.526   5.576  13.000 -0.0804 -0.4781 -1.8831
12723TIP3    H259661   2.658   5.541  12.935  0.7804  0.3856 -0.6306
12724TIP3   OH259662   6.015   4.522  11.491 -0.7544  0.1235 -0.3484
12724TIP3    H159663   6.087   4.569  11.449 -0.9860 -2.2402 -3.5591
12724TIP3    H259664   5.936   4.565  11.459 -0.8890 -0.7427 -1.2015
12725TIP3   OH259665   1.548   6.612   5.112  0.3440  0.6684  0.2898
12725TIP3    H159666   1.586   6.700   5.118 -2.1610  1.9298 -1.2118
12725TIP3    H259667   1.612   6.561   5.062  1.9971  1.5260  1.4963
12726TIP3   OH259668   0.367   2.058  11.278  0.1493 -0.0907  0.2754
12726TIP3    H159669   0.354   1.985  11.339 -0.9699  1.4341  1.8735
12726TIP3    H259670   0.350   2.019  11.192  0.7837 -2.0189  0.9910
12727TIP3   OH259671   0.157   2.754   0.801 -0.0098 -0.0312  0.4817
12727TIP3    H159672   0.158   2.788   0.711 -0.3603 -1.8340 -0.2216
12727TIP3    H259673   0.132   2.829   0.854 -0.9189  0.7874 -1.0575
12728TIP3   OH259674   5.439   4.013   2.476  0.1268 -0.5201  0.1549
12728TIP3    H159675   5.397   4.005   2.391 -0.4048  2.0993  0.1416
12728TIP3    H259676   5.429   4.105   2.500  1.3057 -0.9575  2.5158
12729TIP3   OH259677   2.666   1.928   2.821 -0.1410 -0.0043 -0.8165
12729TIP3    H159678   2.589   1.976   2.790  0.6386  0.7802 -1.5915
12729TIP3    H259679   2.738   1.991   2.812 -0.0647  0.7418  3.8253
12730TIP3   OH259680   0.993   2.433   5.815 -0.0886  0.2819 -0.3119
12730TIP3    H159681   0.913   2.481   5.794 -0.8276 -0.8733 -0.1783
12730TIP3    H259682   1.007   2.449   5.908  0.4248  1.3318 -0.5592
12731TIP3   OH259683   2.931   1.859  15.585  0.4793 -0.5603 -0.2780
12731TIP3    H159684   3.011   1.898  15.548  1.2624 -0.5713  1.3626
12731TIP3    H259685   2.871   1.932  15.595  0.8477 -0.2901 -0.0480
12732TIP3   OH259686   0.102   6.820  11.875 -0.0066  0.0375 -0.1249
12732TIP3    H159687   0.057   6.782  11.800 -1.2597 -1.0087  1.1137
12732TIP3    H259688   0.190   6.783  11.873 -0.7628 -1.8238  0.2246
12733TIP3   OH259689   6.802   3.447   4.489 -0.2507 -0.0111  0.3210
12733TIP3    H159690   6.729   3.450   4.550  1.5086  0.8744  2.4584
12733TIP3    H259691   6.812   3.536   4.457  0.2733  0.0052  0.5168
12734TIP3   OH259692   4.510   2.455   1.940 -0.0899 -0.1680 -0.0758
12734TIP3    H159693   4.594   2.409   1.930 -0.0661 -0.1958  0.2531
12734TIP3    H259694   4.446   2.385   1.951 -0.2610 -0.1737 -1.0682
12735TIP3   OH259695   6.345   4.856  14.213 -0.2718  0.2845 -0.2203
12735TIP3    H159696   6.335   4.772  14.258 -0.3095  0.9202  0.9627
12735TIP3    H259697   6.416   4.841  14.151 -1.3491 -1.1003 -1.1711
12736TIP3   OH259698   0.375   1.342   5.333 -0.2779 -0.2815  0.0243
12736TIP3    H159699   0.431   1.315   5.406 -0.0011 -1.1337 -0.4907
12736TIP3    H259700   0.436   1.374   5.267 -0.6057  1.5861  0.6079
12737TIP3   OH259701   5.657   2.842   3.621  0.3009  0.0059  0.1532
12737TIP3    H159702   5.608   2.831   3.540  0.1107  1.2254  0.0947
12737TIP3    H259703   5.593   2.823   3.690 -0.4276  2.0749  0.0926
12738TIP3   OH259704   2.352   1.238   6.061 -0.7125 -0.0328  0.6749
12738TIP3    H159705   2.334   1.316   6.008  0.2061 -0.4529 -0.2711
12738TIP3    H259706   2.416   1.267   6.126 -0.9567  0.1834  0.8239
12739TIP3   OH259707   5.100   2.159  16.931 -0.1663  0.3394  0.1992
12739TIP3    H159708   5.076   2.238  16.979  0.5476  0.4960  0.2958
12739TIP3    H259709   5.094   2.185  16.839  1.0299  0.7904  0.2447
12740TIP3   OH259710   1.994   4.225  14.019 -1.2128  0.1290  0.3563
12740TIP3    H159711   2.054   4.158  14.053 -0.9129 -0.0911 -0.5745
12740TIP3    H259712   1.992   4.208  13.924  0.4126  2.6617 -0.1827
12741TIP3   OH259713   0.582   1.359  14.663 -0.3253 -0.3116  0.0696
12741TIP3    H159714   0.505   1.411  14.642 -0.4476 -0.4052  0.2814
12741TIP3    H259715   0.602   1.311  14.582 -0.6224 -0.4543  0.0790
12742TIP3   OH259716   4.798   3.071  15.229 -0.0568 -0.1206 -0.5361
12742TIP3    H159717   4.840   3.085  15.314 -0.1558 -1.3715 -0.2682
12742TIP3    H259718   4.867   3.086  15.165 -0.1930  1.6992 -0.3004
12743TIP3   OH259719   3.294   4.428  11.739  0.2996 -0.3878 -0.7372
12743TIP3    H159720   3.291   4.436  11.834  3.8938 -1.8614 -0.4194
12743TIP3    H259721   3.256   4.342  11.722  0.0185 -0.2920 -0.5997
12744TIP3   OH259722   4.713   1.136   1.558 -0.8100  0.0736  0.1069
12744TIP3    H159723   4.755   1.195   1.496 -2.6992  1.4148  0.0617
12744TIP3    H259724   4.651   1.086   1.505 -2.0678  0.8689  0.8135
12745TIP3   OH259725   6.546   3.916   5.237  0.1845  0.5912 -0.2122
12745TIP3    H159726   6.542   3.878   5.325  2.3187  0.0237 -0.3268
12745TIP3    H259727   6.629   3.964   5.235  0.7269 -0.3392 -2.2574
12746TIP3   OH259728   0.369   4.880   6.297  0.3025  0.1353 -0.3076
12746TIP3    H159729   0.409   4.964   6.319 -1.1454  0.1636  2.5704
12746TIP3    H259730   0.343   4.844   6.382 -0.4668 -2.5317 -1.6265
12747TIP3   OH259731   2.172   1.535   5.678  0.0414 -0.1233  0.1657
12747TIP3    H159732   2.147   1.552   5.587 -2.2356  1.6507  1.0551
12747TIP3    H259733   2.196   1.443   5.680 -2.4643 -0.8703 -1.6945
12748TIP3   OH259734   4.694   3.941   1.745  0.4865 -0.0790  0.3423
12748TIP3    H159735   4.635   3.999   1.793 -1.8036 -0.3388 -2.0322
12748TIP3    H259736   4.690   3.858   1.793 -1.3169 -0.1708  0.0693
12749TIP3   OH259737   3.183   5.920  14.029 -1.3735  0.1008 -0.3804
12749TIP3    H159738   3.247   5.985  14.000 -1.1106 -0.1423 -0.3501
12749TIP3    H259739   3.221   5.836  14.003 -1.4033 -0.0828  0.1573
12750TIP3   OH259740   4.056   6.618   0.447  0.5246  0.6828 -0.1439
12750TIP3    H159741   3.987   6.585   0.505 -1.2306  0.9374 -2.0492
12750TIP3    H259742   4.019   6.613   0.359  4.0973 -2.1284 -1.5899
12751TIP3   OH259743   0.776   2.565  12.656 -0.0270 -0.0526 -0.2424
12751TIP3    H159744   0.792   2.515  12.575 -0.3365 -1.1767  0.3775
12751TIP3    H259745   0.863   2.583  12.690  0.0829 -0.8303 -0.0865
12752TIP3   OH259746   6.765   0.341  15.237  0.5267  0.1133  0.2268
12752TIP3    H159747   6.747   0.359  15.329  1.1788 -0.5844  0.5031
12752TIP3    H259748   6.821   0.263  15.239 -0.4180 -0.6077 -0.8202
12753TIP3   OH259749   0.946   4.014   5.746 -0.2630  0.3232  0.2641
12753TIP3    H159750   1.037   4.006   5.716  0.0081 -1.3902  1.5041
12753TIP3    H259751   0.900   3.942   5.703 -1.1340  1.3443 -0.5801
12754TIP3   OH259752   2.796   2.791  14.792 -0.1791  0.0643  0.0841
12754TIP3    H159753   2.852   2.834  14.727  1.2598  0.3956  1.5087
12754TIP3    H259754   2.765   2.711  14.749 -0.4689  1.0281 -1.5293
12755TIP3   OH259755   0.420   3.066  14.280 -0.1771  0.4094 -0.1775
12755TIP3    H159756   0.485   3.050  14.349 -0.8863 -1.9612  0.0113
12755TIP3    H259757   0.448   3.147  14.238  2.8344 -0.5034 -0.0423
12756TIP3   OH259758   5.375   2.806   5.942  0.5883 -0.1481  0.0251
12756TIP3    H159759   5.418   2.839   6.022 -0.2201  0.5254  0.1889
12756TIP3    H259760   5.445   2.803   5.877  1.4876 -1.7079  1.0442
12757TIP3   OH259761   1.257   4.940   5.039 -0.4728  0.0590 -0.3625
12757TIP3    H159762   1.235   4.961   4.948 -1.4956 -0.1585 -0.1734
12757TIP3    H259763   1.172   4.938   5.084  0.0639  0.6562  0.6990
12758TIP3   OH259764   5.636   3.905   3.566 -0.3311 -0.8018 -0.3639
12758TIP3    H159765   5.583   3.904   3.486 -0.6799  0.1415 -0.1456
12758TIP3    H259766   5.723   3.932   3.536 -0.8354  1.1079 -0.2219
12759TIP3   OH259767   5.257   0.060  14.524  0.5859  0.3636 -0.1486
12759TIP3    H159768   5.347   0.027  14.516 -0.1533 -1.6811 -0.1469
12759TIP3    H259769   5.242   0.107  14.442  0.4966 -2.1837 -1.6437
12760TIP3   OH259770   1.195   5.496  14.897 -0.0691  0.6085  0.0518
12760TIP3    H159771   1.113   5.502  14.945  1.3269  1.4154  2.3921
12760TIP3    H259772   1.200   5.405  14.868 -1.1574  0.2330  1.0379
12761TIP3   OH259773   5.379   2.605  10.604  0.0827 -0.0365  0.0011
12761TIP3    H159774   5.419   2.533  10.652  2.3278 -0.0202 -1.7656
12761TIP3    H259775   5.369   2.675  10.670  1.1920 -0.7153  0.9159
12762TIP3   OH259776   6.148   2.400  13.842  0.1703  0.1951 -0.2416
12762TIP3    H159777   6.054   2.391  13.856  0.0217  0.6778 -0.9051
12762TIP3    H259778   6.182   2.431  13.926  0.0342 -1.9539  0.6260
12763TIP3   OH259779   2.757   3.488   5.038  0.3268 -0.3491 -0.1533
12763TIP3    H159780   2.670   3.451   5.055 -0.2449  0.5390 -1.1051
12763TIP3    H259781   2.771   3.550   5.110 -0.7278  1.0445 -1.1127
12764TIP3   OH259782   4.857   1.254   1.338  0.1933  0.1175 -0.3676
12764TIP3    H159783   4.862   1.326   1.275 -0.7700 -0.3021 -0.9330
12764TIP3    H259784   4.929   1.271   1.399  2.0944 -0.2991 -2.4199
12765TIP3   OH259785   3.438   6.570  16.522  0.0345 -0.1848  0.4587
12765TIP3    H159786   3.496   6.633  16.478 -1.7910  0.3983 -1.1703
12765TIP3    H259787   3.403   6.618  16.597  1.7119 -0.5802  1.5307
12766TIP3   OH259788   5.063   6.694   0.309  0.5171 -0.0747 -0.2185
12766TIP3    H159789   5.118   6.667   0.383  0.4174  0.3203  0.0047
12766TIP3    H259790   5.065   6.790   0.313 -1.3792 -0.0549  0.6732
12767TIP3   OH259791   3.846   1.522  14.036  0.0534  0.1655  0.2641
12767TIP3    H159792   3.847   1.591  13.970  0.6522  0.4996  0.6170
12767TIP3    H259793   3.756   1.521  14.069  0.0735  0.8377  0.3258
12768TIP3   OH259794   4.945   0.638   3.336 -0.2750  0.1389  0.0686
12768TIP3    H159795   4.968   0.554   3.296  2.4741  0.0826  1.6415
12768TIP3    H259796   4.976   0.704   3.274  0.8133  0.0266  0.4954
12769TIP3   OH259797   2.075   2.029  11.622  0.1962  0.3005 -0.2347
12769TIP3    H159798   1.981   2.011  11.611  0.5055 -0.8894 -1.0706
12769TIP3    H259799   2.094   2.002  11.712 -0.0859 -0.2765 -0.3443
12770TIP3   OH259800   2.855   2.924  12.382  0.7730 -0.3154  0.3254
12770TIP3    H159801   2.768   2.889  12.368  0.8282 -0.6794  0.8626
12770TIP3    H259802   2.901   2.856  12.432  1.6073 -0.4556 -0.6167
12771TIP3   OH259803   0.319   4.480   3.032  0.2359  0.6974 -0.3784
12771TIP3    H159804   0.364   4.562   3.050  1.6817  0.6192 -3.4377
12771TIP3    H259805   0.369   4.414   3.079  1.4081  1.0442 -1.1306
12772TIP3   OH259806   6.777   6.598   4.036  0.0052  0.2483 -0.1157
12772TIP3    H159807   6.849   6.608   4.099 -1.1588 -0.2094  1.3328
12772TIP3    H259808   6.805   6.648   3.960  1.3653  1.0039  0.8450
12773TIP3   OH259809   0.548   0.055  12.803  0.1777  0.4566 -0.1410
12773TIP3    H159810   0.550   0.149  12.823 -1.2384  0.4373  0.1338
12773TIP3    H259811   0.455   0.034  12.797  0.4690 -1.1509  0.8589
12774TIP3   OH259812   4.292   6.632   6.158  0.4109  0.2236 -1.1856
12774TIP3    H159813   4.278   6.722   6.128 -0.9181  0.4880  0.1755
12774TIP3    H259814   4.290   6.638   6.253 -1.7831 -1.5409 -1.0815
12775TIP3   OH259815   1.768   3.289  14.533 -0.3836  0.7477 -0.2613
12775TIP3    H159816   1.701   3.239  14.487 -0.2152  0.3963 -0.1293
12775TIP3    H259817   1.829   3.223  14.566  0.0179  1.0603 -0.3677
12776TIP3   OH259818   3.395   2.476  16.303 -1.0596 -0.4791 -0.2173
12776TIP3    H159819   3.479   2.452  16.263 -1.2139  0.1427 -0.9401
12776TIP3    H259820   3.330   2.437  16.244 -1.2892  0.3582 -0.5250
12777TIP3   OH259821   6.360   4.060  11.984  0.0092 -0.2659  0.8789
12777TIP3    H159822   6.341   4.030  12.074 -0.6569 -0.3069  0.7293
12777TIP3    H259823   6.444   4.106  11.991  1.1759 -2.3639  1.0858
12778TIP3   OH259824   6.117   1.554   1.884  0.2975 -0.2232 -0.5667
12778TIP3    H159825   6.097   1.495   1.811  1.8644 -1.5838  0.0781
12778TIP3    H259826   6.137   1.496   1.957 -1.3733  1.1314  1.0151
12779TIP3   OH259827   4.931   1.281   2.398  0.8059 -0.1901 -0.0960
12779TIP3    H159828   4.879   1.346   2.351  0.3764 -0.0717  0.5344
12779TIP3    H259829   4.880   1.200   2.390  0.9426 -0.2653 -0.2029
12780TIP3   OH259830   6.486   3.155  13.510 -0.4772 -0.1061  0.2502
12780TIP3    H159831   6.539   3.102  13.451  0.3019  0.4621  0.4427
12780TIP3    H259832   6.474   3.238  13.465 -0.2642  0.1665  0.6889
12781TIP3   OH259833   2.132   0.136   2.307  0.4642 -0.1559  0.1490
12781TIP3    H159834   2.183   0.105   2.232 -0.4241 -0.6812 -0.2486
12781TIP3    H259835   2.054   0.175   2.267 -0.9431 -2.1560  0.8633
12782TIP3   OH259836   3.921   1.859   5.137 -0.2203  0.1212  0.3161
12782TIP3    H159837   3.942   1.941   5.181 -1.0456 -0.9673  2.7961
12782TIP3    H259838   3.915   1.794   5.207 -1.2040 -1.7342 -1.4230
12783TIP3   OH259839   0.107   0.890  16.531 -0.4735  0.3726 -0.7305
12783TIP3    H159840   0.144   0.976  16.550  0.3099  0.3488 -2.1045
12783TIP3    H259841   0.015   0.907  16.511 -0.4922  0.8010 -0.2859
12784TIP3   OH259842   1.550   6.321   4.614  0.0439 -0.6688  0.3668
12784TIP3    H159843   1.506   6.236   4.611 -0.5375 -0.3872  0.7484
12784TIP3    H259844   1.616   6.316   4.545 -0.9152 -0.9327 -0.5621
12785TIP3   OH259845   5.131   2.694  12.782 -0.4371  0.0625  0.0932
12785TIP3    H159846   5.168   2.610  12.758 -0.1474 -0.1045  1.1214
12785TIP3    H259847   5.201   2.757  12.765 -0.5738  0.0712 -0.4478
12786TIP3   OH259848   1.693   0.584  11.568 -0.5641  0.5053 -0.0692
12786TIP3    H159849   1.747   0.505  11.565 -0.6848  0.3528  1.4154
12786TIP3    H259850   1.754   0.655  11.586 -0.7140  0.4804  0.5407
12787TIP3   OH259851   5.289   5.672   4.006 -0.6843  0.0045  0.0881
12787TIP3    H159852   5.335   5.603   3.958  2.0132  0.8957  1.3164
12787TIP3    H259853   5.198   5.644   4.006  0.2224 -3.1786 -0.1452
12788TIP3   OH259854   0.522   1.988  15.827  0.2240  0.1401 -0.3830
12788TIP3    H159855   0.607   1.947  15.813  1.0326  1.6487 -0.0216
12788TIP3    H259856   0.503   1.975  15.920  0.7265  1.0177 -0.1511
12789TIP3   OH259857   0.495   0.808  13.600  0.0730 -0.1308  0.1289
12789TIP3    H159858   0.433   0.880  13.591 -0.9482 -1.2100 -1.8037
12789TIP3    H259859   0.571   0.836  13.550 -0.3666 -0.4107 -0.7140
12790TIP3   OH259860   3.451   4.812   4.050 -0.2387 -0.6443 -0.3872
12790TIP3    H159861   3.471   4.905   4.048  1.1943 -0.9099  0.5242
12790TIP3    H259862   3.357   4.808   4.069 -0.0963  0.6132  0.6826
12791TIP3   OH259863   4.054   1.483  17.228  0.3914 -0.1355 -0.4005
12791TIP3    H159864   4.071   1.390  17.212  1.5259  0.2471 -1.4770
12791TIP3    H259865   3.959   1.491  17.223  0.2040 -1.4454  0.8699
12792TIP3   OH259866   0.910   0.110  16.962 -0.4556 -0.3810 -0.2295
12792TIP3    H159867   0.837   0.078  17.014 -1.3697 -1.1272 -1.9349
12792TIP3    H259868   0.886   0.199  16.937 -0.8031 -0.6333 -0.8048
12793TIP3   OH259869   3.172   0.997   5.065  0.0073 -0.3864 -0.3910
12793TIP3    H159870   3.194   1.013   5.157 -0.3789 -0.6745 -0.2486
12793TIP3    H259871   3.212   1.070   5.018 -0.9515  0.4989  0.1494
12794TIP3   OH259872   5.210   6.447  14.986 -0.2499 -0.1169 -0.1878
12794TIP3    H159873   5.275   6.514  15.004 -0.0372 -0.4067  0.1228
12794TIP3    H259874   5.134   6.495  14.953 -0.5581  0.3998  1.2296
12795TIP3   OH259875   2.453   2.613   4.852 -0.1123 -0.5145 -0.0505
12795TIP3    H159876   2.536   2.659   4.863 -1.9320  2.5298  1.4826
12795TIP3    H259877   2.456   2.579   4.762  2.5374  0.0169 -0.1860
12796TIP3   OH259878   0.058   5.167   2.244 -0.5593  0.8326  0.1971
12796TIP3    H159879   0.022   5.146   2.330  0.6375  0.7180  0.6699
12796TIP3    H259880   0.043   5.261   2.234 -2.0144  0.5891 -0.1028
12797TIP3   OH259881   5.018   2.451   4.609 -0.1755 -0.4619  0.0893
12797TIP3    H159882   5.058   2.385   4.666 -1.8207 -1.0731  0.5583
12797TIP3    H259883   5.085   2.520   4.602  0.2616 -0.5990  2.3585
12798TIP3   OH259884   3.181   0.790   0.341  0.1477  0.3205  0.1014
12798TIP3    H159885   3.115   0.829   0.398 -1.1517  1.6241 -2.2596
12798TIP3    H259886   3.132   0.756   0.267  1.9049 -0.6550 -0.6418
12799TIP3   OH259887   2.202   1.143   4.060  0.2108 -0.1622  0.2105
12799TIP3    H159888   2.292   1.142   4.093  0.2626  0.7847  0.1187
12799TIP3    H259889   2.156   1.204   4.118  0.2950  1.5094 -1.4215
12800TIP3   OH259890   2.433   0.801  13.129  0.1228 -0.2622  0.2813
12800TIP3    H159891   2.434   0.787  13.034  0.9188 -0.8939  0.3794
12800TIP3    H259892   2.382   0.728  13.164 -1.5304  0.8339  0.2136
12801TIP3   OH259893   4.447   6.018  15.352  0.3843 -0.5399 -0.0948
12801TIP3    H159894   4.527   6.051  15.314 -0.6649 -0.8439 -2.6739
12801TIP3    H259895   4.417   5.951  15.290 -0.7864 -1.8778  1.8531
12802TIP3   OH259896   3.693   2.779  16.807  0.4173  0.0020  0.1502
12802TIP3    H159897   3.718   2.864  16.770 -0.7033 -0.0117 -0.6568
12802TIP3    H259898   3.772   2.748  16.852  0.7825  1.5375  0.5829
12803TIP3   OH259899   3.030   1.630   2.976 -0.6112  0.0630 -0.0108
12803TIP3    H159900   2.963   1.692   3.007  1.7035  3.7971 -2.1335
12803TIP3    H259901   2.999   1.603   2.889 -0.9904 -0.7732  0.3842
12804TIP3   OH259902   1.272   2.911  12.398  0.3640 -0.1241 -0.4371
12804TIP3    H159903   1.365   2.889  12.402  0.0998 -1.3898 -1.0171
12804TIP3    H259904   1.250   2.908  12.305 -0.6723 -1.6654 -0.1579
12805TIP3   OH259905   3.800   2.525   2.696 -0.4940  0.0247  0.0016
12805TIP3    H159906   3.851   2.544   2.775  0.7624 -0.8911 -0.5900
12805TIP3    H259907   3.776   2.611   2.662  1.8183  0.5188 -0.4670
12806TIP3   OH259908   0.871   6.806   0.646  0.2224 -0.4502  0.9509
12806TIP3    H159909   0.880   6.740   0.578  0.2168 -0.2605  0.7665
12806TIP3    H259910   0.837   6.883   0.601  0.1158 -0.3579  1.1864
12807TIP3   OH259911   1.235   5.067   0.868  0.1667 -0.2645 -0.0158
12807TIP3    H159912   1.242   5.134   0.936  0.1678  0.0269 -0.2999
12807TIP3    H259913   1.176   5.105   0.803 -2.7186 -2.0004  1.5127
12808TIP3   OH259914   1.392   1.336   2.913 -0.5563 -0.2253  0.3229
12808TIP3    H159915   1.378   1.307   2.823  1.5578  0.1111 -0.1356
12808TIP3    H259916   1.346   1.271   2.966 -1.3492 -0.7346 -0.9726
12809TIP3   OH259917   2.208   5.888  13.138 -0.0692  1.0156 -0.1677
12809TIP3    H159918   2.300   5.913  13.126  0.6363 -1.3302  0.0939
12809TIP3    H259919   2.194   5.891  13.232  0.0916  0.2323 -0.1144
12810TIP3   OH259920   6.146   3.719  17.080  0.0350 -0.0522  0.1253
12810TIP3    H159921   6.218   3.775  17.051  0.1571 -0.5694 -0.5840
12810TIP3    H259922   6.147   3.644  17.020 -1.8431  0.5092 -0.6444
12811TIP3   OH259923   2.264   6.376  15.944 -0.0639 -0.3375  0.1927
12811TIP3    H159924   2.173   6.348  15.948 -0.6933  1.6603  0.4372
12811TIP3    H259925   2.302   6.348  16.028 -1.3403  1.6937  1.4841
12812TIP3   OH259926   6.526   0.929   5.716  0.0457  0.2773  0.6360
12812TIP3    H159927   6.491   0.896   5.799  0.4401  1.5018  1.2971
12812TIP3    H259928   6.615   0.893   5.711 -0.8868 -2.0013 -0.5629
12813TIP3   OH259929   1.474   6.303   3.466  0.1519 -0.5396  0.6320
12813TIP3    H159930   1.387   6.293   3.430 -0.4276  0.6452  1.6463
12813TIP3    H259931   1.523   6.227   3.435 -0.7256 -0.2896 -1.4159
12814TIP3   OH259932   2.857   6.387   1.735  0.1260 -0.4494 -0.1910
12814TIP3    H159933   2.776   6.366   1.688  1.5249 -2.2825 -1.8777
12814TIP3    H259934   2.867   6.481   1.724 -1.9491 -0.1483  0.3386
12815TIP3   OH259935   5.633   5.162  13.352 -0.1286 -0.6703 -1.0053
12815TIP3    H159936   5.633   5.231  13.419 -1.3499 -0.2752 -1.4030
12815TIP3    H259937   5.721   5.125  13.356  0.7781  1.3838 -1.2682
12816TIP3   OH259938   6.324   2.519  12.858  0.1455  0.0930 -0.0525
12816TIP3    H159939   6.294   2.428  12.861  0.5418 -0.0567 -0.4626
12816TIP3    H259940   6.263   2.567  12.914  0.2881 -0.5247  0.6355
12817TIP3   OH259941   2.665   0.178   5.264  0.0054  0.5376 -0.1958
12817TIP3    H159942   2.608   0.164   5.339  0.2610  2.5365  0.3954
12817TIP3    H259943   2.751   0.144   5.292 -0.1193  0.4464  0.0762
12818TIP3   OH259944   5.835   2.568   1.538  0.5716 -0.0713  0.3104
12818TIP3    H159945   5.785   2.550   1.617 -1.6163  3.8936 -0.0637
12818TIP3    H259946   5.771   2.562   1.467  1.8275 -0.4240 -0.8172
12819TIP3   OH259947   3.605   3.970   3.086 -0.3458 -0.1512  0.4686
12819TIP3    H159948   3.678   4.024   3.115  0.3599 -0.2929 -0.9894
12819TIP3    H259949   3.529   4.004   3.133  0.2357  1.5865  0.1767
12820TIP3   OH259950   3.448   0.890   0.292  0.1334 -0.4423  0.0132
12820TIP3    H159951   3.360   0.871   0.324  0.0706 -1.9459 -0.9998
12820TIP3    H259952   3.457   0.837   0.213  1.5607  0.5194 -0.4966
12821TIP3   OH259953   4.122   5.372  10.706 -0.0757  0.0094 -0.7281
12821TIP3    H159954   4.045   5.423  10.732 -0.0358 -1.0985  1.7753
12821TIP3    H259955   4.192   5.436  10.700 -0.6767  0.6918 -0.6394
12822TIP3   OH259956   0.541   3.711   4.475  0.1606  0.4869 -0.0814
12822TIP3    H159957   0.507   3.655   4.405  0.6628 -1.3608  1.1116
12822TIP3    H259958   0.596   3.775   4.430  0.4925 -0.6902 -1.3827
12823TIP3   OH259959   5.164   6.302   0.390 -0.2017 -0.2237  0.3842
12823TIP3    H159960   5.069   6.312   0.388 -0.2642 -0.9017 -0.1044
12823TIP3    H259961   5.197   6.391   0.379 -0.7822 -0.1059 -0.4440
12824TIP3   OH259962   2.515   5.344  15.482 -0.0591  0.1718  0.2027
12824TIP3    H159963   2.492   5.341  15.575 -1.3134  2.2151 -0.0200
12824TIP3    H259964   2.436   5.311  15.438  1.1582 -2.4873 -0.0828
12825TIP3   OH259965   0.991   0.822  13.395 -0.3258  0.1162 -0.0728
12825TIP3    H159966   1.060   0.797  13.456  0.3732  1.7624 -0.1538
12825TIP3    H259967   0.939   0.887  13.444  0.3923  1.6481 -1.3025
12826TIP3   OH259968   2.121   5.993  11.646  0.4078 -0.2933 -0.4073
12826TIP3    H159969   2.030   5.967  11.631  0.9937 -2.7544 -0.0089
12826TIP3    H259970   2.147   5.943  11.724  0.9544  3.3056  1.7993
12827TIP3   OH259971   4.450   6.448   4.065 -0.6037 -0.2834 -0.2581
12827TIP3    H159972   4.447   6.544   4.058  1.5450 -0.1506  0.0309
12827TIP3    H259973   4.452   6.431   4.159 -0.7243 -0.5826 -0.3117
12828TIP3   OH259974   5.057   1.790  17.228 -0.4675  0.3269 -0.3688
12828TIP3    H159975   5.107   1.710  17.243 -1.4889 -0.2256  0.1504
12828TIP3    H259976   5.057   1.801  17.133  1.9361  1.1904 -0.2929
12829TIP3   OH259977   2.340   6.591  12.628 -0.2070  0.7116  0.0252
12829TIP3    H159978   2.248   6.584  12.602 -0.1607  0.9492 -0.2060
12829TIP3    H259979   2.338   6.578  12.723 -0.8685  3.6845  0.4833
12830TIP3   OH259980   2.626   4.197   0.232  0.8065 -0.8444  0.3274
12830TIP3    H159981   2.701   4.159   0.277 -0.8422 -1.3278  2.7577
12830TIP3    H259982   2.553   4.186   0.293 -0.7223  1.9156 -0.8961
12831TIP3   OH259983   4.973   0.779  15.698  0.2475 -0.0815  0.4099
12831TIP3    H159984   5.017   0.852  15.742  0.9932  0.4690 -1.2014
12831TIP3    H259985   4.895   0.819  15.659 -0.5938 -0.6357  1.4805
12832TIP3   OH259986   5.259   6.400  11.832  0.2880  0.2944 -0.0131
12832TIP3    H159987   5.266   6.412  11.926 -0.5502  0.2344  0.0619
12832TIP3    H259988   5.165   6.399  11.815  0.4069 -0.9958 -0.6781
12833TIP3   OH259989   0.151   3.072  16.225  0.1980 -0.4026 -0.0334
12833TIP3    H159990   0.119   3.002  16.169  1.6336 -0.3178 -1.0076
12833TIP3    H259991   0.242   3.047  16.245  0.1020  0.2015  1.2210
12834TIP3   OH259992   0.158   3.504   0.124  0.0476 -0.1978 -0.0454
12834TIP3    H159993   0.066   3.517   0.102  0.0514  1.8016  0.9921
12834TIP3    H259994   0.157   3.446   0.200 -0.1647 -3.0542 -2.1369
12835TIP3   OH259995   1.996   5.811   3.948 -0.6375 -0.0032 -0.3709
12835TIP3    H159996   2.044   5.740   3.906  1.7723  0.2838  1.7431
12835TIP3    H259997   1.967   5.775   4.031 -1.5692  0.7250 -0.3765
12836TIP3   OH259998   1.057   5.705   5.660  0.0155  0.8468  0.3651
12836TIP3    H159999   1.117   5.756   5.714 -0.4102  0.5743  1.1015
12836TIP3    H260000   1.047   5.756   5.580  3.2899 -0.3599 -0.8854
12837TIP3   OH260001   1.542   0.488   0.059  0.0944  0.0895 -0.1002
12837TIP3    H160002   1.630   0.488   0.023  0.0046 -0.7010 -0.3378
12837TIP3    H260003   1.543   0.421   0.126 -0.1642  0.4907  0.3103
12838TIP3   OH260004   2.143   1.775  16.371 -0.0057 -0.2691  0.1791
12838TIP3    H160005   2.061   1.728  16.386  0.0351  0.0104  1.3582
12838TIP3    H260006   2.147   1.787  16.276 -0.1177 -2.4391 -0.1280
12839TIP3   OH260007   3.633   6.095  13.877 -0.3124 -0.1769 -0.7217
12839TIP3    H160008   3.700   6.119  13.941  1.2841 -1.9512 -1.6669
12839TIP3    H260009   3.551   6.128  13.914  0.8009  0.2737  1.4130
12840TIP3   OH260010   6.765   3.643   1.062 -0.1971 -0.1133  0.3332
12840TIP3    H160011   6.738   3.584   0.992 -1.0215  0.2408  0.3476
12840TIP3    H260012   6.702   3.627   1.133 -0.4748  0.8210  0.3094
12841TIP3   OH260013   4.866   0.028   6.964 -0.2431 -0.3656  0.2292
12841TIP3    H160014   4.878   0.117   6.930 -0.9017  0.2358  1.5512
12841TIP3    H260015   4.899  -0.029   6.894  1.2900  0.9459 -0.1359
12842TIP3   OH260016   2.474   0.525  13.251  0.1428  0.1265 -0.5128
12842TIP3    H160017   2.518   0.442  13.233  1.8271  1.1563 -1.2514
12842TIP3    H260018   2.529   0.568  13.316  0.2275  1.4185 -1.4086
12843TIP3   OH260019   2.531   6.417  13.258  0.0230  0.0984  0.1344
12843TIP3    H160020   2.557   6.420  13.350 -3.4523  3.4055  1.1268
12843TIP3    H260021   2.468   6.345  13.253  1.7761 -1.4606 -0.1814
12844TIP3   OH260022   6.799   3.480  11.221 -0.1067  0.5547 -0.2892
12844TIP3    H160023   6.819   3.389  11.200 -0.2243  0.8179 -1.5859
12844TIP3    H260024   6.805   3.526  11.137  1.4632  2.0238  0.6074
12845TIP3   OH260025   2.073   0.064  13.331 -0.1452  0.3705  0.1382
12845TIP3    H160026   1.993   0.063  13.384 -0.8992 -0.3659 -0.9924
12845TIP3    H260027   2.144   0.061  13.395 -1.0527 -1.1753  1.1079
12846TIP3   OH260028   5.148   4.947   5.056 -0.1645 -0.1555 -0.2249
12846TIP3    H160029   5.207   4.939   5.131  0.0518  0.0614 -0.3700
12846TIP3    H260030   5.092   5.022   5.078 -2.4529 -2.2677  1.3175
12847TIP3   OH260031   5.516   4.138  16.246  0.5001 -0.0235  0.6002
12847TIP3    H160032   5.470   4.200  16.303  0.6462 -0.2349  0.9521
12847TIP3    H260033   5.482   4.052  16.271 -0.9947  0.0520 -1.0942
12848TIP3   OH260034   1.638   2.134   0.211 -0.7090  0.5135 -0.0737
12848TIP3    H160035   1.646   2.040   0.228 -0.5490  0.7644  1.3243
12848TIP3    H260036   1.703   2.152   0.142  1.3622  0.1100  1.7101
12849TIP3   OH260037   3.046   1.630  13.700 -0.7508  0.2670 -0.3653
12849TIP3    H160038   3.086   1.563  13.644  0.2647  0.6380 -0.0964
12849TIP3    H260039   3.087   1.712  13.672 -2.1615  0.8092 -0.8533
12850TIP3   OH260040   5.229   2.939  11.475 -0.3316 -0.0739 -0.3325
12850TIP3    H160041   5.145   2.904  11.445  0.0455 -1.8672  0.6634
12850TIP3    H260042   5.283   2.943  11.396 -1.7067  2.2599 -1.2263
12851TIP3   OH260043   4.351   0.072  13.540 -0.2774 -0.3629 -0.1719
12851TIP3    H160044   4.397   0.129  13.478 -1.0305 -0.2541 -0.6412
12851TIP3    H260045   4.417   0.047  13.604  0.4856 -0.3954 -0.9670
12852TIP3   OH260046   5.956   2.413  16.755  0.3033 -0.0300  0.1725
12852TIP3    H160047   5.907   2.348  16.806 -0.6327 -1.1744 -2.1151
12852TIP3    H260048   5.902   2.430  16.679  2.9766 -0.5620 -1.9429
12853TIP3   OH260049   5.544   5.845  15.260  0.2294 -0.2641  0.7314
12853TIP3    H160050   5.499   5.916  15.307  0.0129  0.2886 -0.3085
12853TIP3    H260051   5.483   5.820  15.191 -0.0567 -2.0378  1.5873
12854TIP3   OH260052   0.135   0.874  15.554  0.1966  0.5102  0.0941
12854TIP3    H160053   0.150   0.790  15.512  0.0304  0.7208 -0.3852
12854TIP3    H260054   0.046   0.868  15.590  1.1829 -0.5462  2.4884
12855TIP3   OH260055   1.533   1.219  13.506  0.2514  0.1621  0.1534
12855TIP3    H160056   1.485   1.143  13.474 -1.2048  1.2678 -0.3452
12855TIP3    H260057   1.473   1.262  13.567  2.1185 -0.6201  2.6411
12856TIP3   OH260058   5.707   0.544  17.239 -0.4002 -0.4550 -0.2994
12856TIP3    H160059   5.785   0.513  17.286 -0.2462 -0.2911 -0.4404
12856TIP3    H260060   5.635   0.494  17.275 -0.4676  0.5457  1.0081
12857TIP3   OH260061   0.432   3.456  13.628  0.0272 -0.0480  0.2573
12857TIP3    H160062   0.382   3.466  13.708 -0.6557 -1.6569  0.0534
12857TIP3    H260063   0.372   3.413  13.567  0.6313  0.8759 -1.0122
12858TIP3   OH260064   2.323   0.068  13.544 -0.5520  0.3262  0.0605
12858TIP3    H160065   2.342  -0.007  13.488 -1.8000 -1.0491  1.4683
12858TIP3    H260066   2.406   0.086  13.588 -0.6778 -1.2845  0.9719
12859TIP3   OH260067   4.996   6.139  16.534  0.5961  0.5923 -0.0217
12859TIP3    H160068   5.005   6.154  16.628 -0.7901 -0.0048  0.2198
12859TIP3    H260069   4.919   6.190  16.508  0.0716 -0.4331 -0.5285
12860TIP3   OH260070   5.407   3.295  14.370 -0.2525 -0.0117 -0.7000
12860TIP3    H160071   5.496   3.331  14.375 -0.3630  0.0983  0.3952
12860TIP3    H260072   5.420   3.206  14.336  0.4139 -0.5282  0.8695
12861TIP3   OH260073   1.981   4.682   6.005  0.0438  0.2554  1.0185
12861TIP3    H160074   2.024   4.634   6.075 -0.3445  1.0388  1.8020
12861TIP3    H260075   2.012   4.772   6.016  0.6777  0.2208 -0.3663
12862TIP3   OH260076   3.450   5.161  15.507  0.1795 -0.2822 -0.0085
12862TIP3    H160077   3.425   5.148  15.599  0.9234 -0.4970  0.1713
12862TIP3    H260078   3.499   5.243  15.507  0.8764 -0.6908 -0.0678
12863TIP3   OH260079   0.102   6.372   0.032 -0.1728  0.5786  0.4420
12863TIP3    H160080   0.073   6.353  -0.057  2.8373  2.3534 -1.0262
12863TIP3    H260081   0.023   6.371   0.085 -2.0665 -0.1763 -2.3416
12864TIP3   OH260082   3.915   0.709   5.280  0.5891  0.3408 -0.6122
12864TIP3    H160083   3.830   0.666   5.288  0.6679  0.0844 -1.1202
12864TIP3    H260084   3.942   0.691   5.190  1.4589 -0.0915 -0.2638
12865TIP3   OH260085   1.813   5.808  13.400  0.2369 -0.4398  0.4377
12865TIP3    H160086   1.862   5.855  13.333  1.9276 -0.4034  1.6563
12865TIP3    H260087   1.727   5.850  13.401 -0.0874 -0.9843 -2.2419
12866TIP3   OH260088   6.280   2.728  13.899  0.2047 -0.3066  0.5322
12866TIP3    H160089   6.247   2.761  13.815  2.4430  4.3066  1.3284
12866TIP3    H260090   6.358   2.678  13.876 -0.7762 -1.4811 -0.3336
12867TIP3   OH260091   0.232   4.746   0.093 -0.0128 -0.1295 -0.1152
12867TIP3    H160092   0.233   4.651   0.085  0.2575 -0.1128 -0.2953
12867TIP3    H260093   0.140   4.771   0.082 -0.3619 -0.5125  1.7548
12868TIP3   OH260094   6.257   1.986   1.198 -0.4453 -0.3228 -0.0833
12868TIP3    H160095   6.206   2.066   1.189 -1.4539 -0.6172  2.3663
12868TIP3    H260096   6.192   1.918   1.216  0.4448 -1.5756 -1.5397
12869TIP3   OH260097   1.608   6.335   1.327 -0.2565  0.0239 -0.3137
12869TIP3    H160098   1.533   6.389   1.353  0.5905  2.1672 -2.0940
12869TIP3    H260099   1.584   6.302   1.240  1.2520  1.5678 -1.3387
12870TIP3   OH260100   4.706   1.277   4.056 -0.3938  0.0666 -0.1669
12870TIP3    H160101   4.748   1.361   4.077 -1.2262 -0.0270  1.9947
12870TIP3    H260102   4.685   1.284   3.963 -1.4981  2.7618  0.2089
12871TIP3   OH260103   1.403   6.770   6.425  0.3941 -0.1716 -0.7236
12871TIP3    H160104   1.440   6.682   6.434 -0.0228 -0.0973  2.2373
12871TIP3    H260105   1.426   6.814   6.507 -0.0535  2.2428 -1.8601
12872TIP3   OH260106   3.581   3.933   5.132  0.1396  0.2019 -0.2510
12872TIP3    H160107   3.557   3.871   5.200  0.1302  0.9061  0.4051
12872TIP3    H260108   3.660   3.897   5.093  1.0215  0.5406  1.1636
12873TIP3   OH260109   1.114   0.649  14.615  0.3473  0.0265 -0.0844
12873TIP3    H160110   1.207   0.665  14.598  0.1569  0.7325 -0.5042
12873TIP3    H260111   1.072   0.658  14.530 -0.1762  0.2306  0.1903
12874TIP3   OH260112   3.971   0.444   0.687 -0.4238  0.3133 -0.4037
12874TIP3    H160113   3.889   0.441   0.735  0.0780  3.0140  0.7012
12874TIP3    H260114   3.959   0.514   0.623  0.4827 -0.2910 -1.2426
12875TIP3   OH260115   2.160   5.752  15.962  0.1504 -0.0514 -0.4510
12875TIP3    H160116   2.074   5.792  15.974  0.1291  0.0380 -0.8938
12875TIP3    H260117   2.166   5.687  16.032 -0.2037  0.0632 -0.3123
12876TIP3   OH260118   2.184   5.453   6.547  0.3286 -0.1146 -0.1771
12876TIP3    H160119   2.142   5.538   6.560  0.2861 -0.1761  0.0772
12876TIP3    H260120   2.264   5.474   6.499  0.0679  0.0135 -0.5628
12877TIP3   OH260121   4.340   3.782  16.564  0.6700  0.3634 -0.2942
12877TIP3    H160122   4.309   3.764  16.653  0.2016 -2.0474 -0.9221
12877TIP3    H260123   4.288   3.857  16.535  0.4628  0.8374  1.2717
12878TIP3   OH260124   0.609   5.482  13.251  0.4116 -0.5525  0.2768
12878TIP3    H160125   0.605   5.480  13.155  0.5569 -0.6224  0.2729
12878TIP3    H260126   0.694   5.520  13.271  0.7276 -1.2883  0.3739
12879TIP3   OH260127   6.230   4.984   3.273 -0.1167  0.2323 -0.2735
12879TIP3    H160128   6.279   4.918   3.323 -0.6258 -0.6207 -0.9008
12879TIP3    H260129   6.273   5.067   3.295 -0.7105 -0.0520  2.0785
12880TIP3   OH260130   1.878   2.942  12.047 -0.5047  0.1996 -0.2436
12880TIP3    H160131   1.897   2.884  12.120 -0.8996  1.1672  0.6371
12880TIP3    H260132   1.856   2.883  11.975 -1.4759 -0.7321  0.7916
12881TIP3   OH260133   6.446   5.527   4.657  0.3249  0.1848  0.5940
12881TIP3    H160134   6.411   5.460   4.598 -0.1566  0.9524 -0.0009
12881TIP3    H260135   6.390   5.521   4.735  0.4056 -0.2281  0.6264
12882TIP3   OH260136   2.466   0.247  15.954 -0.1400  0.5362  0.2453
12882TIP3    H160137   2.397   0.298  15.913 -0.1732  2.0664  2.1192
12882TIP3    H260138   2.447   0.156  15.929 -2.2097  1.0533 -0.1459
12883TIP3   OH260139   5.597   4.351   1.038  0.2051 -0.2214  0.2569
12883TIP3    H160140   5.552   4.293   1.101  2.2352  0.1805  2.1547
12883TIP3    H260141   5.543   4.429   1.035 -0.1175 -0.3926  1.2546
12884TIP3   OH260142   0.621   5.369  16.199  0.2036  0.2886 -0.1487
12884TIP3    H160143   0.573   5.331  16.273  0.4000  2.4539  1.1171
12884TIP3    H260144   0.553   5.391  16.135  0.0182 -1.4428 -0.5900
12885TIP3   OH260145   1.684   5.450  15.880 -0.3196 -0.7067  0.3648
12885TIP3    H160146   1.758   5.427  15.824 -0.5179  0.4243 -0.3698
12885TIP3    H260147   1.724   5.477  15.963  0.0336 -1.0766  0.3190
12886TIP3   OH260148   2.325   2.626  10.796 -0.1539 -0.0585 -0.6382
12886TIP3    H160149   2.338   2.600  10.704  0.5568 -0.2433 -0.4879
12886TIP3    H260150   2.230   2.622  10.809 -0.1161 -1.7831 -0.8550
12887TIP3   OH260151   3.252   1.094  13.215  0.0226 -0.5615 -0.2556
12887TIP3    H160152   3.316   1.118  13.148  1.4638  1.4558  1.7470
12887TIP3    H260153   3.302   1.041  13.278  0.1331  2.0141  1.9400
12888TIP3   OH260154   1.258   0.796   5.381  0.4388 -0.1736  0.0007
12888TIP3    H160155   1.243   0.764   5.292 -0.9260 -0.2098  0.2306
12888TIP3    H260156   1.172   0.788   5.424  0.9744  0.2899  1.1717
12889TIP3   OH260157   1.428   5.609   5.814 -0.5757 -0.6991  0.0974
12889TIP3    H160158   1.509   5.561   5.834  0.4225  0.4153 -1.1545
12889TIP3    H260159   1.383   5.554   5.750 -0.8364 -1.3636  0.8555
12890TIP3   OH260160   1.408   2.152   0.336 -0.5258 -0.7416  0.2747
12890TIP3    H160161   1.406   2.081   0.400  0.3789 -1.3119 -0.2952
12890TIP3    H260162   1.486   2.133   0.283 -1.0856 -0.1294 -0.7974
12891TIP3   OH260163   1.719   0.070  16.361  0.3435 -0.0908  0.3464
12891TIP3    H160164   1.713   0.164  16.374 -0.3151  0.1298 -1.2906
12891TIP3    H260165   1.656   0.032  16.423  1.2168  0.4731  1.5864
12892TIP3   OH260166   5.851   3.269   4.915 -0.4792 -0.0484  0.3054
12892TIP3    H160167   5.857   3.362   4.892 -0.3960  0.0516  0.7262
12892TIP3    H260168   5.760   3.246   4.898 -0.4947  0.1029  0.1807
12893TIP3   OH260169   1.070   3.448   6.163  0.0668  0.2320 -0.0032
12893TIP3    H160170   1.026   3.383   6.218 -0.4904  0.2636 -0.4125
12893TIP3    H260171   1.050   3.531   6.205  0.4143  0.1846  0.2677
12894TIP3   OH260172   1.814   2.427  13.959 -0.8838  0.0275  0.5655
12894TIP3    H160173   1.727   2.418  13.920 -1.0652  2.2703  0.3932
12894TIP3    H260174   1.864   2.476  13.894 -0.4705  1.6530  2.0627
12895TIP3   OH260175   3.642   2.395   6.465  0.0656  0.3540 -0.4537
12895TIP3    H160176   3.710   2.335   6.494 -2.2965 -1.2641  2.0072
12895TIP3    H260177   3.683   2.481   6.467  2.5460 -0.7847 -0.8079
12896TIP3   OH260178   4.478   4.966   4.746  0.3272 -0.0457 -0.4153
12896TIP3    H160179   4.483   5.041   4.804 -0.0491  0.6185 -1.2353
12896TIP3    H260180   4.387   4.937   4.752  0.8540 -1.4826  1.1838
12897TIP3   OH260181   3.191   5.061  15.577  0.0557  0.0364 -0.2936
12897TIP3    H160182   3.206   5.153  15.601 -0.1034 -0.3818  1.4608
12897TIP3    H260183   3.113   5.064  15.522  0.1508  0.9666 -0.4003
12898TIP3   OH260184   3.194   5.495  13.334  0.1172 -0.0995  0.0619
12898TIP3    H160185   3.099   5.493  13.321  0.0814  1.8446 -0.0738
12898TIP3    H260186   3.229   5.520  13.249  0.5835  1.6436  0.7493
12899TIP3   OH260187   6.678   0.118  13.765  0.1517  0.4967  0.3797
12899TIP3    H160188   6.696   0.088  13.854 -0.2426  2.4104  1.1432
12899TIP3    H260189   6.704   0.045  13.709 -0.0742 -0.9370  2.0874
12900TIP3   OH260190   1.699   1.960  11.236  0.8996 -0.1238  0.1157
12900TIP3    H160191   1.742   2.041  11.264 -0.9887  0.9778 -0.0919
12900TIP3    H260192   1.682   1.913  11.318 -0.2366  0.8398  0.4366
12901TIP3   OH260193   1.187   5.942  16.958  0.7313  0.0213 -0.1516
12901TIP3    H160194   1.208   5.865  17.010 -0.2575 -0.0191  0.1992
12901TIP3    H260195   1.243   6.011  16.994  0.2030 -0.0555  0.8459
12902TIP3   OH260196   4.398   5.248  14.248  0.4322 -0.2189  0.4662
12902TIP3    H160197   4.477   5.269  14.197  0.1515  1.3502  0.6522
12902TIP3    H260198   4.327   5.288  14.198 -0.0529 -0.1967  1.1761
12903TIP3   OH260199   4.378   4.688  13.225 -0.3035 -0.8029  0.2486
12903TIP3    H160200   4.352   4.604  13.187  1.4653 -1.1741 -0.1918
12903TIP3    H260201   4.367   4.676  13.320 -3.1449 -0.4278  0.0182
12904TIP3   OH260202   1.572   6.642   4.452 -0.1273 -0.3326 -0.1253
12904TIP3    H160203   1.482   6.655   4.482 -0.0683 -2.0527  0.9187
12904TIP3    H260204   1.573   6.551   4.422  1.2595 -0.3191 -0.1152
12905TIP3   OH260205   6.655   1.291  16.972  0.1874  0.0698 -0.5518
12905TIP3    H160206   6.594   1.357  16.940  0.9420 -0.2723 -2.7639
12905TIP3    H260207   6.721   1.341  17.021 -0.8114  0.6278  0.2390
12906TIP3   OH260208   3.676   2.078  14.611  0.2287 -0.2385 -0.5366
12906TIP3    H160209   3.732   2.017  14.659  1.1327  0.7659 -0.2918
12906TIP3    H260210   3.602   2.094  14.670  1.1559  0.7134  0.4007
12907TIP3   OH260211   6.110   5.249  14.527 -0.1249  0.2778  0.1314
12907TIP3    H160212   6.075   5.265  14.615  2.0682  0.2135  1.0578
12907TIP3    H260213   6.198   5.288  14.529  0.5247 -1.0326 -1.5348
12908TIP3   OH260214   0.163   1.160  13.064 -0.3547  0.2439 -0.7248
12908TIP3    H160215   0.141   1.181  13.154  1.2278  0.2383 -0.3246
12908TIP3    H260216   0.158   1.064  13.060  1.3048  0.1227 -0.1682
12909TIP3   OH260217   2.531   2.556   0.392 -0.2058 -0.1831 -0.4044
12909TIP3    H160218   2.580   2.512   0.462 -0.0208  0.4784 -0.1104
12909TIP3    H260219   2.540   2.499   0.316  0.0303 -0.6523 -0.0244
12910TIP3   OH260220   5.931   3.264   5.857  1.0242 -0.2181  0.0697
12910TIP3    H160221   5.848   3.234   5.894  0.7630 -1.0087 -1.1278
12910TIP3    H260222   5.944   3.350   5.896  0.3898 -0.7120  1.4187
12911TIP3   OH260223   0.069   3.202  14.426 -0.2855 -0.1175 -0.0264
12911TIP3    H160224   0.155   3.230  14.396 -0.2835  1.5472  1.4796
12911TIP3    H260225   0.086   3.126  14.481  0.1616 -0.1029 -0.1445
12912TIP3   OH260226   6.161   1.176   5.311  0.8121  0.7031  0.2231
12912TIP3    H160227   6.105   1.112   5.267  2.0411 -0.2384 -0.0175
12912TIP3    H260228   6.101   1.241   5.346 -0.6058 -1.3313  1.7215
12913TIP3   OH260229   1.416   3.966   2.880 -0.0786 -0.3748 -0.4784
12913TIP3    H160230   1.367   3.944   2.800  0.9486 -1.3355 -0.8604
12913TIP3    H260231   1.380   3.907   2.946 -0.6286  0.1201 -0.3311
12914TIP3   OH260232   4.961   5.290   1.389  0.0631 -0.0786  0.3563
12914TIP3    H160233   4.886   5.244   1.353 -0.6771  1.1548  0.2777
12914TIP3    H260234   4.932   5.381   1.396  0.5203 -0.0877  3.1110
12915TIP3   OH260235   3.133   2.967  15.017  0.4788 -0.1536  0.1650
12915TIP3    H160236   3.205   2.944  14.958 -1.6782 -1.8966 -1.9070
12915TIP3    H260237   3.126   2.893  15.077  1.6120  0.8919  1.6441
12916TIP3   OH260238   1.514   4.337  13.210 -0.3939  0.3601 -0.5480
12916TIP3    H160239   1.485   4.338  13.119  1.1017  1.7853 -1.0317
12916TIP3    H260240   1.512   4.244  13.235  2.1941 -0.4229 -3.0330
12917TIP3   OH260241   0.348   4.181  16.899 -0.1266  0.5877  0.6042
12917TIP3    H160242   0.415   4.161  16.834 -1.2106 -0.5979 -0.1736
12917TIP3    H260243   0.308   4.096  16.920 -2.0801  1.3982  0.2814
12918TIP3   OH260244   4.438   5.207   3.276 -0.6146 -0.2020 -0.1234
12918TIP3    H160245   4.420   5.116   3.301  0.0213  0.0980  1.5557
12918TIP3    H260246   4.403   5.259   3.349  0.9126  0.7559 -0.0344
12919TIP3   OH260247   6.072   0.982  10.454  0.0381 -0.0322 -0.4530
12919TIP3    H160248   5.989   0.988  10.408 -0.1775  0.5739  0.0088
12919TIP3    H260249   6.105   0.895  10.433 -1.3755 -0.8184  0.4754
12920TIP3   OH260250   3.506   0.907  11.477 -0.3695 -0.3327  0.2972
12920TIP3    H160251   3.474   0.982  11.527 -1.7053 -0.3848 -0.4398
12920TIP3    H260252   3.447   0.835  11.502 -0.2534 -0.6689 -0.3799
12921TIP3   OH260253   0.218   0.623  15.849  0.4554 -0.0055  0.2647
12921TIP3    H160254   0.295   0.676  15.826  0.9142 -1.0311 -0.5920
12921TIP3    H260255   0.160   0.684  15.894  0.9893  1.2327 -0.6924
12922TIP3   OH260256   5.033   1.519   5.920  0.3056 -0.0207 -0.1096
12922TIP3    H160257   5.093   1.592   5.904  2.9347 -2.4002 -1.3126
12922TIP3    H260258   5.046   1.498   6.013  0.8303 -0.1208 -0.2079
12923TIP3   OH260259   2.554   3.623   0.414 -0.2036  0.1363 -0.2535
12923TIP3    H160260   2.593   3.692   0.468  0.9114 -0.5205 -0.2016
12923TIP3    H260261   2.627   3.588   0.363 -0.7335 -1.0701 -0.2012
12924TIP3   OH260262   0.842   5.108  14.316 -0.3562  0.0889 -0.1420
12924TIP3    H160263   0.832   5.107  14.411 -1.2377 -2.1545 -0.2210
12924TIP3    H260264   0.752   5.108  14.283 -0.0606  1.4266 -0.9992
12925TIP3   OH260265   6.384   4.956   2.912 -0.6774  0.4693  0.6936
12925TIP3    H160266   6.354   5.039   2.875 -0.9931  0.0444 -0.0089
12925TIP3    H260267   6.308   4.898   2.907  0.3557 -0.7812 -1.6142
12926TIP3   OH260268   4.602   2.415  11.766  0.1166 -0.5690 -0.2822
12926TIP3    H160269   4.696   2.405  11.782  0.2060  1.3952  0.5260
12926TIP3    H260270   4.588   2.371  11.682  1.9792  0.1717 -1.0161
12927TIP3   OH260271   2.870   6.326   4.410 -0.9422  0.4128 -0.1713
12927TIP3    H160272   2.899   6.237   4.431 -3.1658 -0.7985 -2.0383
12927TIP3    H260273   2.884   6.335   4.316 -2.2581  1.4471 -0.2905
12928TIP3   OH260274   6.268   6.051   4.058 -0.2121  0.4980 -0.3548
12928TIP3    H160275   6.307   5.966   4.077 -1.5037 -0.3301 -1.2840
12928TIP3    H260276   6.209   6.068   4.132  0.2967  0.7497 -0.0040
12929TIP3   OH260277   6.610   3.723   2.925  0.5628 -0.0696  0.1559
12929TIP3    H160278   6.526   3.698   2.887 -0.5473  3.1890  0.2557
12929TIP3    H260279   6.588   3.760   3.011  2.1430  0.2697  0.4383
12930TIP3   OH260280   1.880   5.197  16.361 -0.1922  0.7024  0.2179
12930TIP3    H160281   1.885   5.223  16.269 -1.7883  2.7611  0.6761
12930TIP3    H260282   1.796   5.152  16.369  0.2575 -0.0925  0.5339
12931TIP3   OH260283   6.280   0.285  13.813  0.0292  0.4467  0.8325
12931TIP3    H160284   6.347   0.238  13.763 -0.0027  0.9731  0.2963
12931TIP3    H260285   6.242   0.218  13.870  0.2651 -0.0929  0.3595
12932TIP3   OH260286   6.438   3.170  10.781  0.0361  0.1143  0.0709
12932TIP3    H160287   6.403   3.100  10.726 -1.2254 -0.0795  1.0953
12932TIP3    H260288   6.361   3.219  10.809  0.5399 -0.4575  2.5787
12933TIP3   OH260289   3.182   1.190  15.972  0.1342 -0.5412 -0.8249
12933TIP3    H160290   3.102   1.242  15.962 -1.6939 -2.7722  1.6475
12933TIP3    H260291   3.233   1.238  16.037 -0.4796 -0.5765 -0.3099
12934TIP3   OH260292   4.556   1.774  15.501 -0.1564  0.1994 -0.0662
12934TIP3    H160293   4.635   1.826  15.490  0.8853 -1.6179 -1.3354
12934TIP3    H260294   4.523   1.799  15.588  1.6749  1.0941  0.3921
12935TIP3   OH260295   2.646   1.420  13.294 -0.2763  0.4079 -0.8035
12935TIP3    H160296   2.576   1.417  13.229 -0.3389  1.6324 -0.7978
12935TIP3    H260297   2.612   1.371  13.369 -1.6270  2.0270 -0.3258
12936TIP3   OH260298   6.652   6.327   4.540 -0.1980  0.2182  0.6203
12936TIP3    H160299   6.680   6.417   4.523 -0.0054  0.0937  0.2617
12936TIP3    H260300   6.733   6.277   4.545 -0.3280 -0.0573  0.0942
12937TIP3   OH260301   1.167   3.079  17.149  0.5210 -0.2726  0.0175
12937TIP3    H160302   1.246   3.031  17.122 -0.3483 -1.7335  0.0309
12937TIP3    H260303   1.148   3.136  17.075  1.4883 -0.0454 -0.0624
12938TIP3   OH260304   5.865   3.985   4.182 -0.0778 -0.6892 -0.2746
12938TIP3    H160305   5.852   3.893   4.203  0.8791 -0.9352 -0.7512
12938TIP3    H260306   5.780   4.026   4.201 -0.9048 -1.8919 -1.3417
12939TIP3   OH260307   2.663   3.533  16.267 -0.1533  0.8107 -0.1541
12939TIP3    H160308   2.654   3.496  16.179 -1.6360  0.8498 -0.0340
12939TIP3    H260309   2.635   3.464  16.326  1.2266  0.6446  0.3257
12940TIP3   OH260310   6.672   0.216  14.721 -0.7067 -0.5462  0.3290
12940TIP3    H160311   6.631   0.139  14.682 -1.4531  0.7613 -1.5298
12940TIP3    H260312   6.599   0.264  14.761 -0.1409 -1.1585  2.1515
12941TIP3   OH260313   3.873   1.946   4.302 -0.7837  0.6015  0.5923
12941TIP3    H160314   3.910   2.022   4.258  0.6492  0.7686  2.0516
12941TIP3    H260315   3.845   1.980   4.388 -0.2235 -0.4972  1.2100
12942TIP3   OH260316   5.758   4.510   5.645  0.1985  0.0059  0.3453
12942TIP3    H160317   5.839   4.539   5.603 -0.5845  0.6128 -0.7643
12942TIP3    H260318   5.759   4.415   5.638 -0.4351  0.1524 -2.0403
12943TIP3   OH260319   4.683   2.464  17.242  0.4758  0.0573 -0.7135
12943TIP3    H160320   4.599   2.501  17.214  1.3947  0.7901 -2.6597
12943TIP3    H260321   4.676   2.371  17.223  0.5067  0.2994 -1.9522
12944TIP3   OH260322   4.725   5.601   4.670  0.2033 -0.1298  0.4160
12944TIP3    H160323   4.637   5.614   4.634  0.6419 -0.7010 -0.9121
12944TIP3    H260324   4.714   5.606   4.765 -0.8513  2.4462  0.2000
12945TIP3   OH260325   6.687   5.651  12.072  0.6254 -0.3189  0.5677
12945TIP3    H160326   6.711   5.662  12.164 -3.6446 -0.0415  1.7612
12945TIP3    H260327   6.716   5.731  12.030  1.4463  0.1363  1.9731
12946TIP3   OH260328   4.854   0.077  13.112 -0.5224 -0.0092  0.0908
12946TIP3    H160329   4.855   0.105  13.204 -1.2978 -2.5438  0.9020
12946TIP3    H260330   4.771   0.110  13.078 -0.7827 -0.0779  0.6415
12947TIP3   OH260331   5.812   0.052   4.658 -0.1164  0.6314 -0.9022
12947TIP3    H160332   5.892   0.011   4.625  0.1583  1.9207 -1.8351
12947TIP3    H260333   5.842   0.111   4.727 -0.1843  1.6621 -1.7485
12948TIP3   OH260334   4.982   2.781   5.594  0.1704  0.4229  0.7480
12948TIP3    H160335   5.034   2.852   5.631 -0.5580  1.3567  0.0037
12948TIP3    H260336   5.042   2.736   5.535  0.9837 -0.3311  2.1291
12949TIP3   OH260337   3.207   1.937   0.646  0.0859 -0.2644 -0.0021
12949TIP3    H160338   3.201   1.843   0.629 -2.0851 -0.3367  0.9300
12949TIP3    H260339   3.123   1.972   0.616  0.7278  1.3295  0.0043
12950TIP3   OH260340   1.183   0.967  13.757  0.1166 -0.2659 -0.3973
12950TIP3    H160341   1.268   0.981  13.799 -1.2701 -1.4112  2.9429
12950TIP3    H260342   1.148   1.056  13.745  1.4512  0.1752 -1.1794
12951TIP3   OH260343   2.450   3.092  12.605 -0.1434 -0.9991 -0.3139
12951TIP3    H160344   2.540   3.123  12.610 -1.0023  1.5268 -0.0461
12951TIP3    H260345   2.408   3.127  12.683 -1.3905 -2.1260 -0.4655
12952TIP3   OH260346   6.255   0.180  12.511  0.2990  0.3618 -0.2301
12952TIP3    H160347   6.262   0.274  12.529  1.8479  0.0694  0.8496
12952TIP3    H260348   6.188   0.149  12.572  0.8197  0.5343  0.4447
12953TIP3   OH260349   2.393   5.850  15.854 -0.2057  0.3347 -0.0800
12953TIP3    H160350   2.383   5.938  15.817 -0.4127  0.6731  0.7811
12953TIP3    H260351   2.305   5.827  15.885  0.3012  0.7124  1.6726
12954TIP3   OH260352   3.897   4.854   6.420 -0.0567  0.1776 -0.0443
12954TIP3    H160353   3.970   4.795   6.399 -1.2314 -1.1010 -0.5500
12954TIP3    H260354   3.933   4.942   6.405  1.2960 -0.4420 -0.5633
12955TIP3   OH260355   6.589   5.384  13.808 -0.0552 -0.5688  0.3857
12955TIP3    H160356   6.578   5.289  13.817  0.6804 -0.6179  0.7954
12955TIP3    H260357   6.537   5.421  13.880 -0.7413 -0.6409 -0.0728
12956TIP3   OH260358   3.613   4.734   4.445  0.1526 -0.2895 -0.1753
12956TIP3    H160359   3.637   4.643   4.459 -0.5620 -0.0751  2.6456
12956TIP3    H260360   3.689   4.784   4.473 -0.4013  0.0683  0.7138
12957TIP3   OH260361   1.811   6.743  11.222  0.4533  0.1660 -0.3863
12957TIP3    H160362   1.805   6.717  11.314 -1.2646  0.2692 -0.4652
12957TIP3    H260363   1.875   6.683  11.184  2.0400  0.8515  1.1325
12958TIP3   OH260364   0.495   6.483   6.870  0.0034 -0.3475  0.5720
12958TIP3    H160365   0.429   6.431   6.916 -1.4155  0.8889  0.0001
12958TIP3    H260366   0.444   6.544   6.817  1.6149  1.2107  0.7662
12959TIP3   OH260367   3.911   2.720  13.555 -0.3073 -0.2229  0.2654
12959TIP3    H160368   3.958   2.645  13.591  0.1276  0.3572  0.9357
12959TIP3    H260369   3.820   2.691  13.548 -0.4699 -0.2526  2.1919
12960TIP3   OH260370   0.096   1.682  13.962 -0.1411  0.3282 -0.1738
12960TIP3    H160371   0.061   1.702  13.876 -1.7936 -1.3003  0.0668
12960TIP3    H260372   0.179   1.638  13.945  0.2936  1.4085 -0.8725
12961TIP3   OH260373   3.952   2.237  12.150 -0.1536  0.2931  0.3775
12961TIP3    H160374   4.048   2.233  12.141 -0.1762 -0.2399  0.3572
12961TIP3    H260375   3.924   2.297  12.081 -0.0901 -1.8136 -1.5119
12962TIP3   OH260376   0.731   4.771  12.852  0.1075 -0.2380  0.1167
12962TIP3    H160377   0.671   4.813  12.914 -1.0804 -1.5082 -0.1359
12962TIP3    H260378   0.813   4.819  12.860 -1.7382  3.3401 -1.5257
12963TIP3   OH260379   0.153   1.041  12.442  0.2817 -0.0490  0.5825
12963TIP3    H160380   0.162   1.018  12.535  1.8901  0.4477  0.5714
12963TIP3    H260381   0.189   1.130  12.436  0.2642 -0.1135 -0.5265
12964TIP3   OH260382   2.609   6.311  14.592  0.4219  0.0960 -0.1509
12964TIP3    H160383   2.657   6.297  14.510  0.3151 -0.6773 -0.0886
12964TIP3    H260384   2.668   6.280  14.660  0.0076 -0.4566 -0.0400
12965TIP3   OH260385   5.020   6.059  11.819  0.1182  0.0553  0.2822
12965TIP3    H160386   5.094   6.114  11.794  0.7147  0.7159  3.2472
12965TIP3    H260387   4.945   6.118  11.821  0.0019 -0.0753 -0.3321
12966TIP3   OH260388   3.284   3.977  15.848  0.7263  0.3573  0.0806
12966TIP3    H160389   3.353   4.043  15.857  1.9011 -1.1189  2.3359
12966TIP3    H260390   3.331   3.897  15.823 -0.5694  0.1188 -1.6653
12967TIP3   OH260391   5.979   3.596   5.762  0.4285  0.3178  0.4092
12967TIP3    H160392   6.034   3.568   5.835  0.3740 -0.2856  0.2231
12967TIP3    H260393   6.012   3.547   5.686 -0.4138 -0.1251  0.3159
12968TIP3   OH260394   0.249   4.446   5.156  0.2772  0.5007  0.2003
12968TIP3    H160395   0.235   4.510   5.086 -0.3757  0.5932  0.4123
12968TIP3    H260396   0.341   4.421   5.148 -0.8089 -2.8990 -3.6622
12969TIP3   OH260397   1.879   1.772   6.158 -0.5130  0.2329 -0.4373
12969TIP3    H160398   1.889   1.699   6.098  0.3697 -0.0998  0.1125
12969TIP3    H260399   1.962   1.777   6.205 -0.5586  1.5911 -0.4729
12970TIP3   OH260400   5.782   5.311  15.757 -0.2294 -0.3091 -0.3736
12970TIP3    H160401   5.853   5.365  15.790 -1.6004  2.6079 -2.0051
12970TIP3    H260402   5.811   5.283  15.670 -0.9525  0.7405 -0.9696
12971TIP3   OH260403   4.007   1.263  14.137  0.4153  0.4305 -0.5457
12971TIP3    H160404   4.083   1.222  14.097  0.1409 -0.8142  0.1819
12971TIP3    H260405   4.017   1.356  14.118  1.6799  0.1774 -1.1676
12972TIP3   OH260406   2.308   1.176   2.757 -0.7599 -0.7220  0.7396
12972TIP3    H160407   2.337   1.250   2.810  0.2822 -1.2869  0.9637
12972TIP3    H260408   2.369   1.106   2.778 -0.3563 -0.9639 -1.1843
12973TIP3   OH260409   3.124   0.351   6.570 -0.4702 -0.2021 -0.5075
12973TIP3    H160410   3.161   0.290   6.505 -1.2978 -0.5503 -0.6505
12973TIP3    H260411   3.186   0.424   6.571 -0.1977 -0.4098 -1.3551
12974TIP3   OH260412   6.433   1.437  16.297 -0.2853 -0.3011 -0.4174
12974TIP3    H160413   6.495   1.509  16.302  1.5917 -1.8861  0.0994
12974TIP3    H260414   6.349   1.474  16.321  0.8501  1.4582  0.8850
12975TIP3   OH260415   0.925   2.987   1.076  0.0763 -0.0145  0.1175
12975TIP3    H160416   0.924   2.894   1.097 -2.2567 -0.4933 -1.9173
12975TIP3    H260417   1.008   3.019   1.113  0.7477 -2.7990  1.1312
12976TIP3   OH260418   4.066   6.110  14.666 -0.1200 -0.5314  0.3026
12976TIP3    H160419   4.053   6.058  14.745 -2.1193  0.8775  0.9524
12976TIP3    H260420   4.088   6.197  14.698 -3.1064  0.6200 -0.5810
12977TIP3   OH260421   0.080   1.837  12.816  0.2997 -0.5253 -0.6259
12977TIP3    H160422   0.164   1.801  12.787 -0.2993 -1.5261 -1.1503
12977TIP3    H260423   0.103   1.894  12.889  1.2490 -2.3887  0.5928
12978TIP3   OH260424   5.550   2.927   2.171 -0.4786 -0.1219  0.2997
12978TIP3    H160425   5.464   2.938   2.131 -0.8513 -0.4522  1.0033
12978TIP3    H260426   5.537   2.947   2.263  0.3186  0.3595  0.3108
12979TIP3   OH260427   6.489   6.024   2.460  0.2789  0.2930 -0.3944
12979TIP3    H160428   6.543   5.986   2.390 -1.7556 -1.5873 -1.0082
12979TIP3    H260429   6.520   5.980   2.540  1.2332  0.9685 -0.3769
12980TIP3   OH260430   4.828   2.455   2.499 -0.2639 -0.5361  0.3383
12980TIP3    H160431   4.884   2.377   2.497  0.5936  0.0693  0.3730
12980TIP3    H260432   4.757   2.431   2.559  1.4285 -0.3591  2.4748
12981TIP3   OH260433   5.576   5.780   1.927 -0.2056  0.4341  0.2813
12981TIP3    H160434   5.590   5.685   1.931 -1.4070  0.2046 -0.7050
12981TIP3    H260435   5.531   5.801   2.009  0.0495  0.1648  0.4941
12982TIP3   OH260436   0.160   4.033  15.768 -0.4967  0.2607 -0.3077
12982TIP3    H160437   0.099   3.964  15.794  1.5142 -1.5835 -0.2987
12982TIP3    H260438   0.174   4.084  15.848 -0.9694 -0.1339  0.0279
12983TIP3   OH260439   0.267   4.487   6.305  0.2549 -0.3460 -0.1868
12983TIP3    H160440   0.359   4.507   6.286 -0.0329  0.8089 -0.4376
12983TIP3    H260441   0.219   4.521   6.229 -0.4801  0.1820  0.4984
12984TIP3   OH260442   0.690   3.367   5.311  0.0887 -0.0182 -0.1718
12984TIP3    H160443   0.731   3.379   5.226 -1.8332  2.3892 -0.8472
12984TIP3    H260444   0.596   3.362   5.292 -0.2816 -0.7062  1.6744
12985TIP3   OH260445   3.509   4.790   0.472  0.0619 -0.2946  0.4976
12985TIP3    H160446   3.592   4.794   0.424  0.1659 -1.1180  0.6027
12985TIP3    H260447   3.507   4.871   0.523 -0.1029  0.6429 -0.9614
12986TIP3   OH260448   0.365   0.268   0.018 -0.1986  0.4073  0.8441
12986TIP3    H160449   0.282   0.220   0.011  1.3101 -2.4031  1.4155
12986TIP3    H260450   0.369   0.296   0.110  0.3125 -1.1206  1.3127
12987TIP3   OH260451   2.031   1.264  17.113 -0.2627 -0.1129 -0.4643
12987TIP3    H160452   2.059   1.175  17.089  0.8248 -0.0576  0.5623
12987TIP3    H260453   1.936   1.263  17.102 -0.3986 -1.7637  0.6874
12988TIP3   OH260454   5.262   3.719  11.936  0.5778  0.0584 -0.0754
12988TIP3    H160455   5.304   3.668  12.005 -1.3247  0.1742  1.2207
12988TIP3    H260456   5.173   3.734  11.969 -0.6169 -0.5466 -2.9172
12989TIP3   OH260457   5.838   1.628   0.857  0.7588  0.2798  0.1359
12989TIP3    H160458   5.795   1.548   0.889 -0.5254  1.0178  0.2792
12989TIP3    H260459   5.851   1.611   0.763  0.3418 -0.0495  0.1331
12990TIP3   OH260460   1.950   5.358   3.581  0.2046 -0.4768  0.5078
12990TIP3    H160461   2.009   5.354   3.506  1.6577  0.8859  1.5242
12990TIP3    H260462   1.889   5.428   3.560  1.7314  1.1470  1.3329
12991TIP3   OH260463   6.041   5.128  16.975 -0.9758 -0.7524 -0.1017
12991TIP3    H160464   5.947   5.140  16.974 -0.9275 -0.3617  0.1232
12991TIP3    H260465   6.075   5.192  16.912 -0.8378 -0.6750  0.0499
12992TIP3   OH260466   5.256   1.772   6.659 -0.4350  0.5227 -0.1253
12992TIP3    H160467   5.211   1.691   6.635 -1.8198  1.8488 -2.0561
12992TIP3    H260468   5.216   1.798   6.742 -0.1542 -0.6032  0.3832
12993TIP3   OH260469   2.783   1.388  15.724 -0.6713 -0.7284  0.5023
12993TIP3    H160470   2.696   1.396  15.764  0.0236 -1.0059  2.1110
12993TIP3    H260471   2.805   1.477  15.697 -1.1257 -0.5166  0.8274
12994TIP3   OH260472   0.809   0.023  12.394 -0.2572  0.2419  0.2855
12994TIP3    H160473   0.717   0.047  12.382  0.0195  1.7746  1.0306
12994TIP3    H260474   0.857   0.085  12.339  0.4124  0.6054  1.2640
12995TIP3   OH260475   2.920   3.256  14.157  0.4832  0.0670 -0.1661
12995TIP3    H160476   2.978   3.230  14.229 -0.2245 -0.7619  0.1110
12995TIP3    H260477   2.881   3.174  14.127 -0.9154  0.6753 -0.0312
12996TIP3   OH260478   2.957   4.146   2.329  0.5924  0.5292  0.1589
12996TIP3    H160479   2.927   4.077   2.269  0.4393  0.4619  0.3158
12996TIP3    H260480   3.023   4.103   2.384  0.7048  0.5815  0.0664
12997TIP3   OH260481   1.352   1.362   4.219 -0.2788  0.0632 -0.1345
12997TIP3    H160482   1.298   1.298   4.173  0.5847 -0.0474 -1.0130
12997TIP3    H260483   1.399   1.409   4.150 -1.9364  2.6295  0.4122
12998TIP3   OH260484   5.732   5.242  12.587  0.0884 -0.1487  0.5236
12998TIP3    H160485   5.754   5.176  12.653 -1.0482 -0.8582  0.1986
12998TIP3    H260486   5.640   5.227  12.568 -0.4192  2.1196  1.0930
12999TIP3   OH260487   4.040   5.964  14.951 -0.0539  0.5781  0.4557
12999TIP3    H160488   3.988   5.897  14.994 -0.5729  0.7254  0.0610
12999TIP3    H260489   4.008   6.047  14.987  0.1416  0.6476  0.4708
13000TIP3   OH260490   6.797   5.129   5.040 -0.5203  0.0696  0.1970
13000TIP3    H160491   6.873   5.094   5.085 -0.4500  0.9894  0.8282
13000TIP3    H260492   6.772   5.062   4.977 -0.0304 -0.8261  0.9546
13001TIP3   OH260493   3.034   6.253  14.918  0.3202  0.3496  0.4840
13001TIP3    H160494   3.013   6.346  14.927  1.8741  0.4968  3.0692
13001TIP3    H260495   3.126   6.252  14.890 -0.4996 -0.3980 -2.3011
13002TIP3   OH260496   6.207   6.779  15.499 -0.0752 -0.2921 -0.4047
13002TIP3    H160497   6.165   6.700  15.534 -3.0470  1.5812  0.3745
13002TIP3    H260498   6.222   6.834  15.576 -1.4020  1.4274 -1.3342
13003TIP3   OH260499   1.629   3.805  13.320 -0.6698 -0.3322 -0.0598
13003TIP3    H160500   1.542   3.815  13.358 -0.1222  0.4927  1.0291
13003TIP3    H260501   1.688   3.833  13.390  0.5298 -2.1248 -0.3478
13004TIP3   OH260502   2.556   4.085   1.444 -0.2141  0.1207  0.0091
13004TIP3    H160503   2.575   3.996   1.413  0.3777  0.3787 -0.3824
13004TIP3    H260504   2.502   4.123   1.375 -0.4682  0.0715  0.1776
13005TIP3   OH260505   5.529   4.565   2.569  0.3025  0.4547  0.1506
13005TIP3    H160506   5.507   4.584   2.661 -2.9714 -0.0563 -0.4453
13005TIP3    H260507   5.460   4.609   2.519  0.7726 -1.1068 -1.9275
13006TIP3   OH260508   5.015   1.580   2.518 -0.5052 -0.2605 -0.5764
13006TIP3    H160509   4.925   1.550   2.518 -0.6238  0.0924 -0.9032
13006TIP3    H260510   5.067   1.502   2.496 -0.7885 -0.2948 -1.1372
13007TIP3   OH260511   3.725   1.407   4.482  0.2657  0.1252  0.2066
13007TIP3    H160512   3.657   1.471   4.459 -0.0853  0.2699  1.5974
13007TIP3    H260513   3.805   1.459   4.486  0.3948  0.0357 -0.9948
13008TIP3   OH260514   6.600   5.756  12.899 -0.0431  0.3954  0.2939
13008TIP3    H160515   6.652   5.756  12.979  0.8636  1.3637 -0.2839
13008TIP3    H260516   6.509   5.765  12.929  0.4125  2.3281  1.1382
13009TIP3   OH260517   2.571   3.625   2.555  0.0223  0.1211  0.1348
13009TIP3    H160518   2.533   3.571   2.625 -2.7513 -0.1397 -1.5071
13009TIP3    H260519   2.496   3.661   2.509  1.8355  1.9699 -1.4602
13010TIP3   OH260520   5.424   0.102  11.817  0.0907  0.1098 -0.0735
13010TIP3    H160521   5.364   0.134  11.750 -0.2528  1.0927  0.7041
13010TIP3    H260522   5.484   0.175  11.834  1.7749 -0.9739 -1.1082
13011TIP3   OH260523   4.390   4.221   6.567  0.3759 -0.0074 -0.1436
13011TIP3    H160524   4.392   4.138   6.615 -0.5367  0.0027 -0.0753
13011TIP3    H260525   4.425   4.200   6.481  1.9889 -0.0359  0.5006
13012TIP3   OH260526   2.583   4.775  16.770  0.5326  0.9607 -0.3016
13012TIP3    H160527   2.536   4.742  16.693 -1.7283 -1.2075  1.8703
13012TIP3    H260528   2.645   4.706  16.791  0.2384  0.9447  0.5441
13013TIP3   OH260529   5.267   3.891   4.965 -0.5288 -0.1804 -0.6076
13013TIP3    H160530   5.258   3.911   4.872 -0.9912 -2.1869 -1.0224
13013TIP3    H260531   5.201   3.823   4.981 -0.0315 -0.2836  1.0463
13014TIP3   OH260532   0.516   0.099  13.619 -0.3327 -0.3662 -0.2886
13014TIP3    H160533   0.524   0.128  13.528 -1.1392  0.7034 -0.0292
13014TIP3    H260534   0.468   0.169  13.662 -2.5924 -2.2383  0.2989
13015TIP3   OH260535   3.540   3.668   0.200 -0.3494  0.3741  0.1633
13015TIP3    H160536   3.496   3.748   0.227  1.3882  2.0681 -1.8420
13015TIP3    H260537   3.611   3.656   0.264  0.6783  1.6284 -0.7096
13016TIP3   OH260538   3.041   3.348  15.722  0.4217 -0.0309  0.0552
13016TIP3    H160539   2.948   3.329  15.706 -0.2958  1.9780  1.4806
13016TIP3    H260540   3.064   3.290  15.795  0.1217 -0.1577  0.0516
13017TIP3   OH260541   6.584   5.146  12.899 -0.6099  0.7003  0.1955
13017TIP3    H160542   6.601   5.237  12.874  1.2437  0.0020 -1.2401
13017TIP3    H260543   6.538   5.109  12.824 -0.4857  0.1920  0.3708
13018TIP3   OH260544   0.191   2.569   3.154 -0.5654  0.0129 -0.1297
13018TIP3    H160545   0.110   2.595   3.109 -0.5051 -1.1154 -0.9087
13018TIP3    H260546   0.258   2.626   3.117 -0.6709 -0.3361 -0.8637
13019TIP3   OH260547   2.321   0.072   2.981  0.0700 -0.4613  0.4996
13019TIP3    H160548   2.295   0.046   3.070  2.4889 -1.9190  0.8232
13019TIP3    H260549   2.361  -0.007   2.944  2.5824  1.2186 -0.5069
13020TIP3   OH260550   2.071   0.661  13.852 -0.4836  0.1594  0.4771
13020TIP3    H160551   2.140   0.615  13.901 -1.2786 -2.5688 -0.8615
13020TIP3    H260552   2.118   0.721  13.795  0.6313  0.5476  1.7739
13021TIP3   OH260553   5.705   0.897   2.773  0.3212 -0.3650  0.2675
13021TIP3    H160554   5.755   0.876   2.852  0.8368  3.4699  1.0696
13021TIP3    H260555   5.772   0.916   2.707 -0.0977  0.4426  0.0753
13022TIP3   OH260556   3.855   6.003   2.449 -0.5924  0.0880  0.4012
13022TIP3    H160557   3.779   5.961   2.490  0.9449 -1.1947  1.9822
13022TIP3    H260558   3.914   6.022   2.522  0.8215  0.6444 -0.8699
13023TIP3   OH260559   4.073   3.772  14.423  0.2228  1.0229 -0.2324
13023TIP3    H160560   4.026   3.740  14.345  2.1221 -0.3127 -0.8639
13023TIP3    H260561   4.069   3.700  14.485 -0.1983  1.6258  0.4573
13024TIP3   OH260562   4.395   3.805  15.476 -0.1248  0.2023  0.2105
13024TIP3    H160563   4.318   3.862  15.469 -0.6450 -0.1190  2.8133
13024TIP3    H260564   4.360   3.716  15.470  0.1557  0.0769  0.3902
13025TIP3   OH260565   4.079   3.605   4.771 -0.2829 -0.5154 -0.2795
13025TIP3    H160566   4.078   3.534   4.706 -2.6620 -0.9219  0.1530
13025TIP3    H260567   4.084   3.685   4.719  0.0734 -0.9135 -0.8663
13026TIP3   OH260568   2.047   3.433   5.031  0.9019 -0.0620  0.3777
13026TIP3    H160569   2.139   3.447   5.010  0.5336 -0.9426 -2.0306
13026TIP3    H260570   2.003   3.429   4.946 -1.1502 -1.0028  1.4294
13027TIP3   OH260571   2.319   3.600   1.870  0.1218  0.3180  0.1766
13027TIP3    H160572   2.360   3.535   1.927 -0.8421  0.2136  0.7691
13027TIP3    H260573   2.301   3.553   1.789 -3.1236 -0.9873  1.5622
13028TIP3   OH260574   6.093   1.622   5.517  0.2719  0.3628  0.2657
13028TIP3    H160575   6.085   1.703   5.466 -1.0664 -0.3533 -0.7125
13028TIP3    H260576   6.130   1.649   5.601 -2.5683  2.3716  0.9147
13029TIP3   OH260577   1.213   0.025   0.455  0.0224  0.9047  0.4201
13029TIP3    H160578   1.140   0.083   0.434 -1.5972 -0.6782  1.4148
13029TIP3    H260579   1.179  -0.063   0.438  1.6942  0.1278  0.9577
13030TIP3   OH260580   3.149   0.802  16.715 -0.8920 -0.5356 -0.1635
13030TIP3    H160581   3.169   0.718  16.756  0.2031  0.2556  0.9525
13030TIP3    H260582   3.189   0.797  16.628 -1.6062 -1.4995 -0.4482
13031TIP3   OH260583   6.744   1.370  16.572  0.2544  0.1153 -0.1850
13031TIP3    H160584   6.788   1.321  16.642  0.4885 -0.9672 -1.0776
13031TIP3    H260585   6.712   1.303  16.512 -0.6935  1.0044 -0.6853
13032TIP3   OH260586   4.046   2.316  13.618  0.0228  0.6472  0.2306
13032TIP3    H160587   4.127   2.297  13.571 -1.2678 -0.5750 -1.5491
13032TIP3    H260588   4.040   2.412  13.617  1.5800  0.7614  0.6464
13033TIP3   OH260589   6.258   6.202  13.542 -0.0061  0.0091  0.2639
13033TIP3    H160590   6.326   6.210  13.608  1.1051 -0.6916 -0.7795
13033TIP3    H260591   6.219   6.290  13.536  0.0826  0.1467  1.6106
13034TIP3   OH260592   6.187   0.698  13.560 -0.5083 -0.0035 -0.5114
13034TIP3    H160593   6.149   0.778  13.524  2.2696  0.6275 -2.1603
13034TIP3    H260594   6.131   0.628  13.525 -0.7782  0.9792 -2.0965
13035TIP3   OH260595   1.024   6.539   2.860  0.1231  0.4062  0.0419
13035TIP3    H160596   1.112   6.568   2.887  0.0388  1.6156 -0.9413
13035TIP3    H260597   0.966   6.576   2.926  0.2200  0.6941 -0.0344
13036TIP3   OH260598   5.418   1.635  13.725 -0.3924  0.3303 -0.3483
13036TIP3    H160599   5.338   1.620  13.775  0.1214 -1.8947 -0.1373
13036TIP3    H260600   5.482   1.664  13.790 -0.4644  0.0727 -0.1631
13037TIP3   OH260601   3.306   6.662  14.570 -0.1697 -0.8123  1.0880
13037TIP3    H160602   3.231   6.721  14.568 -1.4585 -2.4436 -2.5366
13037TIP3    H260603   3.382   6.719  14.556 -1.0078  0.4418  1.5864
13038TIP3   OH260604   0.257   4.907  12.431  0.6847 -0.2526  0.1946
13038TIP3    H160605   0.288   4.997  12.427  2.2489 -0.7526  0.5382
13038TIP3    H260606   0.311   4.860  12.367 -0.9325 -0.7213 -0.8569
13039TIP3   OH260607   3.280   3.509   4.909  0.6199  0.5282  0.0826
13039TIP3    H160608   3.197   3.539   4.871  1.3381  3.5859  0.7616
13039TIP3    H260609   3.268   3.415   4.923 -2.7242  0.9124  0.1657
13040TIP3   OH260610   2.317   5.766  11.061  0.1726  0.0754 -0.0630
13040TIP3    H160611   2.238   5.800  11.102 -0.5847 -1.8100  0.1017
13040TIP3    H260612   2.299   5.768  10.967  0.5770  1.1866 -0.1209
13041TIP3   OH260613   2.680   0.577  11.880 -0.1974 -1.0811  0.2474
13041TIP3    H160614   2.628   0.497  11.892 -1.8608 -0.2520 -1.2492
13041TIP3    H260615   2.639   0.640  11.939 -0.9157 -0.4181 -0.9512
13042TIP3   OH260616   4.637   2.536  13.565  0.1287  0.1660  0.0780
13042TIP3    H160617   4.653   2.478  13.490  1.1799  1.3696 -0.6493
13042TIP3    H260618   4.548   2.568  13.552 -0.8906 -2.1354  1.0860
13043TIP3   OH260619   1.219   4.313  14.675 -0.0008 -0.8923  0.6215
13043TIP3    H160620   1.163   4.298  14.751  0.8427  0.6050  1.5629
13043TIP3    H260621   1.296   4.358  14.710  0.3054  0.0124 -1.1382
13044TIP3   OH260622   0.348   6.021  16.045 -0.1321  0.0611  0.1457
13044TIP3    H160623   0.436   6.009  16.008 -0.2793 -0.4451 -0.0337
13044TIP3    H260624   0.340   5.951  16.109 -0.4656  0.0228  0.0578
13045TIP3   OH260625   4.886   4.352  14.638  0.1211 -0.2397  0.5741
13045TIP3    H160626   4.835   4.383  14.713 -3.1938 -0.5364 -1.4638
13045TIP3    H260627   4.897   4.259  14.653 -0.7252 -0.3389  0.6372
13046TIP3   OH260628   0.969   3.432   5.307  0.3833 -0.5049  0.3401
13046TIP3    H160629   0.900   3.372   5.335  0.1804 -1.4399 -2.0480
13046TIP3    H260630   0.968   3.502   5.372 -1.3087 -1.6504  1.5789
13047TIP3   OH260631   6.064   0.969   1.668 -0.3213  0.7874 -0.7128
13047TIP3    H160632   6.004   1.039   1.641  0.0252  1.3802  0.0619
13047TIP3    H260633   6.006   0.893   1.682 -1.0419  1.6620  1.1417
13048TIP3   OH260634   6.671   4.574   0.232 -0.0245  0.3091 -0.2158
13048TIP3    H160635   6.696   4.600   0.321 -0.5356 -1.0524  0.3353
13048TIP3    H260636   6.706   4.485   0.223  1.3156  0.9962 -1.9105
13049TIP3   OH260637   3.167   3.211   0.010  0.6442  0.1955  0.3637
13049TIP3    H160638   3.213   3.290  -0.019  1.2008  0.1529  1.1401
13049TIP3    H260639   3.235   3.145   0.016  0.2812 -0.1786  0.3634
13050TIP3   OH260640   4.991   0.140  12.872  0.1547  0.0806  0.2748
13050TIP3    H160641   4.980   0.103  12.959 -0.9489  0.7554  0.4288
13050TIP3    H260642   4.903   0.170  12.847  0.5417  0.2830 -0.8849
13051TIP3   OH260643   6.408   2.602  16.397  0.5154 -0.1204  0.2062
13051TIP3    H160644   6.330   2.609  16.451  2.2313 -0.8206  2.8550
13051TIP3    H260645   6.439   2.692  16.386 -0.3810  0.1149 -0.4925
13052TIP3   OH260646   3.579   1.565  14.134 -0.0550 -0.2456 -0.2634
13052TIP3    H160647   3.525   1.569  14.213  0.3496  0.6370 -0.0307
13052TIP3    H260648   3.573   1.652  14.095  1.5548  0.0144  0.0206
13053TIP3   OH260649   0.734   2.474   6.705 -0.5075 -0.4958 -0.0429
13053TIP3    H160650   0.668   2.464   6.774 -0.5440 -1.1520 -0.1728
13053TIP3    H260651   0.688   2.449   6.625 -1.1398  2.3976 -0.6402
13054TIP3   OH260652   2.426   0.529  10.954  0.4813 -0.0055  0.3733
13054TIP3    H160653   2.382   0.473  10.890 -0.6351  1.0636  0.1797
13054TIP3    H260654   2.509   0.551  10.914  0.8473 -1.3400  0.3618
13055TIP3   OH260655   3.703   1.995   0.994  0.8268 -0.1947  0.2381
13055TIP3    H160656   3.797   2.005   1.006  0.6385 -0.6575  2.3866
13055TIP3    H260657   3.675   2.076   0.952  2.0915  0.1840  0.1090
13056TIP3   OH260658   0.729   1.010   0.675 -0.0087 -0.1691  0.2032
13056TIP3    H160659   0.642   1.009   0.634  1.0162 -1.2225 -2.0135
13056TIP3    H260660   0.712   0.993   0.767 -2.2074  0.1217 -0.1210
13057TIP3   OH260661   2.792   1.385   4.839 -0.0520  0.0066  0.3405
13057TIP3    H160662   2.710   1.411   4.881  0.5244 -0.8266  1.9840
13057TIP3    H260663   2.854   1.455   4.860 -0.1236  0.2533 -0.2554
13058TIP3   OH260664   5.609   2.933  17.046 -0.5150  0.1224  0.0355
13058TIP3    H160665   5.610   2.992  17.121 -0.8791  1.2603 -0.8381
13058TIP3    H260666   5.616   2.845  17.084  1.1990  0.7755  1.2903
13059TIP3   OH260667   2.730   4.897   3.462  0.2374 -0.0722  0.0336
13059TIP3    H160668   2.775   4.862   3.385 -1.8308 -0.2422 -1.1268
13059TIP3    H260669   2.703   4.819   3.511  0.4659  0.0152  0.3005
13060TIP3   OH260670   2.154   5.904   1.897  0.4946  0.1865  0.2164
13060TIP3    H160671   2.148   5.811   1.877  0.0142  0.4404 -0.8491
13060TIP3    H260672   2.076   5.923   1.948 -1.4181  0.7968 -2.8228
13061TIP3   OH260673   3.208   4.437   3.767  0.3217 -0.2977 -0.6123
13061TIP3    H160674   3.207   4.366   3.703  0.7807  0.9979 -2.1049
13061TIP3    H260675   3.147   4.501   3.732  1.3937  0.9106 -0.3211
13062TIP3   OH260676   4.795   1.750   0.037  0.0952 -0.3318 -0.1882
13062TIP3    H160677   4.867   1.777  -0.020  0.5904 -0.4495  0.3754
13062TIP3    H260678   4.838   1.721   0.117 -0.5816 -0.4216  0.1442
13063TIP3   OH260679   1.321   0.202   1.532  0.6635 -0.7100  0.0145
13063TIP3    H160680   1.240   0.184   1.484  0.8280 -0.2868 -0.4321
13063TIP3    H260681   1.385   0.224   1.464  0.7820  0.3527  0.4550
13064TIP3   OH260682   3.315   2.280  13.291 -0.7277 -1.2907  0.4682
13064TIP3    H160683   3.235   2.324  13.261 -1.5362 -0.3649  3.7318
13064TIP3    H260684   3.360   2.346  13.344  2.4346 -1.6965 -1.5814
13065TIP3   OH260685   0.629   4.959  14.168 -0.3565  0.0462 -0.1415
13065TIP3    H160686   0.549   4.933  14.213  0.0773 -0.5497  0.2973
13065TIP3    H260687   0.663   4.878  14.130 -0.2546  0.3920 -0.8002
13066TIP3   OH260688   3.638   3.571   5.066  1.0071  0.3510 -0.1961
13066TIP3    H160689   3.587   3.529   5.135  0.4651 -2.2824 -2.1608
13066TIP3    H260690   3.729   3.561   5.094  0.8064 -0.9510  0.0209
13067TIP3   OH260691   3.908   3.486   3.471  0.1901  0.4579 -0.3942
13067TIP3    H160692   3.913   3.552   3.402 -1.1486  1.6137  0.5895
13067TIP3    H260693   3.995   3.487   3.511  0.5734  0.7096 -1.2320
13068TIP3   OH260694   4.732   3.364  14.764  0.2993  0.0003  0.0660
13068TIP3    H160695   4.670   3.412  14.709 -0.9928 -1.1955  0.4314
13068TIP3    H260696   4.721   3.403  14.851  0.7397  0.4195 -0.0685
13069TIP3   OH260697   1.015   4.113  17.157  0.1266 -0.1166 -0.1046
13069TIP3    H160698   0.999   4.059  17.234 -0.1132 -0.4175 -0.3644
13069TIP3    H260699   1.022   4.051  17.085  1.4012  0.0828 -0.1702
13070TIP3   OH260700   2.372   6.674  13.376 -0.4489 -0.2220  0.4326
13070TIP3    H160701   2.428   6.737  13.330 -0.1438  0.6548  1.9707
13070TIP3    H260702   2.322   6.632  13.307 -0.1288  1.2006 -0.6913
13071TIP3   OH260703   2.736   4.681   6.376 -0.0828 -0.3715 -0.3177
13071TIP3    H160704   2.755   4.775   6.384 -1.3934 -0.2703  1.9393
13071TIP3    H260705   2.645   4.673   6.401 -0.2692 -2.1534 -1.4738
13072TIP3   OH260706   6.014   4.492  16.654 -0.2095  0.2495  0.6856
13072TIP3    H160707   6.048   4.534  16.732  0.5759  1.8443 -0.4945
13072TIP3    H260708   5.927   4.530  16.642  0.9280  2.4195 -0.9966
13073TIP3   OH260709   3.350   5.336   5.088 -0.2628  0.0532  0.6714
13073TIP3    H160710   3.431   5.332   5.036 -0.2548  0.0282  0.6855
13073TIP3    H260711   3.380   5.327   5.179 -0.4331 -1.7933  0.5638
13074TIP3   OH260712   4.351   3.186   2.377 -0.1163  0.5526 -0.3225
13074TIP3    H160713   4.354   3.136   2.295 -2.6671  1.3791 -0.9718
13074TIP3    H260714   4.362   3.277   2.349 -3.3542  1.0865 -0.0940
13075TIP3   OH260715   4.780   3.813   0.876 -1.1520 -0.0643  0.2164
13075TIP3    H160716   4.814   3.880   0.816 -0.5097 -2.3407 -2.0178
13075TIP3    H260717   4.859   3.773   0.914 -1.4604 -1.0473 -0.1623
13076TIP3   OH260718   0.828   4.408   2.222  0.0833  0.1628  0.4276
13076TIP3    H160719   0.791   4.367   2.144  3.7279 -1.7309 -0.4150
13076TIP3    H260720   0.860   4.493   2.192 -2.1043  1.1331  0.8035
13077TIP3   OH260721   1.594   4.246   2.345  0.3408  0.1674 -0.1868
13077TIP3    H160722   1.617   4.332   2.380  0.8890 -0.5777  1.3525
13077TIP3    H260723   1.677   4.208   2.318  0.2520 -0.3324  0.2321
13078TIP3   OH260724   1.384   2.529   4.138  0.2051 -0.2373  0.1073
13078TIP3    H160725   1.466   2.482   4.127  1.2059  1.8227 -1.4789
13078TIP3    H260726   1.319   2.460   4.151  2.1347 -1.8911  1.1991
13079TIP3   OH260727   4.396   0.009  12.112 -0.4071  0.3573  0.2782
13079TIP3    H160728   4.461  -0.061  12.106  0.8257  1.3781  1.5321
13079TIP3    H260729   4.369   0.024  12.021  1.3391  0.1369 -0.2978
13080TIP3   OH260730   0.235   1.069  15.705 -0.4508 -0.3381  0.0814
13080TIP3    H160731   0.198   0.998  15.652 -0.8942 -0.1306  0.1137
13080TIP3    H260732   0.328   1.048  15.710 -0.6427 -1.1415  0.4254
13081TIP3   OH260733   0.434   4.992   5.088 -0.3441 -0.3403  0.0921
13081TIP3    H160734   0.468   4.975   5.175 -2.0270  2.5283  1.4012
13081TIP3    H260735   0.374   4.920   5.071 -0.5783 -0.5306  1.6342
13082TIP3   OH260736   4.321   5.255  11.685 -0.6033 -0.1145 -0.5237
13082TIP3    H160737   4.310   5.258  11.780 -0.5059 -0.2509 -0.5068
13082TIP3    H260738   4.309   5.345  11.657  0.9011  0.1937 -0.2117
13083TIP3   OH260739   0.022   1.765   1.855 -0.0214 -0.8373 -0.7091
13083TIP3    H160740  -0.049   1.806   1.904  0.9221  0.4078 -0.3512
13083TIP3    H260741  -0.022   1.708   1.792 -1.3894  1.0646 -1.5149
13084TIP3   OH260742   2.499   1.030   5.064  0.3544  0.4157  0.2448
13084TIP3    H160743   2.521   0.937   5.063 -0.6937  0.1701 -0.1458
13084TIP3    H260744   2.407   1.034   5.037 -0.3920  1.3572  2.7700
13085TIP3   OH260745   1.592   1.074  11.948 -0.0066 -0.2068 -0.1662
13085TIP3    H160746   1.638   1.158  11.950 -0.8501  0.2383  2.6168
13085TIP3    H260747   1.643   1.018  12.007 -1.7143 -0.3910  1.1669
13086TIP3   OH260748   4.956   1.996  11.766 -0.6206  0.8423 -0.0099
13086TIP3    H160749   4.877   1.942  11.773  0.8028 -1.3958 -0.8261
13086TIP3    H260750   4.968   2.010  11.672 -0.1989  1.4070  0.1268
13087TIP3   OH260751   1.166   5.687   0.067  0.0132  0.3019 -0.7619
13087TIP3    H160752   1.200   5.684  -0.023  0.3279  0.1303 -0.6371
13087TIP3    H260753   1.166   5.781   0.088  0.5317  0.2977 -0.7193
13088TIP3   OH260754   5.311   2.247  13.132 -0.5202 -0.3235 -0.6017
13088TIP3    H160755   5.397   2.289  13.141  0.1345 -1.5999 -0.8707
13088TIP3    H260756   5.328   2.154  13.144 -2.0824 -0.4527  0.7046
13089TIP3   OH260757   3.356   6.485   3.982 -0.2686 -0.7056 -0.5968
13089TIP3    H160758   3.277   6.534   4.006  0.2013 -0.1712 -0.1204
13089TIP3    H260759   3.420   6.552   3.960  0.9908 -0.9918  1.9159
13090TIP3   OH260760   3.604   1.289  15.956 -0.2313  0.4003 -0.4448
13090TIP3    H160761   3.547   1.300  15.880  0.2545  2.1138 -0.5957
13090TIP3    H260762   3.546   1.300  16.032 -0.3748  0.6136 -0.5863
13091TIP3   OH260763   2.150   6.387  11.167 -0.4698  0.0438  0.5362
13091TIP3    H160764   2.198   6.457  11.122  0.2137 -0.1834  0.9163
13091TIP3    H260765   2.140   6.319  11.100  1.5366 -0.7663  1.0401
13092TIP3   OH260766   0.985   2.165   1.517 -0.1629  0.0592 -0.1157
13092TIP3    H160767   1.068   2.194   1.480  1.5299 -2.0591  1.8747
13092TIP3    H260768   1.004   2.152   1.610 -2.0167 -2.8902 -0.0885
13093TIP3   OH260769   5.905   2.383  12.062  0.0199  0.4484  0.1240
13093TIP3    H160770   5.827   2.438  12.072  0.5624  1.2544 -0.1133
13093TIP3    H260771   5.973   2.427  12.113  0.3948 -0.1384  0.1455
13094TIP3   OH260772   3.281   5.992  12.544 -0.7647 -0.0840  0.1449
13094TIP3    H160773   3.329   5.931  12.599  2.7061  2.3438 -0.0735
13094TIP3    H260774   3.276   5.949  12.458  0.9782 -0.4079  0.1968
13095TIP3   OH260775   5.551   0.146  16.195  0.9207  0.1684  0.0094
13095TIP3    H160776   5.529   0.136  16.102  0.6789 -0.7087  0.1486
13095TIP3    H260777   5.467   0.164  16.237  0.9736  0.1983  0.1004
13096TIP3   OH260778   1.148   6.642  15.575  0.2612  0.1497  0.3388
13096TIP3    H160779   1.222   6.607  15.624  0.0579  0.7543  1.0732
13096TIP3    H260780   1.186   6.671  15.492  0.8765  0.5626  0.7579
13097TIP3   OH260781   1.843   4.353   1.675 -0.5397 -0.0856  0.0934
13097TIP3    H160782   1.771   4.405   1.710 -0.5979  1.6658 -2.4437
13097TIP3    H260783   1.855   4.387   1.586  2.0410 -1.7709 -0.2448
13098TIP3   OH260784   3.069   5.640   2.676  0.3759 -0.4978 -0.6283
13098TIP3    H160785   3.129   5.622   2.748  0.1502 -1.3346 -0.6458
13098TIP3    H260786   3.057   5.735   2.678  1.3361 -0.3745 -0.3399
13099TIP3   OH260787   6.398   1.904   4.276  0.1513 -0.1598  0.1727
13099TIP3    H160788   6.392   1.998   4.260  4.0443  0.3027  0.9412
13099TIP3    H260789   6.372   1.864   4.193 -1.9722  1.5290 -0.0295
13100TIP3   OH260790   2.494   1.060   1.180  0.2532 -0.0138  0.2626
13100TIP3    H160791   2.453   1.098   1.258  0.7764  0.8249  0.1341
13100TIP3    H260792   2.421   1.027   1.128 -0.3724  2.4117 -0.4623
13101TIP3   OH260793   3.562   5.039   4.449 -0.1037  0.0263 -0.7145
13101TIP3    H160794   3.536   4.971   4.511  2.9227  1.7302  2.5878
13101TIP3    H260795   3.639   5.003   4.404  0.7843  0.7774  0.1879
13102TIP3   OH260796   6.537   0.220   1.158  0.1762  0.2476  0.2596
13102TIP3    H160797   6.623   0.246   1.124  0.0110  0.0420 -0.3219
13102TIP3    H260798   6.524   0.276   1.234  0.9639  0.0685  0.5388
13103TIP3   OH260799   5.138   2.767  17.131 -0.1817  0.2096 -0.4911
13103TIP3    H160800   5.138   2.857  17.165 -0.7611  0.1149 -0.2304
13103TIP3    H260801   5.047   2.739  17.139  0.4482 -1.2784  1.7703
13104TIP3   OH260802   0.881   4.865  11.419 -0.3861  0.0484 -0.0297
13104TIP3    H160803   0.916   4.798  11.359  0.8391 -0.5671  1.3268
13104TIP3    H260804   0.786   4.853  11.416 -0.3029 -0.3470 -1.4145
13105TIP3   OH260805   0.607   4.082   6.114 -0.0137  0.4225  0.4110
13105TIP3    H160806   0.655   4.062   6.194  0.9578  0.3154 -0.1792
13105TIP3    H260807   0.649   4.027   6.047 -0.9889  0.3106 -0.1083
13106TIP3   OH260808   4.523   1.568   4.321 -0.7012  0.0063 -0.0731
13106TIP3    H160809   4.493   1.532   4.238  1.0176 -0.3053 -0.5827
13106TIP3    H260810   4.500   1.661   4.317  0.1290  0.1684 -1.2651
13107TIP3   OH260811   5.291   6.672  13.433 -0.0467 -0.1832  0.1560
13107TIP3    H160812   5.341   6.596  13.405  0.2435 -0.5244  1.5756
13107TIP3    H260813   5.233   6.691  13.359  0.7421 -1.0191 -0.6907
13108TIP3   OH260814   2.069   4.508  17.027  0.5309 -0.0028  0.0707
13108TIP3    H160815   2.114   4.580  16.983  3.2522 -1.1694  0.7972
13108TIP3    H260816   2.061   4.440  16.960  2.8617 -1.0169  0.7584
13109TIP3   OH260817   3.785   0.751  16.030  0.1271  0.3231 -0.1200
13109TIP3    H160818   3.740   0.835  16.039 -0.6332 -0.2553  1.6040
13109TIP3    H260819   3.724   0.687  16.067  0.9909 -0.8976 -0.7929
13110TIP3   OH260820   5.024   4.854   0.705  0.2831 -0.5472  0.1771
13110TIP3    H160821   5.054   4.777   0.656  1.4413  0.6527 -1.0449
13110TIP3    H260822   4.938   4.873   0.668  1.0245  0.1702 -1.2223
13111TIP3   OH260823   0.679   1.051   6.300  0.2118 -0.7213  0.5268
13111TIP3    H160824   0.613   1.025   6.364 -0.0571 -0.4113  0.3751
13111TIP3    H260825   0.762   1.044   6.347 -0.0274 -0.0183  1.0626
13112TIP3   OH260826   6.388   0.376  14.730 -0.6519  0.7474 -0.7461
13112TIP3    H160827   6.439   0.456  14.734 -0.1677  0.5252 -2.2965
13112TIP3    H260828   6.313   0.398  14.675 -0.4022  0.0707 -1.3606
13113TIP3   OH260829   5.309   1.755  15.653 -0.4288 -0.2779  0.0087
13113TIP3    H160830   5.335   1.694  15.722 -2.5843 -2.3520 -0.9354
13113TIP3    H260831   5.258   1.701  15.592 -0.9455  2.1239 -1.7302
13114TIP3   OH260832   0.504   1.014   5.848  0.2434  0.0863  0.3955
13114TIP3    H160833   0.484   1.001   5.941  0.0415  1.7341  0.6019
13114TIP3    H260834   0.576   1.078   5.848  1.6089 -1.4247 -0.5242
13115TIP3   OH260835   2.803   3.536   1.565  0.7575 -0.0054 -0.6171
13115TIP3    H160836   2.844   3.605   1.617  0.7382 -0.2473 -0.2801
13115TIP3    H260837   2.730   3.505   1.619  1.1805 -0.7605 -0.4725
13116TIP3   OH260838   4.654   2.862   1.635  0.7531 -0.7066  0.1170
13116TIP3    H160839   4.672   2.955   1.621 -0.1523 -0.1027  2.7076
13116TIP3    H260840   4.594   2.839   1.564 -0.5960  1.2014  0.5950
13117TIP3   OH260841   3.092   0.458  14.306 -0.6177  0.0212 -0.2882
13117TIP3    H160842   3.120   0.368  14.319 -0.8344 -0.0058 -0.0114
13117TIP3    H260843   3.146   0.510  14.365 -0.6348  0.0519 -0.2993
13118TIP3   OH260844   1.422   2.582   3.832 -0.1162  0.3859 -0.4940
13118TIP3    H160845   1.498   2.562   3.887 -0.2601 -0.1652 -0.4906
13118TIP3    H260846   1.442   2.667   3.793 -0.7374  1.5606  1.6743
13119TIP3   OH260847   5.330   3.226  13.194  0.3234  0.1532  0.6248
13119TIP3    H160848   5.257   3.164  13.191 -1.6811  2.4785 -3.7934
13119TIP3    H260849   5.394   3.190  13.132  1.4856 -0.0811  1.9155
13120TIP3   OH260850   3.098   4.649  16.521 -0.8836 -0.3425  0.0427
13120TIP3    H160851   3.082   4.739  16.493  0.8637  0.1085  0.4379
13120TIP3    H260852   3.118   4.602  16.440  1.9401  0.4679  0.2437
13121TIP3   OH260853   1.481   0.665  14.271  0.3095 -1.0374 -0.3795
13121TIP3    H160854   1.404   0.721  14.279  0.9070 -0.3248  0.4889
13121TIP3    H260855   1.480   0.636  14.180  0.8813  1.7044 -1.3267
13122TIP3   OH260856   3.564   4.209   1.870  0.3510  0.0308  0.1327
13122TIP3    H160857   3.619   4.218   1.792 -1.7761 -1.7084 -1.6287
13122TIP3    H260858   3.587   4.123   1.905  0.2891  0.2128  0.6146
13123TIP3   OH260859   3.891   4.944  11.105 -0.3959  0.3887  0.3058
13123TIP3    H160860   3.962   4.917  11.048  1.1440  0.8939  1.9544
13123TIP3    H260861   3.816   4.955  11.046  1.1260  0.8266 -1.5876
13124TIP3   OH260862   3.338   1.603   3.336 -0.0508 -0.0765 -0.1929
13124TIP3    H160863   3.343   1.556   3.253  0.3996 -1.4142  0.5671
13124TIP3    H260864   3.248   1.637   3.339  0.3501  1.1098 -1.8155
13125TIP3   OH260865   5.703   2.833   1.973  0.1342 -0.3102  0.3868
13125TIP3    H160866   5.678   2.741   1.965 -2.2180  0.4859 -2.3972
13125TIP3    H260867   5.639   2.870   2.034  0.0660 -0.1654  0.2287
13126TIP3   OH260868   0.887   4.873   5.656  0.3329  0.2568 -0.2542
13126TIP3    H160869   0.866   4.808   5.723 -0.1853 -0.4415 -1.0908
13126TIP3    H260870   0.847   4.954   5.688 -0.1976 -0.1502  0.1228
13127TIP3   OH260871   5.301   5.601  15.345  0.1463 -0.1359  0.3893
13127TIP3    H160872   5.366   5.639  15.405  1.0790 -0.6798 -0.2641
13127TIP3    H260873   5.323   5.508  15.342  0.2611 -0.0670 -1.0065
13128TIP3   OH260874   5.272   6.809  13.901  0.2514  0.0080 -0.3509
13128TIP3    H160875   5.363   6.839  13.907  0.1376  0.6710 -1.8807
13128TIP3    H260876   5.270   6.751  13.825 -0.3980 -0.8256  0.2872
13129TIP3   OH260877   3.088   3.261   1.621 -0.4816 -0.7366 -0.3982
13129TIP3    H160878   3.139   3.336   1.589 -0.4260  0.0834  1.4999
13129TIP3    H260879   3.151   3.189   1.624  0.1857 -0.1394  0.3607
13130TIP3   OH260880   5.478   3.351   1.229  0.0208 -0.6723  0.0189
13130TIP3    H160881   5.458   3.440   1.199  0.8462 -0.6953 -0.6110
13130TIP3    H260882   5.456   3.352   1.322  0.3424  0.2900  0.0898
13131TIP3   OH260883   4.682   4.419   3.484  0.2792 -0.0528 -0.0363
13131TIP3    H160884   4.761   4.471   3.497  0.4922 -0.3062 -0.3228
13131TIP3    H260885   4.617   4.483   3.453 -0.5969  0.7956  3.3818
13132TIP3   OH260886   1.244   1.584   1.673 -1.2888  1.1175  0.0294
13132TIP3    H160887   1.206   1.652   1.729  0.4947  1.5942  0.7187
13132TIP3    H260888   1.321   1.627   1.634  1.0799 -1.0722  2.0773
13133TIP3   OH260889   3.874   5.957  15.993  0.3021 -0.2078 -0.5435
13133TIP3    H160890   3.811   6.025  15.970 -0.6874 -0.7832  0.4621
13133TIP3    H260891   3.821   5.884  16.024  1.5089 -0.2311  1.5321
13134TIP3   OH260892   1.073   2.600   3.499 -0.1733  0.5374  0.0853
13134TIP3    H160893   1.094   2.602   3.592  1.2426  2.1618 -0.2504
13134TIP3    H260894   1.044   2.510   3.483  1.1166 -0.2062  1.7610
13135TIP3   OH260895   4.199   4.008   1.607  0.6863 -0.0993 -0.5260
13135TIP3    H160896   4.253   3.997   1.529 -1.1169 -1.4091 -1.6359
13135TIP3    H260897   4.112   4.030   1.573 -0.3261 -1.5159  1.0396
13136TIP3   OH260898   1.401   4.827  12.324 -0.0552 -0.0246 -0.2173
13136TIP3    H160899   1.445   4.749  12.291 -2.4676 -0.9286 -1.4655
13136TIP3    H260900   1.353   4.862  12.249  0.3845  2.2492  0.5090
13137TIP3   OH260901   2.740   1.944   4.697 -0.4041  0.0299  0.3670
13137TIP3    H160902   2.796   2.005   4.745  0.9632 -0.6412 -0.3611
13137TIP3    H260903   2.685   1.905   4.765  1.6650 -1.0851  1.4774
13138TIP3   OH260904   1.801   0.530  14.950 -0.3351  0.2046 -0.3952
13138TIP3    H160905   1.886   0.541  14.909 -1.2547 -1.5401 -2.8746
13138TIP3    H260906   1.802   0.440  14.984 -0.9147  0.4316  0.2452
13139TIP3   OH260907   0.466   1.732   6.006 -0.2248 -0.0579 -0.1032
13139TIP3    H160908   0.493   1.707   5.917 -2.5639 -1.1232 -0.5439
13139TIP3    H260909   0.385   1.781   5.993  0.2752  1.2004  1.3602
13140TIP3   OH260910   0.757   1.534  16.452  0.2334 -0.5414 -0.3184
13140TIP3    H160911   0.836   1.553  16.502 -1.3791 -0.0939  2.1646
13140TIP3    H260912   0.746   1.439  16.459  1.1803 -0.7618 -1.6759
13141TIP3   OH260913   5.365   5.136   6.288 -0.5493 -0.3553 -0.5568
13141TIP3    H160914   5.408   5.196   6.349 -1.7635 -1.1100  1.0833
13141TIP3    H260915   5.436   5.080   6.255  0.2969  0.8066 -0.7502
13142TIP3   OH260916   1.223   3.153   4.858 -0.1287 -0.5122 -0.2256
13142TIP3    H160917   1.266   3.239   4.859 -1.1806  0.0273  0.4933
13142TIP3    H260918   1.223   3.127   4.766 -0.1034  0.4303 -0.4987
13143TIP3   OH260919   1.597   6.543   0.518 -0.1396 -0.2927 -0.5943
13143TIP3    H160920   1.564   6.558   0.606 -0.8256  1.5539 -1.1364
13143TIP3    H260921   1.690   6.521   0.530 -0.1693  0.1869  0.5507
13144TIP3   OH260922   4.377   4.132  11.505 -0.2182 -0.0269  0.6400
13144TIP3    H160923   4.344   4.209  11.553 -1.4324  0.0033 -0.2325
13144TIP3    H260924   4.420   4.079  11.572  1.4606  1.8588  1.1073
13145TIP3   OH260925   2.619   6.801  13.622 -0.0900 -0.8982 -0.0378
13145TIP3    H160926   2.618   6.836  13.533  1.3754  1.0483  0.6785
13145TIP3    H260927   2.701   6.751  13.627 -0.2903 -1.2136  0.1460
13146TIP3   OH260928   4.351   6.423   4.866  0.0551 -0.0994 -0.0409
13146TIP3    H160929   4.388   6.501   4.825  0.9823  0.3704  1.6434
13146TIP3    H260930   4.309   6.376   4.794 -0.4726  1.9122 -1.0745
13147TIP3   OH260931   0.620   2.245   5.222 -0.0725  0.1081 -0.1244
13147TIP3    H160932   0.711   2.243   5.193  0.1781 -1.9634  0.7587
13147TIP3    H260933   0.572   2.198   5.155 -0.4247  0.7296 -0.3123
13148TIP3   OH260934   1.176   4.996  15.992  0.1405  0.0327 -0.2093
13148TIP3    H160935   1.160   5.088  16.017  0.2191 -0.0994  0.3482
13148TIP3    H260936   1.251   4.970  16.046  0.8554 -0.0093 -1.2167
13149TIP3   OH260937   5.836   5.213  14.023 -0.5586  0.5403  0.1846
13149TIP3    H160938   5.787   5.245  13.948  0.0653  1.3243  0.0973
13149TIP3    H260939   5.922   5.255  14.015 -0.3037  0.1955  1.0302
13150TIP3   OH260940   5.498   0.315  13.720  0.4430  0.5113 -0.0792
13150TIP3    H160941   5.430   0.249  13.715  1.4985 -0.9206  3.0779
13150TIP3    H260942   5.567   0.283  13.662 -0.5267  0.7189 -1.3655
13151TIP3   OH260943   6.773   1.016   3.269  0.4616 -0.2868  0.2366
13151TIP3    H160944   6.776   1.110   3.249 -0.8228 -0.0777  0.9849
13151TIP3    H260945   6.861   0.996   3.301 -0.2043  1.4416  3.3735
13152TIP3   OH260946   0.608   3.241   4.090  0.0491  0.0437 -0.0091
13152TIP3    H160947   0.642   3.258   4.178  1.0943  1.0367 -0.5958
13152TIP3    H260948   0.675   3.189   4.047  0.0079  0.4310 -0.5552
13153TIP3   OH260949   4.925   2.880  16.142  0.2479  0.2069  0.2362
13153TIP3    H160950   4.846   2.911  16.186  0.9264  4.2426 -1.2348
13153TIP3    H260951   4.997   2.923  16.187  1.2623  0.5863 -1.6725
13154TIP3   OH260952   0.193   0.527  14.725  0.2675 -0.2104 -0.0534
13154TIP3    H160953   0.098   0.518  14.716  0.4551 -4.5588  1.1871
13154TIP3    H260954   0.225   0.536  14.635 -1.1813 -0.1866 -0.5782
13155TIP3   OH260955   1.863   0.029   5.975  0.9627 -0.0201  0.1575
13155TIP3    H160956   1.798  -0.031   5.936 -0.3238  2.1694 -1.1688
13155TIP3    H260957   1.904  -0.023   6.044 -1.4662 -1.8261  0.3351
13156TIP3   OH260958   2.271   5.251   3.036 -0.0811 -0.5029 -0.5971
13156TIP3    H160959   2.291   5.288   2.950 -0.9686 -0.4673 -0.7907
13156TIP3    H260960   2.290   5.321   3.098 -0.6744 -0.1005 -0.8718
13157TIP3   OH260961   4.829   4.451   2.184 -0.2623 -0.5260 -0.4693
13157TIP3    H160962   4.838   4.539   2.221 -2.3601 -0.7545  0.6040
13157TIP3    H260963   4.788   4.465   2.099 -0.9237 -0.5082 -0.1440
13158TIP3   OH260964   5.549   5.910  14.548  0.0209 -0.2857  0.0867
13158TIP3    H160965   5.551   5.898  14.643  0.6327  1.0350  0.2512
13158TIP3    H260966   5.467   5.868  14.520  0.1537 -1.2477  1.1011
13159TIP3   OH260967   4.772   2.084  14.166  0.4034  0.4186 -0.1978
13159TIP3    H160968   4.813   2.056  14.248 -1.1091  0.3079  0.5390
13159TIP3    H260969   4.836   2.144  14.127  2.1964 -1.4178 -0.1498
13160TIP3   OH260970   5.967   4.365   2.127 -0.2330  0.1810 -0.5468
13160TIP3    H160971   5.961   4.286   2.074  0.9044  1.2346 -2.2897
13160TIP3    H260972   6.061   4.383   2.133 -0.4447  1.0591  0.3538
13161TIP3   OH260973   4.382   0.662  14.692  0.0763 -0.4482 -0.2426
13161TIP3    H160974   4.346   0.576  14.673 -1.1411 -0.1532  0.6083
13161TIP3    H260975   4.394   0.662  14.787 -0.0274  0.3532 -0.2277
13162TIP3   OH260976   4.005   6.251  15.076 -0.3450  0.4808  0.1486
13162TIP3    H160977   3.977   6.285  14.991  3.3686  0.9757 -0.9641
13162TIP3    H260978   3.985   6.322  15.138  0.0772  1.5117 -0.8757
13163TIP3   OH260979   2.864   2.212   3.717  0.2551 -0.2988  0.0117
13163TIP3    H160980   2.797   2.149   3.691 -0.9428  1.4939 -1.4557
13163TIP3    H260981   2.934   2.159   3.754 -1.1561 -2.3863 -0.2029
13164TIP3   OH260982   6.040   2.083   5.168 -0.4572 -0.0077  0.3132
13164TIP3    H160983   6.017   1.991   5.177 -1.2820  0.2631  1.0379
13164TIP3    H260984   5.959   2.130   5.189  0.1365  0.8922  0.6153
13165TIP3   OH260985   1.095   3.003   5.604 -0.8025  0.3523  0.1520
13165TIP3    H160986   1.113   2.957   5.686 -1.3847  0.6404  0.4502
13165TIP3    H260987   1.141   2.953   5.538  0.7435  0.8617  0.8248
13166TIP3   OH260988   4.633   5.402   3.094 -0.9368  0.2147 -0.0516
13166TIP3    H160989   4.576   5.365   3.161 -1.4958 -0.6026 -0.9693
13166TIP3    H260990   4.650   5.329   3.034  0.4831  0.6356 -0.1831
13167TIP3   OH260991   5.914   0.715  14.101 -0.6455  0.1973  0.1222
13167TIP3    H160992   5.939   0.660  14.027  0.5934  2.9191 -1.5678
13167TIP3    H260993   5.819   0.722  14.095 -0.7079 -0.9293 -0.2321
13168TIP3   OH260994   4.788   4.265  10.686 -0.4557  0.1110  0.1534
13168TIP3    H160995   4.703   4.309  10.693 -0.3581  0.7420 -2.2970
13168TIP3    H260996   4.848   4.333  10.655  0.4214 -0.9345 -0.4549
13169TIP3   OH260997   6.076   2.062  11.595  0.3114  0.3792 -0.8233
13169TIP3    H160998   6.098   2.063  11.688  0.6110 -0.8340 -0.8855
13169TIP3    H260999   5.997   2.116  11.589  0.1271  0.2257  0.1707
13170TIP3   OH261000   1.291   6.513  12.227  0.0458  0.3163 -0.4515
13170TIP3    H161001   1.201   6.495  12.198 -0.7436  0.5162  1.7530
13170TIP3    H261002   1.298   6.467  12.311  2.3686 -0.5707 -1.1036
13171TIP3   OH261003   1.783   1.865   1.076 -0.2752  0.4188  0.1034
13171TIP3    H161004   1.691   1.840   1.064 -0.0640  0.4723 -1.8954
13171TIP3    H261005   1.825   1.841   0.993  1.6255 -0.0615  1.1756
13172TIP3   OH261006   1.856   3.729  11.313 -0.2818 -0.1970  0.7405
13172TIP3    H161007   1.823   3.641  11.331 -0.0944 -0.3572  0.3194
13172TIP3    H261008   1.892   3.723  11.224 -0.1285  0.2649  0.7709
13173TIP3   OH261009   4.149   6.296   4.648  0.3505 -0.4606  0.0525
13173TIP3    H161010   4.104   6.379   4.662 -1.3974 -1.3407 -0.2558
13173TIP3    H261011   4.162   6.291   4.553 -0.2437 -0.8963 -0.0064
13174TIP3   OH261012   6.798   0.764  12.654 -0.3910  0.3356  0.1576
13174TIP3    H161013   6.766   0.844  12.696 -1.0450 -0.6433  1.5741
13174TIP3    H261014   6.722   0.729  12.608  0.2556  1.2561 -1.6541
13175TIP3   OH261015   4.839   4.051  14.127  0.5215 -0.4056  0.6105
13175TIP3    H161016   4.758   4.048  14.177 -0.3239  0.6659 -0.6625
13175TIP3    H261017   4.894   4.114  14.173 -1.1361  2.3236 -1.0392
13176TIP3   OH261018   1.642   1.984   3.564 -0.5292 -0.2869 -1.1230
13176TIP3    H161019   1.619   1.943   3.648  1.1177 -1.0938 -1.0441
13176TIP3    H261020   1.637   1.913   3.500 -0.1689 -0.0430 -1.4236
13177TIP3   OH261021   4.020   4.212   2.115  0.3276 -0.0502 -0.8798
13177TIP3    H161022   3.956   4.149   2.148 -0.0506 -0.1648 -1.8173
13177TIP3    H261023   4.011   4.208   2.020 -0.0187  1.7357 -0.9335
13178TIP3   OH261024   5.497   0.029  12.423 -0.0445  0.0560  0.1909
13178TIP3    H161025   5.425   0.037  12.485  1.5615 -0.7096  2.2136
13178TIP3    H261026   5.516  -0.065  12.420 -1.2321 -0.1623 -2.8441
13179TIP3   OH261027   1.409   5.254  11.346  0.2638  0.5477  0.0491
13179TIP3    H161028   1.490   5.297  11.319  0.3102  0.1854 -0.3896
13179TIP3    H261029   1.423   5.161  11.327  0.2643  0.2906  1.2223
13180TIP3   OH261030   2.548   3.489  16.919  0.4485  0.0872  0.3430
13180TIP3    H161031   2.559   3.526  17.006  0.4254 -1.3254  0.9679
13180TIP3    H261032   2.482   3.544  16.877 -0.7592 -0.1923  1.8235
13181TIP3   OH261033   1.760   4.729  14.136 -0.2971 -0.4494 -0.6380
13181TIP3    H161034   1.848   4.744  14.171 -0.1950  1.1940 -1.5766
13181TIP3    H261035   1.773   4.721  14.042 -1.2842  0.9180 -0.8991
13182TIP3   OH261036   3.726   1.934   2.644 -0.1758  0.4850  0.0701
13182TIP3    H161037   3.643   1.963   2.684 -0.8327  0.1883 -1.0672
13182TIP3    H261038   3.793   1.978   2.696 -1.0635  1.1792  0.6612
13183TIP3   OH261039   0.262   4.832   0.674  0.2534 -0.3741 -0.1050
13183TIP3    H161040   0.269   4.811   0.581  2.1430 -0.3544  0.0298
13183TIP3    H261041   0.208   4.761   0.710  0.1628 -0.8025 -1.0643
13184TIP3   OH261042   5.944   3.798  16.907 -0.2559  0.7203 -0.6229
13184TIP3    H161043   5.994   3.859  16.962  0.3438 -0.6383  0.3802
13184TIP3    H261044   5.999   3.784  16.830  0.2945  0.3070 -0.1631
13185TIP3   OH261045   5.088   4.480  14.827  0.4897 -0.1880  0.5892
13185TIP3    H161046   5.146   4.525  14.766 -0.0628 -0.7291 -0.3393
13185TIP3    H261047   5.036   4.421  14.773 -1.4863  0.8408  1.2839
13186TIP3   OH261048   0.852   2.639   4.272 -0.1653 -0.5615  0.3452
13186TIP3    H161049   0.929   2.634   4.215 -0.7050 -1.4401 -0.3377
13186TIP3    H261050   0.780   2.662   4.213 -0.2713  1.2240  1.1388
13187TIP3   OH261051   6.597   6.546  15.044  0.3083 -0.0909  0.2632
13187TIP3    H161052   6.662   6.592  14.991  0.3336 -0.1362  0.2564
13187TIP3    H261053   6.635   6.545  15.132  0.7883 -1.0227  0.0562
13188TIP3   OH261054   2.300   0.739  13.378  0.0034 -0.4581 -0.7719
13188TIP3    H161055   2.354   0.665  13.352  0.7339 -0.2618  0.1292
13188TIP3    H261056   2.330   0.760  13.467  0.2871  1.3450 -1.2693
13189TIP3   OH261057   5.680   2.514   3.036 -0.2256  0.5066  0.4988
13189TIP3    H161058   5.689   2.543   3.127 -1.7720  0.1929  0.7583
13189TIP3    H261059   5.623   2.579   2.995 -0.4514  0.0228  0.0410
13190TIP3   OH261060   1.370   6.086  17.105  0.4432  0.3564 -0.1098
13190TIP3    H161061   1.453   6.095  17.058  1.3740 -0.1126  1.3774
13190TIP3    H261062   1.393   6.102  17.197 -0.9654 -0.5684  0.4235
13191TIP3   OH261063   1.136   3.705  12.479  0.5918  0.1860  0.3624
13191TIP3    H161064   1.070   3.736  12.417  1.1878  0.4367 -0.1504
13191TIP3    H261065   1.087   3.689  12.560 -0.2717 -0.5910 -0.2977
13192TIP3   OH261066   2.252   4.293   0.091  0.2318 -0.2031 -0.1861
13192TIP3    H161067   2.214   4.379   0.105 -1.3898 -1.1956  1.7086
13192TIP3    H261068   2.274   4.291  -0.002 -0.1006  2.0819 -0.3345
13193TIP3   OH261069   0.032   1.754   3.626 -0.1796 -0.3640 -0.0926
13193TIP3    H161070   0.053   1.832   3.576  2.5928 -1.8100 -1.3037
13193TIP3    H261071   0.041   1.781   3.718 -0.5143  1.0359 -0.4584
13194TIP3   OH261072   3.876   3.062   5.423 -0.0396  0.5824 -0.0403
13194TIP3    H161073   3.941   3.055   5.354  0.4383  4.1729 -0.0330
13194TIP3    H261074   3.923   3.041   5.503  0.1397 -0.5817 -0.4360
13195TIP3   OH261075   2.156   5.847  13.438  0.7991  0.8272 -0.3545
13195TIP3    H161076   2.174   5.933  13.478  1.6993  1.7005 -2.5457
13195TIP3    H261077   2.181   5.784  13.505  0.8383  2.2778  1.0322
13196TIP3   OH261078   6.798   5.160  13.620  0.3010 -0.4724  0.0420
13196TIP3    H161079   6.742   5.213  13.563  0.8805  0.6116  0.4532
13196TIP3    H261080   6.738   5.096  13.659 -0.3010 -0.5157 -0.9327
13197TIP3   OH261081   2.825   6.669   4.922 -0.3775  0.7827 -0.1861
13197TIP3    H161082   2.816   6.714   4.838  0.4551  1.1064 -0.1112
13197TIP3    H261083   2.888   6.599   4.905  0.1804  1.1559  0.2739
13198TIP3   OH261084   3.833   5.912  14.603 -0.1724 -0.7029 -0.2199
13198TIP3    H161085   3.898   5.973  14.636 -1.4262  0.2780  0.4731
13198TIP3    H261086   3.780   5.890  14.679 -0.7778 -1.3387 -0.8183
13199TIP3   OH261087   0.824   4.498   4.002  0.7465  0.1545  0.3531
13199TIP3    H161088   0.740   4.522   3.963  1.0397  0.3584 -0.1628
13199TIP3    H261089   0.803   4.431   4.066  0.1498  0.4457  0.4597
13200TIP3   OH261090   6.332   0.229  11.641  0.7442  0.1248 -0.1862
13200TIP3    H161091   6.363   0.197  11.726 -1.1596 -0.9284  0.1257
13200TIP3    H261092   6.347   0.155  11.582  0.5023  0.2536 -0.4065
13201TIP3   OH261093   6.524   4.781  15.429  0.3688  0.4531 -0.4778
13201TIP3    H161094   6.515   4.847  15.361  0.1505  2.0285  1.0649
13201TIP3    H261095   6.591   4.816  15.488 -0.2728 -0.3514  0.7438
13202TIP3   OH261096   2.715   5.152   4.479  0.2939 -0.4383  0.5211
13202TIP3    H161097   2.755   5.221   4.533  1.2583 -1.2555  0.8684
13202TIP3    H261098   2.783   5.128   4.417 -1.1693  1.2430 -1.8144
13203TIP3   OH261099   1.361   3.302  12.518 -0.2933 -0.5139  0.6694
13203TIP3    H161100   1.399   3.217  12.539 -0.7471 -0.9073 -0.0763
13203TIP3    H261101   1.269   3.283  12.497 -0.5369  0.2320  1.0291
13204TIP3   OH261102   0.871   1.434  13.966  0.1585  0.5379  0.3996
13204TIP3    H161103   0.873   1.503  14.033  0.2797  0.0535  0.8940
13204TIP3    H261104   0.852   1.481  13.884 -0.7877  1.0289  0.8966
13205TIP3   OH261105   3.840   4.663  12.909 -1.0797  0.0289  0.3966
13205TIP3    H161106   3.915   4.703  12.955 -1.1593  0.0319  0.5216
13205TIP3    H261107   3.822   4.582  12.957 -1.1492  0.0207  0.3573
13206TIP3   OH261108   0.962   5.491  15.385  0.0530  0.4465 -0.0319
13206TIP3    H161109   0.869   5.502  15.401  0.0610  2.4633 -1.2226
13206TIP3    H261110   0.968   5.424  15.317 -0.5501  0.6008 -0.2359
13207TIP3   OH261111   1.768   5.881   5.704 -0.1392  0.8293  0.0886
13207TIP3    H161112   1.695   5.820   5.696  0.5919 -0.0749  0.2807
13207TIP3    H261113   1.760   5.938   5.628 -0.1557 -0.2387 -0.7242
13208TIP3   OH261114   1.545   2.021  11.794  0.4427  0.2835 -0.1982
13208TIP3    H161115   1.521   1.995  11.883  0.0613 -2.3658 -1.0053
13208TIP3    H261116   1.469   1.996  11.741  1.1611  0.6943 -1.4331
13209TIP3   OH261117   4.014   5.672   2.620  0.0390  0.6057 -0.4218
13209TIP3    H161118   3.934   5.710   2.585  1.0735  4.9890  1.7483
13209TIP3    H261119   4.083   5.734   2.598  1.9614 -0.3393  2.5245
13210TIP3   OH261120   3.842   6.636   2.866  0.0237  0.1396 -0.1324
13210TIP3    H161121   3.851   6.653   2.772  1.8265  1.0426  0.1886
13210TIP3    H261122   3.898   6.701   2.908 -0.5874 -0.3967  1.5791
13211TIP3   OH261123   3.613   5.399   1.912 -0.5206  0.4740  0.8181
13211TIP3    H161124   3.678   5.441   1.969 -0.0750  0.3531  0.4101
13211TIP3    H261125   3.608   5.457   1.836 -0.3219  0.0881  0.5075
13212TIP3   OH261126   3.861   0.184  17.189  0.2742  0.6135  0.4992
13212TIP3    H161127   3.888   0.160  17.101  0.1779  1.8906  0.1083
13212TIP3    H261128   3.769   0.158  17.195  0.6001 -0.5086  0.6126
13213TIP3   OH261129   5.914   3.428   1.183  0.3045  0.1280  0.2250
13213TIP3    H161130   5.891   3.335   1.189 -1.0044  0.3503 -0.8789
13213TIP3    H261131   5.926   3.456   1.273 -0.1982 -0.9090  0.6251
13214TIP3   OH261132   5.596   2.433  16.769 -0.1921  0.0520  0.0035
13214TIP3    H161133   5.653   2.377  16.821 -0.8980 -0.3521  0.3543
13214TIP3    H261134   5.643   2.516  16.762  0.5945 -0.3984 -0.0231
13215TIP3   OH261135   3.867   4.055   0.948 -0.5560 -0.1818  0.2277
13215TIP3    H161136   3.902   4.001   1.019  0.5541 -0.3284 -0.4310
13215TIP3    H261137   3.774   4.065   0.970  0.0182  0.7643  2.3486
13216TIP3   OH261138   2.205   1.803   0.256  0.4615  0.1840 -0.7779
13216TIP3    H161139   2.124   1.757   0.231  0.3608  0.1985 -0.4855
13216TIP3    H261140   2.275   1.745   0.228  0.3055 -1.2292  1.6029
13217TIP3   OH261141   4.578   2.125  15.005  0.2629 -0.1609  0.6198
13217TIP3    H161142   4.598   2.121  15.098  1.0615 -1.1295  0.4175
13217TIP3    H261143   4.557   2.034  14.981 -0.5761  0.1813 -0.0117
13218TIP3   OH261144   2.367   2.172  11.886  0.3166 -0.1481  0.5052
13218TIP3    H161145   2.337   2.087  11.852 -1.0346  0.3604  0.3879
13218TIP3    H261146   2.337   2.235  11.821 -0.4957  0.6258  1.6213
13219TIP3   OH261147   1.857   5.200  14.773 -0.3113  0.0834  0.3891
13219TIP3    H161148   1.922   5.183  14.842 -0.8937  0.9244  1.1522
13219TIP3    H261149   1.777   5.157  14.804 -0.2157 -0.7051 -0.4163
13220TIP3   OH261150   4.414   2.240   0.184  0.1713 -0.2188  0.0070
13220TIP3    H161151   4.485   2.201   0.235  1.3743  0.9476 -0.7437
13220TIP3    H261152   4.428   2.334   0.191 -0.2178 -0.0162 -1.6623
13221TIP3   OH261153   3.587   5.269  17.053  0.0707 -0.2305 -0.3566
13221TIP3    H161154   3.547   5.326  16.988 -1.1226 -2.3880 -1.5875
13221TIP3    H261155   3.666   5.236  17.011 -0.8142 -1.7972 -0.8617
13222TIP3   OH261156   3.761   6.786   5.799 -0.4475  0.1418  0.2903
13222TIP3    H161157   3.697   6.825   5.858 -0.0459 -0.8678  1.4239
13222TIP3    H261158   3.833   6.849   5.796 -2.8756  2.9870 -3.7598
13223TIP3   OH261159   2.174   6.185   1.824  0.0513  0.1972  0.0770
13223TIP3    H161160   2.156   6.091   1.829 -0.3384  0.3208  1.2609
13223TIP3    H261161   2.089   6.225   1.807 -0.2491  0.5216  2.1951
13224TIP3   OH261162   4.925   3.076   2.691  0.5504 -0.3888 -0.1501
13224TIP3    H161163   4.833   3.065   2.664  0.6434 -1.1609 -0.1510
13224TIP3    H261164   4.958   2.987   2.701  1.3662 -0.1090 -0.3532
13225TIP3   OH261165   1.285   5.143  16.971  0.1077  0.4347  0.2262
13225TIP3    H161166   1.316   5.177  16.887  0.0626 -0.3215 -0.1043
13225TIP3    H261167   1.197   5.179  16.981 -0.0600  0.1661 -0.2676
13226TIP3   OH261168   2.396   2.678   1.769  0.3643  1.0617  0.3319
13226TIP3    H161169   2.358   2.625   1.700  3.2851 -0.9144  0.1483
13226TIP3    H261170   2.444   2.747   1.724  0.7260  0.8825  0.4423
13227TIP3   OH261171   6.455   3.007   0.808  1.0893 -0.1990 -0.2231
13227TIP3    H161172   6.386   3.072   0.815  0.2034 -1.1152 -0.3080
13227TIP3    H261173   6.498   3.008   0.894 -1.2694 -2.0504  1.0484
13228TIP3   OH261174   6.023   0.840   0.370 -0.5898 -0.0248 -0.1592
13228TIP3    H161175   6.030   0.935   0.376 -1.9944  0.0740  0.0625
13228TIP3    H261176   6.054   0.808   0.455  1.0416  0.1568 -0.6677
13229TIP3   OH261177   6.209   0.752   1.442  0.2965 -0.1317 -0.3273
13229TIP3    H161178   6.265   0.750   1.520 -0.2745  0.1386  0.0968
13229TIP3    H261179   6.169   0.839   1.445 -1.2455 -0.8330  0.1578
13230TIP3   OH261180   5.618   6.574  16.729 -0.2830  0.2813 -0.1371
13230TIP3    H161181   5.564   6.647  16.760 -0.2142 -0.0031  0.6861
13230TIP3    H261182   5.668   6.548  16.807  1.2391  0.7202 -0.9643
13231TIP3   OH261183   1.438   5.723   2.842 -0.1833  0.4277  0.6424
13231TIP3    H161184   1.449   5.817   2.829  0.0514  0.3045 -0.0191
13231TIP3    H261185   1.465   5.709   2.933 -1.0455  1.1341  1.0269
13232TIP3   OH261186   4.619   0.393   0.831 -0.3883  0.0628 -0.7625
13232TIP3    H161187   4.701   0.349   0.853 -0.9264 -0.7223 -0.3029
13232TIP3    H261188   4.619   0.398   0.735 -0.8672 -2.0231 -0.8922
13233TIP3   OH261189   5.045   2.513  12.315 -0.3173  0.3847 -0.0292
13233TIP3    H161190   5.136   2.541  12.324 -0.1543 -0.6305  1.6998
13233TIP3    H261191   5.046   2.420  12.338 -1.3933 -0.2893 -2.4718
13234TIP3   OH261192   4.467   3.965   5.005 -0.0822  0.4712 -0.3638
13234TIP3    H161193   4.441   4.057   4.997  1.1795  0.8061 -0.7317
13234TIP3    H261194   4.402   3.927   5.064  0.2740  1.9622  1.0287
13235TIP3   OH261195   4.728   1.506   0.946  0.5629  0.4337  0.1472
13235TIP3    H161196   4.699   1.551   1.026  0.8185  0.0953  0.4335
13235TIP3    H261197   4.656   1.517   0.885  0.1812  0.3257  0.5737
13236TIP3   OH261198   6.638   2.935  16.105  0.3933  0.1353 -0.1018
13236TIP3    H161199   6.729   2.946  16.080  0.1607 -1.4169 -1.7188
13236TIP3    H261200   6.610   2.855  16.060 -1.6921  0.4635  0.5527
13237TIP3   OH261201   6.350   3.838   5.609  0.0846  0.0752 -0.1547
13237TIP3    H161202   6.269   3.797   5.579  1.5908 -1.8745 -1.6631
13237TIP3    H261203   6.321   3.914   5.660 -2.6929 -1.2712  0.3441
13238TIP3   OH261204   6.673   0.718  16.411  0.1210  0.1177  0.0453
13238TIP3    H161205   6.679   0.795  16.467  1.9421 -0.7880  1.1482
13238TIP3    H261206   6.757   0.674  16.422 -0.8023 -1.9001 -0.7543
13239TIP3   OH261207   3.216   5.371  14.651 -0.2380  0.1433  0.2603
13239TIP3    H161208   3.126   5.358  14.619 -0.6544  0.8986  1.1329
13239TIP3    H261209   3.271   5.345  14.576 -1.1587 -0.8925 -0.0838
13240TIP3   OH261210   0.766   3.196   5.511 -0.6761  0.5176 -0.3799
13240TIP3    H161211   0.750   3.272   5.456 -0.6752  0.9970  0.2695
13240TIP3    H261212   0.861   3.191   5.519 -0.6849  0.5931 -0.2245
13241TIP3   OH261213   6.794   0.833   5.455  0.5790 -0.7269  0.4041
13241TIP3    H161214   6.754   0.747   5.463  0.9162 -0.9610 -0.3872
13241TIP3    H261215   6.883   0.816   5.422  0.6629 -0.0862  0.2769
13242TIP3   OH261216   1.808   3.397  15.580  0.0841  0.0855  0.9605
13242TIP3    H161217   1.777   3.442  15.659 -2.7732 -1.6376  0.8796
13242TIP3    H261218   1.800   3.462  15.510 -0.9480  0.4350  1.4013
13243TIP3   OH261219   4.788   5.228  11.924 -0.3075 -0.4713 -0.5796
13243TIP3    H161220   4.849   5.154  11.928 -1.7673 -1.7120 -0.8543
13243TIP3    H261221   4.703   5.190  11.943 -1.0311  1.2222 -0.3536
13244TIP3   OH261222   0.282   5.235  11.893 -0.1065 -0.3405  0.2591
13244TIP3    H161223   0.237   5.241  11.809 -0.7388 -2.9567  0.3492
13244TIP3    H261224   0.360   5.289  11.883 -0.2400 -0.5264 -1.9731
13245TIP3   OH261225   5.450   0.981   2.962 -0.4577  0.3194  0.0936
13245TIP3    H161226   5.433   0.899   2.916 -0.3276  0.5381 -0.3463
13245TIP3    H261227   5.539   0.971   2.996 -0.8027 -0.1128  0.8784
13246TIP3   OH261228   5.045   0.141  14.702 -0.1723 -0.3824  0.8314
13246TIP3    H161229   5.030   0.231  14.672 -1.2125 -0.6590  0.4953
13246TIP3    H261230   5.097   0.101  14.633 -1.1589 -0.5317  0.1566
13247TIP3   OH261231   6.635   2.612  11.751 -0.2281  0.0077 -0.7327
13247TIP3    H161232   6.574   2.609  11.825  0.9086  0.0806  0.2094
13247TIP3    H261233   6.667   2.702  11.750 -0.0175 -0.0719 -1.1345
13248TIP3   OH261234   6.420   2.893  12.368 -0.4776 -0.4980 -0.5463
13248TIP3    H161235   6.347   2.913  12.310 -0.4585 -0.8188 -0.6792
13248TIP3    H261236   6.496   2.931  12.324 -0.6675  0.4781 -0.0531
13249TIP3   OH261237   4.256   5.272   0.248  0.6778 -0.2367  0.3493
13249TIP3    H161238   4.274   5.209   0.178  0.2250  1.0054 -0.9208
13249TIP3    H261239   4.195   5.227   0.306 -0.5332 -0.5872 -1.1583
13250TIP3   OH261240   2.311   2.158  11.284  0.0237  0.1323  0.0049
13250TIP3    H161241   2.378   2.160  11.216 -0.8358 -1.1456 -0.9009
13250TIP3    H261242   2.302   2.066  11.307 -1.1172  0.3310  0.4295
13251TIP3   OH261243   6.724   2.650   1.174  0.0459 -0.0231  0.1665
13251TIP3    H161244   6.670   2.614   1.245 -0.5789  1.4564  0.4486
13251TIP3    H261245   6.814   2.642   1.207 -0.0336 -1.6776  0.0611
13252TIP3   OH261246   2.048   6.631   2.148  0.5796  0.0515  0.0831
13252TIP3    H161247   2.005   6.548   2.169  2.1559 -0.6262  0.7250
13252TIP3    H261248   2.045   6.681   2.230 -1.2006  1.0395 -0.5478
13253TIP3   OH261249   1.720   4.381  12.894 -0.5048  0.5056 -0.0581
13253TIP3    H161250   1.658   4.402  12.824  1.0664  0.1440 -1.5864
13253TIP3    H261251   1.741   4.466  12.932 -1.0816  0.7524 -0.2769
13254TIP3   OH261252   2.677   4.044  16.084  1.0476 -0.0428 -0.4230
13254TIP3    H161253   2.630   3.967  16.116  0.3816  1.0119  1.1880
13254TIP3    H261254   2.766   4.035  16.119  1.1189 -0.3319 -0.6735
13255TIP3   OH261255   3.246   4.876  17.031 -0.7416  0.3020 -0.1333
13255TIP3    H161256   3.301   4.952  17.008 -0.6970  1.1939  2.7556
13255TIP3    H261257   3.157   4.906  17.015 -0.6752  0.6400  0.1242
13256TIP3   OH261258   3.290   2.962   5.225 -0.2572 -0.3247 -0.3176
13256TIP3    H161259   3.264   2.933   5.138  1.0167 -0.8598 -0.5402
13256TIP3    H261260   3.324   2.883   5.267 -3.5869 -0.7475  1.7568
13257TIP3   OH261261   2.948   6.256  12.025 -0.5886 -0.4702 -0.2350
13257TIP3    H161262   3.008   6.255  11.950 -0.3618 -1.6145 -0.0562
13257TIP3    H261263   2.943   6.348  12.050  2.9256 -0.5676  1.1814
13258TIP3   OH261264   1.946   2.203  16.479 -0.0844 -0.3583 -0.7052
13258TIP3    H161265   2.006   2.129  16.476  0.1288 -0.1591 -1.6105
13258TIP3    H261266   2.001   2.279  16.461 -0.6139 -0.1762 -1.5712
13259TIP3   OH261267   6.378   2.858   6.163 -0.1749 -0.1076 -0.0985
13259TIP3    H161268   6.344   2.768   6.172 -1.4709  0.3823  0.0490
13259TIP3    H261269   6.460   2.858   6.212  0.4603 -1.5421 -1.1258
13260TIP3   OH261270   5.146   5.117   5.295 -0.2153  0.0201 -0.5220
13260TIP3    H161271   5.214   5.178   5.322  0.3248 -0.8939  0.2177
13260TIP3    H261272   5.119   5.074   5.377 -0.6851 -0.6229 -1.0126
13261TIP3   OH261273   0.450   2.188  16.042 -0.3265  0.4383 -0.0763
13261TIP3    H161274   0.500   2.265  16.015 -1.8461  1.4319 -0.1225
13261TIP3    H261275   0.509   2.140  16.101  0.8679  1.2880 -0.5542
13262TIP3   OH261276   5.089   3.544   4.319  0.0194 -0.0484  0.0908
13262TIP3    H161277   5.058   3.635   4.323 -1.3054 -0.4872 -0.0179
13262TIP3    H261278   5.183   3.550   4.337 -0.0004  1.3779 -0.2176
13263TIP3   OH261279   4.911   6.636  11.924  0.0350 -0.1996  0.2736
13263TIP3    H161280   4.923   6.691  11.846 -1.0405 -0.0083  0.2296
13263TIP3    H261281   4.880   6.696  11.991  0.2667 -0.4964  0.6465
13264TIP3   OH261282   2.674   3.661   5.231 -0.1653 -0.2017 -0.2018
13264TIP3    H161283   2.675   3.603   5.307 -3.4532  0.4575  0.4273
13264TIP3    H261284   2.695   3.747   5.267 -0.0472 -0.1844 -0.3139
13265TIP3   OH261285   2.112   3.513   6.157 -1.0863  0.0529 -0.0474
13265TIP3    H161286   2.085   3.470   6.238  0.8948 -0.8155  0.1899
13265TIP3    H261287   2.104   3.607   6.175  2.3606 -0.0280  2.2952
13266TIP3   OH261288   0.138   5.486  16.068  0.4490  0.2792  0.0149
13266TIP3    H161289   0.172   5.399  16.087  0.5560  0.7642  2.0932
13266TIP3    H261290   0.092   5.476  15.984  3.0115 -1.0619 -1.2651
13267TIP3   OH261291   4.479   3.049  11.091 -0.2963  0.0653 -0.2172
13267TIP3    H161292   4.540   2.975  11.093 -0.5932 -0.2064 -1.2069
13267TIP3    H261293   4.496   3.092  11.007  0.5654  1.7102  0.7572
13268TIP3   OH261294   1.977   4.222   5.965  0.1922  0.0411 -0.9158
13268TIP3    H161295   1.903   4.178   5.923  2.9376 -2.2965 -3.6109
13268TIP3    H261296   1.990   4.174   6.047 -0.4349 -0.4295 -1.0875
13269TIP3   OH261297   0.364   6.008  13.601 -0.0740 -0.3814  0.0364
13269TIP3    H161298   0.283   5.969  13.569 -0.5760  0.0021  0.8306
13269TIP3    H261299   0.409   6.038  13.522 -1.3002  0.5550 -0.3267
13270TIP3   OH261300   3.790   5.141  15.618  0.3078  0.6212 -0.3612
13270TIP3    H161301   3.717   5.176  15.668  0.6139  1.1176 -0.2532
13270TIP3    H261302   3.829   5.075  15.675  0.7587  1.3037  0.1286
13271TIP3   OH261303   5.542   1.947   0.753 -0.8294  0.1913 -0.0149
13271TIP3    H161304   5.632   1.978   0.750 -0.8359  0.1736 -0.4421
13271TIP3    H261305   5.502   1.981   0.672 -1.4701  1.0233  0.6365
13272TIP3   OH261306   2.491   5.041  17.242 -0.0572 -0.9065  0.7516
13272TIP3    H161307   2.465   5.133  17.242 -1.0254 -1.1790  0.6447
13272TIP3    H261308   2.567   5.037  17.183  0.6078 -0.0072  1.5453
13273TIP3   OH261309   4.669   3.209  13.717  0.2333  0.5174 -0.5591
13273TIP3    H161310   4.707   3.154  13.648 -0.4012 -0.3816 -0.2073
13273TIP3    H261311   4.685   3.159  13.798 -1.2304  0.3674 -0.3519
13274TIP3   OH261312   1.878   1.810  13.669 -0.6360 -0.3190  0.0585
13274TIP3    H161313   1.817   1.753  13.715 -1.5220 -0.8315 -1.6970
13274TIP3    H261314   1.958   1.757  13.660 -0.5342 -0.2944  0.7841
13275TIP3   OH261315   6.044   0.580   1.272 -0.1762 -0.2587 -0.6815
13275TIP3    H161316   6.130   0.562   1.234 -0.0384  0.3174 -0.6550
13275TIP3    H261317   6.061   0.645   1.340 -0.7004  0.2484 -1.0229
13276TIP3   OH261318   0.475   0.639   2.813  0.2026 -0.1997  0.3733
13276TIP3    H161319   0.442   0.586   2.886 -1.9671 -0.6110 -0.8542
13276TIP3    H261320   0.559   0.598   2.790 -0.2343 -1.5442  1.1030
13277TIP3   OH261321   6.310   5.658  13.884 -0.7825 -0.2311  0.9232
13277TIP3    H161322   6.265   5.630  13.804 -0.3591 -0.7210  0.8535
13277TIP3    H261323   6.317   5.753  13.876 -2.1315 -0.1082  1.1046
13278TIP3   OH261324   1.254   0.147  12.233  0.0634  0.0781  0.2357
13278TIP3    H161325   1.302   0.230  12.222  0.0869  0.0890  0.4198
13278TIP3    H261326   1.312   0.093  12.286  0.0051 -0.0214  0.1988
13279TIP3   OH261327   1.004   6.005  12.515  0.0218  0.3588 -0.4172
13279TIP3    H161328   1.043   6.055  12.586  1.1173 -0.4716 -0.4268
13279TIP3    H261329   1.078   5.982  12.458 -0.7423  0.4087 -1.4478
13280TIP3   OH261330   3.881   3.514   5.211  0.0493 -0.2834  0.4032
13280TIP3    H161331   3.961   3.524   5.160  0.2077 -0.4434  0.6211
13280TIP3    H261332   3.908   3.530   5.301  0.0604 -1.4352  0.6139
13281TIP3   OH261333   3.532   6.092   0.388 -0.0983  0.2894 -0.1905
13281TIP3    H161334   3.601   6.127   0.445  0.6919  0.3066 -1.1406
13281TIP3    H261335   3.450   6.119   0.430  0.4407 -0.8920  1.6822
13282TIP3   OH261336   5.636   3.407   3.028 -0.3038 -0.6758 -0.1105
13282TIP3    H161337   5.656   3.316   3.006 -0.4303 -0.2497 -2.1257
13282TIP3    H261338   5.692   3.427   3.102  1.1089 -1.8383 -0.8465
13283TIP3   OH261339   3.159   4.083   4.641  0.7559  0.2877 -0.1081
13283TIP3    H161340   3.068   4.054   4.640  0.6112  0.7251 -0.0414
13283TIP3    H261341   3.168   4.137   4.562  0.9808  0.1842 -0.1565
13284TIP3   OH261342   0.646   0.098   5.342  0.0780  0.3384 -0.6914
13284TIP3    H161343   0.584   0.101   5.268 -0.3954 -1.2299 -0.3798
13284TIP3    H261344   0.607   0.154   5.409 -1.4410 -1.3232 -0.1762
13285TIP3   OH261345   6.789   3.527   4.911 -0.1716 -0.3775  0.0495
13285TIP3    H161346   6.864   3.482   4.950  1.4665 -0.0415 -2.5469
13285TIP3    H261347   6.800   3.513   4.817 -2.2096  1.4895 -0.5017
13286TIP3   OH261348   5.962   2.895  15.038  0.3419 -0.1630  0.4619
13286TIP3    H161349   5.870   2.870  15.028  0.2006  0.9096 -0.9954
13286TIP3    H261350   5.960   2.968  15.101 -0.1536  1.9265 -1.9066
13287TIP3   OH261351   0.992   4.420  14.346 -0.3199  0.2783  0.0201
13287TIP3    H161352   1.087   4.411  14.349 -0.0227  2.9609 -0.4519
13287TIP3    H261353   0.960   4.353  14.407  1.9080  0.1401  1.0858
13288TIP3   OH261354   1.082   0.305   5.095 -0.2226 -0.2065 -0.4556
13288TIP3    H161355   0.997   0.260   5.094  0.5702 -1.7185  0.3096
13288TIP3    H261356   1.132   0.264   5.025  0.4821 -0.4587  0.1946
13289TIP3   OH261357   0.348   0.928  14.888  0.3815 -0.0339 -0.2904
13289TIP3    H161358   0.321   0.939  14.979  0.4483 -1.1890 -0.1313
13289TIP3    H261359   0.376   0.837  14.881  1.0154  0.2246 -1.3021
13290TIP3   OH261360   6.247   6.425   0.315 -0.5061 -0.1047  0.9721
13290TIP3    H161361   6.184   6.355   0.299  0.6488 -0.9185 -0.1319
13290TIP3    H261362   6.222   6.494   0.254 -0.0320 -0.6243  0.1871
13291TIP3   OH261363   5.383   1.564  11.409  0.4920 -0.4102  0.2023
13291TIP3    H161364   5.424   1.543  11.325 -1.5058  0.9467 -1.1519
13291TIP3    H261365   5.425   1.505  11.472  1.0032 -2.4405 -1.9936
13292TIP3   OH261366   6.791   4.007   5.259 -0.0509 -0.3238  0.0504
13292TIP3    H161367   6.794   4.082   5.318  2.9596 -1.3984  1.3646
13292TIP3    H261368   6.820   4.043   5.175  1.3554  0.0121  0.6656
13293TIP3   OH261369   2.666   5.060   0.522  0.1062  0.2474 -0.4715
13293TIP3    H161370   2.632   4.996   0.585  1.6314 -0.2508 -0.1414
13293TIP3    H261371   2.588   5.108   0.493 -0.7954 -0.4381  0.7507
13294TIP3   OH261372   4.943   6.167   2.006 -0.6009 -0.4091 -0.0774
13294TIP3    H161373   4.851   6.180   2.030 -0.5637 -0.2684 -0.0123
13294TIP3    H261374   4.991   6.234   2.056 -0.2925 -1.5029  1.1243
13295TIP3   OH261375   1.354   3.148   0.116  0.5168 -0.3421  0.1140
13295TIP3    H161376   1.305   3.206   0.057 -0.9464  0.2573  1.8702
13295TIP3    H261377   1.445   3.178   0.110  0.6640 -1.2865 -2.9709
13296TIP3   OH261378   1.812   2.549  16.810 -0.4189 -0.0759 -0.0677
13296TIP3    H161379   1.833   2.456  16.807 -1.1774 -0.2371 -0.5670
13296TIP3    H261380   1.762   2.565  16.729  1.2976  1.1532 -0.9294
13297TIP3   OH261381   4.134   1.382   3.462  0.1834 -0.0496  0.0270
13297TIP3    H161382   4.222   1.385   3.500 -0.0033  0.0842  0.4519
13297TIP3    H261383   4.078   1.424   3.527 -0.3783 -1.1650  0.2811
13298TIP3   OH261384   3.795   2.926   0.652  0.3415  0.3752 -0.3652
13298TIP3    H161385   3.773   2.891   0.739  1.6164  0.3742 -0.0213
13298TIP3    H261386   3.755   3.013   0.651 -0.0939  0.1863  0.0381
13299TIP3   OH261387   2.926   2.380  12.926  0.0662 -0.3699 -0.3288
13299TIP3    H161388   2.856   2.444  12.938 -2.1922 -3.0034  1.0638
13299TIP3    H261389   2.922   2.356  12.833  0.1804  0.6281 -0.5948
13300TIP3   OH261390   3.097   1.766   0.096 -0.6338 -0.2865 -0.6127
13300TIP3    H161391   3.084   1.856   0.126  0.4093 -0.2549 -0.2511
13300TIP3    H261392   3.082   1.712   0.174  0.9902 -0.2724 -0.2699
13301TIP3   OH261393   3.232   0.907   4.264  0.5433  0.1043  0.0878
13301TIP3    H161394   3.210   0.991   4.304  0.2627 -0.2065  0.5895
13301TIP3    H261395   3.325   0.895   4.283  0.5471  0.2258  0.1489
13302TIP3   OH261396   5.133   4.000  16.384  0.4444  0.0355 -0.0825
13302TIP3    H161397   5.207   4.056  16.406  1.1343 -0.1286 -1.9207
13302TIP3    H261398   5.063   4.061  16.359 -0.3728  0.2285  2.4564
13303TIP3   OH261399   5.376   3.222  15.688 -0.3048 -0.0950  0.3486
13303TIP3    H161400   5.350   3.226  15.596  1.0432  0.0286 -0.0449
13303TIP3    H261401   5.317   3.158  15.727  0.1367 -1.3122 -0.9476
13304TIP3   OH261402   0.982   0.742   5.427  0.1854 -0.2062 -0.3312
13304TIP3    H161403   0.953   0.657   5.396  0.1595 -0.1170 -0.5526
13304TIP3    H261404   0.969   0.739   5.522  0.4764 -0.5593 -0.3014
13305TIP3   OH261405   1.185   2.675  13.005  0.1781 -0.4084 -0.6073
13305TIP3    H161406   1.265   2.625  12.993 -0.3665 -1.6437  0.7071
13305TIP3    H261407   1.215   2.765  13.020  1.2993 -0.8114 -0.3755
13306TIP3   OH261408   3.539   5.037  11.434 -0.9538  0.1966 -0.5957
13306TIP3    H161409   3.627   5.006  11.454 -1.3328 -0.9164 -0.6216
13306TIP3    H261410   3.497   4.963  11.390 -1.8024  0.8297 -0.8627
13307TIP3   OH261411   4.904   3.714  17.149 -0.5818  0.3688  0.2254
13307TIP3    H161412   4.958   3.639  17.123 -1.6588 -1.0415  1.9324
13307TIP3    H261413   4.824   3.706  17.097  0.1228  1.5328 -1.0945
13308TIP3   OH261414   2.195   6.496   5.521 -0.1515 -0.1883 -0.4611
13308TIP3    H161415   2.175   6.436   5.450  0.6274  1.1079 -1.7913
13308TIP3    H261416   2.161   6.580   5.493  1.3563  0.6271  0.0998
13309TIP3   OH261417   4.906   3.237  13.017 -0.7833 -0.2111  0.5142
13309TIP3    H161418   4.912   3.249  13.112  3.3875  0.1430  0.2948
13309TIP3    H261419   4.959   3.159  13.000 -2.5490 -1.0086 -1.4066
13310TIP3   OH261420   1.076   2.473  14.846  0.2186  0.8226  0.2761
13310TIP3    H161421   0.993   2.426  14.847  0.3704  0.5563  1.6685
13310TIP3    H261422   1.069   2.534  14.772 -0.4826 -0.4674 -0.7376
13311TIP3   OH261423   1.752   3.089   5.667  0.4057  0.0210  0.2277
13311TIP3    H161424   1.735   3.160   5.729  1.0570 -0.2202  0.6951
13311TIP3    H261425   1.803   3.129   5.597  0.0249  0.2053  0.0578
13312TIP3   OH261426   0.918   2.654  10.938  0.1987  0.3461 -0.2880
13312TIP3    H161427   0.934   2.694  10.853  0.3262  1.5285  0.2926
13312TIP3    H261428   0.830   2.684  10.962  0.9468  1.6202  0.8970
13313TIP3   OH261429   4.159   2.770   1.623  0.0491 -0.1199 -0.6802
13313TIP3    H161430   4.150   2.857   1.586  2.3520  0.5019  0.1118
13313TIP3    H261431   4.218   2.724   1.562 -0.4243 -0.8209 -0.6169
13314TIP3   OH261432   2.637   5.458  14.690 -0.0378  0.1406 -0.0813
13314TIP3    H161433   2.604   5.508  14.616  0.5518  0.0662 -0.4061
13314TIP3    H261434   2.596   5.372  14.680  1.5827 -0.5090 -1.4882
13315TIP3   OH261435   6.386   3.804  16.202 -0.1198 -0.3545 -0.1935
13315TIP3    H161436   6.404   3.830  16.292 -0.3673  0.8160 -0.4629
13315TIP3    H261437   6.389   3.709  16.202 -2.2067 -0.4553  1.5112
13316TIP3   OH261438   3.185   5.612  15.300  0.3192 -0.6752  0.2876
13316TIP3    H161439   3.220   5.533  15.259  0.7404 -0.3603  0.0369
13316TIP3    H261440   3.105   5.583  15.344  0.3996 -1.2123  0.0803
13317TIP3   OH261441   2.551   6.756  16.607 -0.4371 -0.1387 -0.0670
13317TIP3    H161442   2.541   6.827  16.545 -2.1193  0.1405  0.4984
13317TIP3    H261443   2.464   6.716  16.613 -0.1754 -0.5242  1.6520
13318TIP3   OH261444   2.494   0.540  15.868  0.5341 -0.3322  0.7071
13318TIP3    H161445   2.581   0.505  15.847  0.6059 -0.2430  0.8542
13318TIP3    H261446   2.512   0.629  15.899  0.2085  0.5539 -1.5148
13319TIP3   OH261447   3.891   1.148  14.353  0.3488  0.1629  0.2518
13319TIP3    H161448   3.819   1.211  14.350 -0.3257 -0.5914  0.2022
13319TIP3    H261449   3.938   1.160  14.270  0.3526  0.7445  0.3413
13320TIP3   OH261450   5.619   2.217  12.293 -0.1910 -0.6732 -0.2077
13320TIP3    H161451   5.651   2.138  12.335 -0.9115 -1.2580 -0.7400
13320TIP3    H261452   5.546   2.187  12.238 -2.1692  0.7188  1.5715
13321TIP3   OH261453   2.640   2.255  14.777  0.1488  0.0608 -0.3621
13321TIP3    H161454   2.552   2.276  14.808  0.5745 -0.2969  1.1382
13321TIP3    H261455   2.681   2.209  14.850  1.5531  0.1362 -1.0787
13322TIP3   OH261456   6.214   0.108  13.059  0.4657 -0.1861  0.0918
13322TIP3    H161457   6.278   0.076  12.995  1.3106 -1.5932  1.6079
13322TIP3    H261458   6.217   0.043  13.130 -3.0646 -0.6062 -0.0608
13323TIP3   OH261459   1.196   3.667  12.073 -0.1801 -0.0074  0.9147
13323TIP3    H161460   1.224   3.648  11.984  1.1684 -1.8704  1.7198
13323TIP3    H261461   1.192   3.763  12.077 -1.1722  0.0865 -1.3977
13324TIP3   OH261462   1.574   4.614  15.885  0.1663 -0.1386  0.8046
13324TIP3    H161463   1.657   4.642  15.924  0.5884 -0.8768  0.4413
13324TIP3    H261464   1.507   4.660  15.936  0.8149  0.9394  0.7058
13325TIP3   OH261465   1.572   1.837   0.262  0.5219  0.2276  0.8160
13325TIP3    H161466   1.500   1.803   0.315  1.8691 -0.4541  2.2184
13325TIP3    H261467   1.590   1.768   0.198 -1.3281  1.1874 -0.8331
13326TIP3   OH261468   1.502   1.088  16.130 -0.2517  0.1958 -0.5903
13326TIP3    H161469   1.478   0.999  16.154 -2.6776  0.5958 -1.4206
13326TIP3    H261470   1.459   1.104  16.047  1.6914  1.5263 -1.3884
13327TIP3   OH261471   5.311   6.485  16.368  0.0970  0.3289  0.1345
13327TIP3    H161472   5.402   6.481  16.397  0.9239  0.2665 -2.3163
13327TIP3    H261473   5.260   6.456  16.444  2.0904  0.6098  1.6227
13328TIP3   OH261474   2.447   6.154   2.309  0.0960  0.3350  0.5341
13328TIP3    H161475   2.425   6.115   2.225  1.2895  0.1636  0.2876
13328TIP3    H261476   2.507   6.225   2.287  1.1220 -0.2791  1.2999
13329TIP3   OH261477   5.161   0.700  16.105  0.0199 -0.3009  0.2292
13329TIP3    H161478   5.093   0.677  16.169 -0.4627 -1.8215 -0.8084
13329TIP3    H261479   5.239   0.718  16.158 -0.5609 -0.8667  1.2801
13330TIP3   OH261480   4.992   1.824  13.408  0.0901 -0.4780 -0.1476
13330TIP3    H161481   4.980   1.838  13.502  0.7900 -0.5854 -0.0408
13330TIP3    H261482   4.939   1.747  13.388 -1.8056  0.8089 -0.2683
13331TIP3   OH261483   5.849   0.347  14.662  0.4256 -0.2101 -0.5543
13331TIP3    H161484   5.832   0.437  14.691 -0.8627 -0.5299 -0.2922
13331TIP3    H261485   5.815   0.292  14.732  1.4144 -0.8960 -0.6181
13332TIP3   OH261486   1.842   5.671   4.401 -0.1746 -0.1495 -0.3244
13332TIP3    H161487   1.775   5.613   4.437  0.3228 -0.3632  0.2663
13332TIP3    H261488   1.865   5.729   4.474  1.4723 -1.1600 -0.0229
13333TIP3   OH261489   5.885   2.358  17.150 -0.4876  0.4821 -0.1524
13333TIP3    H161490   5.964   2.311  17.177 -0.5763  0.1126 -0.5310
13333TIP3    H261491   5.865   2.323  17.063 -1.3428  0.2350  0.1491
13334TIP3   OH261492   6.516   1.567  12.528  0.0738 -0.4639  0.4956
13334TIP3    H161493   6.578   1.532  12.592  1.5882 -0.0313 -0.6990
13334TIP3    H261494   6.459   1.625  12.579  2.5327  1.4745  1.1292
13335TIP3   OH261495   4.809   4.586  16.434 -0.0239  0.4811 -0.1926
13335TIP3    H161496   4.736   4.524  16.423 -0.3039  0.3941  1.8115
13335TIP3    H261497   4.824   4.587  16.529  2.6934  0.3855 -0.5944
13336TIP3   OH261498   3.447   3.354   6.573 -0.2139  0.8822 -0.5614
13336TIP3    H161499   3.394   3.383   6.499  0.8602  1.7682 -0.9951
13336TIP3    H261500   3.527   3.320   6.533  0.5551  1.7654  0.2027
13337TIP3   OH261501   6.644   6.281  11.445 -0.0786  0.3980 -0.2197
13337TIP3    H161502   6.580   6.227  11.398  0.3493 -0.7411  0.4841
13337TIP3    H261503   6.718   6.290  11.385 -0.8979  1.7723 -1.0627
13338TIP3   OH261504   6.312   1.354  16.693 -0.7389 -0.0513 -0.6067
13338TIP3    H161505   6.264   1.321  16.769  0.1117 -2.0380 -0.8810
13338TIP3    H261506   6.278   1.301  16.620 -0.8271  1.1435 -1.4441
13339TIP3   OH261507   0.671   5.257  12.654 -0.7122  0.1096 -0.6959
13339TIP3    H161508   0.665   5.331  12.593 -1.1025  0.8241  0.2033
13339TIP3    H261509   0.603   5.196  12.623  1.1617 -0.9512 -2.8476
13340TIP3   OH261510   5.647   3.854   3.927  0.2166  0.2032 -0.6389
13340TIP3    H161511   5.625   3.834   4.018  0.2296  1.9163 -0.2401
13340TIP3    H261512   5.564   3.878   3.887  0.8371  3.8413  0.1156
13341TIP3   OH261513   6.428   1.492   4.864  0.3877  0.3659  0.3223
13341TIP3    H161514   6.509   1.471   4.911  0.3414  1.5968  0.9653
13341TIP3    H261515   6.457   1.545   4.789  0.1811  0.7137  0.4908
13342TIP3   OH261516   0.722   4.213   0.230 -0.0533  0.9007  0.0204
13342TIP3    H161517   0.767   4.284   0.276  0.8408  0.5550 -0.3026
13342TIP3    H261518   0.700   4.150   0.300  0.0021  1.0505  0.1734
13343TIP3   OH261519   1.373   5.936  15.458  0.3620 -0.2597  0.5302
13343TIP3    H161520   1.306   5.904  15.520 -0.3917 -0.0499 -0.1669
13343TIP3    H261521   1.368   6.031  15.464 -1.3644 -0.1772 -1.5651
13344TIP3   OH261522   0.295   5.906  16.989 -0.3483  0.1596  0.4542
13344TIP3    H161523   0.296   5.815  17.021 -1.7014 -0.2485 -0.6219
13344TIP3    H261524   0.293   5.959  17.069 -1.2714 -0.7971  1.0836
13345TIP3   OH261525   1.606   1.395   3.637 -0.2732  0.3731 -0.7714
13345TIP3    H161526   1.521   1.350   3.637  0.0092 -0.1670 -1.0226
13345TIP3    H261527   1.666   1.331   3.600  1.0979 -0.8058  3.2657
13346TIP3   OH261528   1.257   1.795  12.775  0.6814  0.0665 -0.1980
13346TIP3    H161529   1.325   1.855  12.803 -0.9544  1.4184  1.0388
13346TIP3    H261530   1.218   1.835  12.698  1.2989 -0.7240 -0.9307
13347TIP3   OH261531   1.143   4.485  12.968 -0.3249 -0.0512 -0.0047
13347TIP3    H161532   1.107   4.479  12.880 -1.1904 -1.6843  0.4434
13347TIP3    H261533   1.073   4.523  13.020  0.2911  1.1908 -0.0685
13348TIP3   OH261534   0.826   0.863  16.973  0.3955  0.0527 -0.4165
13348TIP3    H161535   0.769   0.888  16.901  0.0657  1.7190  0.4002
13348TIP3    H261536   0.907   0.833  16.931  0.0947  0.7215 -1.4757
13349TIP3   OH261537   2.828   0.504  13.749  0.2764 -0.1682 -0.0255
13349TIP3    H161538   2.755   0.523  13.690 -0.8346 -1.1615  1.0019
13349TIP3    H261539   2.861   0.590  13.775 -0.4404  0.2906 -0.6230
13350TIP3   OH261540   2.127   3.835  15.709  0.3167  0.5386  0.1686
13350TIP3    H161541   2.215   3.797  15.701  0.2077 -0.0812  1.7818
13350TIP3    H261542   2.070   3.775  15.660  0.7935  1.0444 -1.0420
13351TIP3   OH261543   0.113   3.418  15.438  0.1874  0.1967 -0.5250
13351TIP3    H161544   0.134   3.503  15.477 -1.6090 -0.2876  1.5593
13351TIP3    H261545   0.182   3.404  15.373  4.0285  0.4984  3.2554
13352TIP3   OH261546   5.323   6.192  15.794  0.1017  0.5329  0.5642
13352TIP3    H161547   5.281   6.162  15.713  0.2462 -0.3838  0.8257
13352TIP3    H261548   5.303   6.286  15.798  2.3598  1.1847 -1.9289
13353TIP3   OH261549   3.517   2.213   0.981 -0.3000  0.7482  0.3421
13353TIP3    H161550   3.428   2.182   0.963 -0.1456 -0.3537  1.3815
13353TIP3    H261551   3.512   2.255   1.067  0.5955 -1.2414  1.4142
13354TIP3   OH261552   5.388   2.957  11.236  0.1067 -0.3724 -0.4516
13354TIP3    H161553   5.418   2.913  11.156 -0.4430 -0.3072 -0.6973
13354TIP3    H261554   5.442   3.035  11.242 -0.5944  0.1919 -1.3623
13355TIP3   OH261555   1.304   1.807   0.745  0.2928 -0.5389 -0.0616
13355TIP3    H161556   1.375   1.742   0.751 -0.4053 -1.1449  1.9919
13355TIP3    H261557   1.269   1.813   0.834 -2.2878 -0.2743 -1.0541
13356TIP3   OH261558   6.015   3.934  11.996 -0.2524 -0.3261  0.3384
13356TIP3    H161559   5.925   3.956  11.973 -0.0596  0.8382  0.6804
13356TIP3    H261560   6.014   3.839  12.007 -1.6143 -0.2380  1.1041
13357TIP3   OH261561   0.259   2.958  11.555 -0.6006  0.0273 -0.1221
13357TIP3    H161562   0.188   2.975  11.493 -1.3802  0.6388  0.9283
13357TIP3    H261563   0.216   2.921  11.632  0.2776 -0.0627  0.3329
13358TIP3   OH261564   6.593   3.171  12.042 -0.2338 -0.2298  0.2308
13358TIP3    H161565   6.513   3.220  12.025  0.3871  0.6712 -0.1420
13358TIP3    H261566   6.652   3.235  12.082 -0.2725 -1.2986  2.0881
13359TIP3   OH261567   2.226   6.398  15.443 -0.1884 -0.3959 -0.4754
13359TIP3    H161568   2.298   6.346  15.478  0.3756 -0.8307 -2.2382
13359TIP3    H261569   2.237   6.484  15.483  0.6589 -0.7768  0.1191
13360TIP3   OH261570   5.855   2.694   6.032  0.2399 -0.2937 -0.3260
13360TIP3    H161571   5.936   2.668   6.076 -1.3675 -0.6075  2.6016
13360TIP3    H261572   5.876   2.775   5.987  1.8177  0.4453  1.6633
13361TIP3   OH261573   1.095   5.133   2.281 -0.1344  0.5040  0.1830
13361TIP3    H161574   1.135   5.084   2.208 -0.7425  1.0177 -0.5018
13361TIP3    H261575   1.013   5.166   2.245 -0.5477  0.5758  1.1808
13362TIP3   OH261576   1.175   3.565  10.966 -0.4735  0.2317 -0.1166
13362TIP3    H161577   1.220   3.492  10.924  0.5056  0.4768  0.5043
13362TIP3    H261578   1.126   3.607  10.895  0.9145  0.4495 -0.9460
13363TIP3   OH261579   0.263   4.143   5.607  0.2236 -0.1577  0.3692
13363TIP3    H161580   0.221   4.194   5.538 -1.3607 -2.6593 -0.6014
13363TIP3    H261581   0.193   4.127   5.671  0.4406 -1.8226  0.2166
13364TIP3   OH261582   5.024   5.213  12.110 -0.0843 -0.0403 -0.1368
13364TIP3    H161583   4.989   5.298  12.082 -0.2134 -0.8030 -2.4204
13364TIP3    H261584   4.948   5.166  12.144 -0.1664  0.4481  0.3627
13365TIP3   OH261585   0.599   4.485  12.737  0.2680 -0.0145 -0.1662
13365TIP3    H161586   0.585   4.524  12.650 -1.2359  0.0157  0.0856
13365TIP3    H261587   0.513   4.486  12.778  0.9137 -0.3302  1.2155
13366TIP3   OH261588   2.254   3.564   5.387 -0.5628 -0.7122 -0.0685
13366TIP3    H161589   2.172   3.602   5.354  0.0476 -0.3292 -1.1793
13366TIP3    H261590   2.228   3.514   5.464 -1.6991  0.2543  0.1963
13367TIP3   OH261591   2.176   1.320   1.774  0.3958 -0.6408  0.0427
13367TIP3    H161592   2.145   1.407   1.800 -2.0896 -1.3744 -0.3309
13367TIP3    H261593   2.256   1.337   1.725  0.6348  1.3487  1.0707
13368TIP3   OH261594   4.256   3.093  13.592  0.0848  0.4616  0.2696
13368TIP3    H161595   4.234   3.163  13.655 -0.8166  1.2222 -0.8702
13368TIP3    H261596   4.278   3.140  13.512  0.1717 -0.5513 -0.3002
13369TIP3   OH261597   6.059   3.354  15.696 -0.3490 -0.4614 -0.3924
13369TIP3    H161598   6.128   3.288  15.708  0.3881  0.3229 -0.2960
13369TIP3    H261599   6.099   3.436  15.725 -1.3728 -0.0231 -0.2069
13370TIP3   OH261600   1.638   1.002   2.962 -0.2878 -0.0549 -0.3965
13370TIP3    H161601   1.727   0.997   2.925 -0.0461 -1.4223  0.3575
13370TIP3    H261602   1.649   1.048   3.045 -0.1431 -1.0017  0.1152
13371TIP3   OH261603   4.411   5.409   5.818 -0.1214 -0.3439 -1.3171
13371TIP3    H161604   4.404   5.316   5.795 -1.8061 -1.3906  3.0211
13371TIP3    H261605   4.321   5.436   5.836  0.5977  1.6011 -0.4895
13372TIP3   OH261606   2.336   1.656   2.619 -0.0624  0.7752 -0.1372
13372TIP3    H161607   2.318   1.672   2.527 -0.1705  1.1400 -0.0518
13372TIP3    H261608   2.424   1.691   2.632  0.2955 -0.0459 -0.3015
13373TIP3   OH261609   0.529   5.436   3.464  0.4511 -0.3842 -0.3393
13373TIP3    H161610   0.447   5.483   3.476  1.2469  1.3261 -1.4428
13373TIP3    H261611   0.595   5.504   3.451  1.6772 -1.7726 -1.7138
13374TIP3   OH261612   1.275   2.189   0.063 -0.7115  0.6263 -0.4514
13374TIP3    H161613   1.334   2.170  -0.011  0.2884 -0.5415  0.6350
13374TIP3    H261614   1.319   2.151   0.139 -3.3473 -1.1664  0.2287
13375TIP3   OH261615   3.964   4.880   3.934  0.3194 -0.7983 -0.0299
13375TIP3    H161616   3.925   4.968   3.934 -0.0107 -0.9424  0.4237
13375TIP3    H261617   3.893   4.822   3.907  1.1574 -0.6696 -2.6503
13376TIP3   OH261618   5.171   4.493  11.468 -0.3640  0.6110  0.2716
13376TIP3    H161619   5.235   4.423  11.482  0.1392  0.9000 -0.6039
13376TIP3    H261620   5.223   4.568  11.441 -1.0672  0.8558 -0.4169
13377TIP3   OH261621   6.030   0.793  17.196  0.4036  0.7600 -0.2390
13377TIP3    H161622   5.944   0.822  17.227  1.3024  3.9101 -0.4650
13377TIP3    H261623   6.019   0.779  17.102  0.0530  0.9640 -0.2292
13378TIP3   OH261624   1.133   5.652   1.733  0.0141  0.0604  0.4747
13378TIP3    H161625   1.212   5.598   1.726 -0.1898 -0.1409 -0.3428
13378TIP3    H261626   1.061   5.592   1.711 -0.3547  0.2887  1.0313
13379TIP3   OH261627   6.220   4.196   6.461 -0.0904  0.1610 -0.2457
13379TIP3    H161628   6.280   4.124   6.440 -1.0912 -0.5667 -0.6602
13379TIP3    H261629   6.244   4.266   6.400  0.3096 -0.1392 -0.4324
13380TIP3   OH261630   1.680   2.026  13.897 -0.4384  0.3530  0.1601
13380TIP3    H161631   1.621   2.048  13.970 -0.0570  0.5417  0.4104
13380TIP3    H261632   1.632   2.055  13.819 -2.2239 -2.6549  0.0561
13381TIP3   OH261633   6.776   2.784  13.537 -0.4585 -0.3438 -0.0781
13381TIP3    H161634   6.845   2.847  13.516 -0.4680 -0.2469  0.1892
13381TIP3    H261635   6.821   2.699  13.538 -0.6218 -0.4674 -1.3990
13382TIP3   OH261636   1.142   6.765  14.370  0.0572  0.0062  0.3436
13382TIP3    H161637   1.078   6.772  14.440 -0.3982 -0.2890 -0.0440
13382TIP3    H261638   1.145   6.853  14.332  0.4134  0.2037  0.8253
13383TIP3   OH261639   6.694   2.374  14.405 -0.5245  0.0197 -0.3047
13383TIP3    H161640   6.741   2.343  14.328 -1.3035  0.2314 -0.8852
13383TIP3    H261641   6.762   2.400  14.467  0.1265 -2.1478 -0.0819
13384TIP3   OH261642   3.992   1.351   6.164  0.0145 -0.0730 -0.2961
13384TIP3    H161643   3.961   1.415   6.100 -1.2320 -0.9994 -0.6347
13384TIP3    H261644   4.051   1.294   6.115 -0.0230 -0.0719 -0.3425
13385TIP3   OH261645   2.836   2.330   2.048  0.6940 -0.4780  0.1531
13385TIP3    H161646   2.764   2.354   1.989  0.2123  0.2126  1.0126
13385TIP3    H261647   2.815   2.240   2.074  2.4802 -1.9267 -3.0300
13386TIP3   OH261648   0.924   6.141   3.924 -0.1085  0.1660  0.4925
13386TIP3    H161649   1.009   6.173   3.954 -0.8815  1.7108  1.1197
13386TIP3    H261650   0.879   6.114   4.005 -0.6245  0.4040  0.2897
13387TIP3   OH261651   4.217   2.650   6.389 -0.5564 -0.0850 -0.5760
13387TIP3    H161652   4.270   2.702   6.329 -1.2192 -0.3585 -1.4187
13387TIP3    H261653   4.129   2.653   6.352 -1.1943  0.6137  0.9714
13388TIP3   OH261654   5.921   2.869  11.543  0.2240 -0.3161  0.0106
13388TIP3    H161655   6.016   2.874  11.551  0.3369 -0.3572 -1.1320
13388TIP3    H261656   5.891   2.958  11.561  0.6146  0.0574 -1.1351
13389TIP3   OH261657   1.922   5.446   5.255 -0.8340  0.0485  0.0230
13389TIP3    H161658   1.868   5.377   5.216  1.4529 -1.3114 -0.8688
13389TIP3    H261659   1.960   5.406   5.333 -1.0320  0.9645  0.6025
13390TIP3   OH261660   0.154   2.106   4.570  0.4966  0.2760 -0.1781
13390TIP3    H161661   0.110   2.157   4.502 -0.3807 -1.5045 -0.9828
13390TIP3    H261662   0.229   2.160   4.595  0.7000  1.0952 -2.3770
13391TIP3   OH261663   4.992   0.101  10.587  0.1413 -0.4943  0.4015
13391TIP3    H161664   4.991   0.107  10.683 -1.7468 -1.7372  0.4759
13391TIP3    H261665   4.906   0.135  10.560  1.2404  1.2858 -0.9565
13392TIP3   OH261666   1.525   3.511  16.311 -0.0129  0.4541  0.1596
13392TIP3    H161667   1.472   3.444  16.353  0.0272  0.6637  0.5481
13392TIP3    H261668   1.465   3.554  16.249 -0.0369  0.0631 -0.0941
13393TIP3   OH261669   0.917   2.177   4.445  0.2619  0.0173 -0.4642
13393TIP3    H161670   0.897   2.271   4.439 -1.2436 -0.2674 -0.1495
13393TIP3    H261671   0.977   2.171   4.519  0.4575  0.7533 -0.5553
13394TIP3   OH261672   2.975   0.747  17.071 -0.0125  0.2802  0.2278
13394TIP3    H161673   2.972   0.821  17.132  1.3877  0.1623  0.4464
13394TIP3    H261674   2.960   0.787  16.985 -0.4548  0.6539  0.4714
13395TIP3   OH261675   4.509   2.506   1.132  0.4114 -0.1089  0.3217
13395TIP3    H161676   4.589   2.485   1.180  0.2987 -0.6227  0.2934
13395TIP3    H261677   4.533   2.578   1.074  0.6507  0.2591  0.8748
13396TIP3   OH261678   4.722   2.270   6.350  0.2409 -0.0451  0.6458
13396TIP3    H161679   4.802   2.286   6.300 -0.2060 -0.3135 -0.1592
13396TIP3    H261680   4.729   2.329   6.425 -0.1903  2.1289 -0.9569
13397TIP3   OH261681   4.973   3.189   1.456 -0.2555  0.2267 -0.4661
13397TIP3    H161682   5.049   3.130   1.458 -1.0106 -0.7643 -0.0953
13397TIP3    H261683   5.002   3.264   1.405  1.3500  0.3937  0.6445
13398TIP3   OH261684   0.816   1.670   6.183 -0.1113  0.1366 -0.5669
13398TIP3    H161685   0.844   1.681   6.274 -2.4832 -1.4869  0.4048
13398TIP3    H261686   0.877   1.606   6.148  1.2783  1.3148 -0.3698
13399TIP3   OH261687   1.814   1.920  15.271 -0.5998  0.3144 -0.0079
13399TIP3    H161688   1.730   1.898  15.230 -1.9688  1.3853  2.1406
13399TIP3    H261689   1.819   2.015  15.265  0.4070  0.2653  0.0053
13400TIP3   OH261690   1.534   0.160   5.880 -0.1549 -0.4728  0.3897
13400TIP3    H161691   1.537   0.153   5.976  0.3419 -3.4060  0.2229
13400TIP3    H261692   1.597   0.094   5.850 -1.3096 -0.5408 -1.9737
13401TIP3   OH261693   1.934   5.247  17.141  0.6193 -0.5595 -0.1123
13401TIP3    H161694   1.911   5.279  17.054  2.6717 -0.4849 -0.6535
13401TIP3    H261695   2.023   5.214  17.132  0.7798 -0.7638  1.9070
13402TIP3   OH261696   4.777   5.882   5.452 -0.3900 -0.9464 -0.3713
13402TIP3    H161697   4.863   5.875   5.493 -0.4161  0.2632 -0.1140
13402TIP3    H261698   4.767   5.800   5.404  2.7031  0.6008 -3.8507
13403TIP3   OH261699   3.810   1.286  11.137  0.1344 -0.9678 -0.3452
13403TIP3    H161700   3.776   1.204  11.100  0.4515 -1.3325  0.1760
13403TIP3    H261701   3.885   1.307  11.082 -0.2528 -0.7561 -0.7979
13404TIP3   OH261702   6.002   1.248  13.588  0.3369 -0.2113 -0.2298
13404TIP3    H161703   6.096   1.235  13.587  0.2819 -0.6104 -0.1460
13404TIP3    H261704   5.972   1.206  13.669  0.1659  0.4566  0.0655
13405TIP3   OH261705   5.078   2.760  16.412 -0.8796 -0.2174 -0.1297
13405TIP3    H161706   5.108   2.759  16.321 -0.6331 -1.9634 -0.0468
13405TIP3    H261707   5.131   2.829  16.453 -1.9155  1.4782 -1.5853
13406TIP3   OH261708   2.765   3.849  11.523  0.1576  0.3862  0.1995
13406TIP3    H161709   2.750   3.909  11.597  1.1618  0.1962  0.5767
13406TIP3    H261710   2.700   3.780  11.534  0.0677  0.5474  0.7133
13407TIP3   OH261711   5.989   1.480  14.208 -0.0796  0.0529  0.1565
13407TIP3    H161712   6.020   1.413  14.147 -0.7729 -0.6584  0.5771
13407TIP3    H261713   5.996   1.562  14.159  1.0425 -0.2905 -0.2600
13408TIP3   OH261714   5.143   6.671   6.218 -0.0496  0.0111  0.0742
13408TIP3    H161715   5.173   6.718   6.296 -2.7456  1.4937  0.2839
13408TIP3    H261716   5.187   6.714   6.145  1.9903 -0.9685  0.6641
13409TIP3   OH261717   5.511   5.737   4.761 -0.1794  0.2070 -0.2740
13409TIP3    H161718   5.603   5.758   4.748 -0.4264  0.6989 -1.2507
13409TIP3    H261719   5.499   5.737   4.856  0.7732  0.3560 -0.1552
13410TIP3   OH261720   4.900   5.794  13.723  0.1076  0.0557 -0.2921
13410TIP3    H161721   4.927   5.731  13.656  0.4622  0.1047 -0.1962
13410TIP3    H261722   4.939   5.762  13.804  1.2976  1.0395 -0.4498
13411TIP3   OH261723   6.304   5.724   4.456 -0.2591 -0.2637 -0.5494
13411TIP3    H161724   6.360   5.653   4.486 -1.5733 -0.8609  0.5063
13411TIP3    H261725   6.229   5.723   4.515 -1.3900  0.5264 -1.9279
13412TIP3   OH261726   0.863   5.257  16.117  0.0011  0.0526  0.5589
13412TIP3    H161727   0.809   5.334  16.133 -1.2239 -0.4670 -1.0024
13412TIP3    H261728   0.805   5.195  16.074  1.9492 -0.3525 -1.5753
13413TIP3   OH261729   1.311   1.982  11.979 -0.2050  0.3881 -0.6746
13413TIP3    H161730   1.271   2.031  11.907 -0.7950  2.2898  0.8959
13413TIP3    H261731   1.264   2.012  12.057  1.1172 -0.8738  0.6279
13414TIP3   OH261732   6.033   0.270  12.938  0.1633  0.4449 -0.1262
13414TIP3    H161733   6.063   0.184  12.966 -1.3640 -0.2322 -0.5469
13414TIP3    H261734   5.940   0.259  12.919 -0.3686  2.5043  1.1333
13415TIP3   OH261735   5.254   2.467  10.395  0.3417 -0.0310  0.2412
13415TIP3    H161736   5.276   2.525  10.468  1.0746 -0.3214  0.2518
13415TIP3    H261737   5.266   2.379  10.431  1.4661 -0.1708 -0.4623
13416TIP3   OH261738   1.497   2.877   1.266 -0.2480 -0.2815  0.0350
13416TIP3    H161739   1.455   2.945   1.319  0.1286  0.4812 -0.6290
13416TIP3    H261740   1.425   2.833   1.221 -0.5722 -0.9290  1.1568
13417TIP3   OH261741   2.374   3.641  16.694  0.6144 -0.0732  0.0195
13417TIP3    H161742   2.432   3.621  16.620  0.6080 -0.1872  0.0434
13417TIP3    H261743   2.418   3.712  16.740 -0.7676  1.9335 -1.6800
13418TIP3   OH261744   4.100   1.496   4.602 -0.1965  0.4210  0.7960
13418TIP3    H161745   4.070   1.587   4.599 -0.1250  0.4009 -1.0826
13418TIP3    H261746   4.192   1.502   4.629  0.6621  1.1636 -2.0505
13419TIP3   OH261747   0.595   1.984  16.307 -0.0551 -0.5361 -0.2395
13419TIP3    H161748   0.585   1.902  16.357 -0.7496 -0.8966 -0.9702
13419TIP3    H261749   0.689   2.003  16.313 -0.2712 -0.0123  2.0835
13420TIP3   OH261750   3.312   1.192   5.319  0.1816 -0.2286  0.5587
13420TIP3    H161751   3.308   1.210   5.413  0.0719  0.0350  0.5046
13420TIP3    H261752   3.224   1.215   5.286 -0.7484 -3.0675  0.8744
13421TIP3   OH261753   4.053   3.642   1.104 -0.0494  0.0548  0.4543
13421TIP3    H161754   4.073   3.626   1.011  0.0283 -1.6778  0.7448
13421TIP3    H261755   3.965   3.606   1.116  0.6435 -1.3772  1.4459
13422TIP3   OH261756   4.156   5.395  12.685 -0.4349 -0.6345 -0.7870
13422TIP3    H161757   4.221   5.341  12.729 -0.8873  1.4262  2.5436
13422TIP3    H261758   4.079   5.390  12.741 -1.0141  2.1217 -1.2828
13423TIP3   OH261759   2.121   1.146  12.732 -0.2937 -0.5594 -0.0787
13423TIP3    H161760   2.180   1.189  12.671 -0.2910 -0.5791 -0.0893
13423TIP3    H261761   2.103   1.061  12.693 -1.8174  0.1715 -1.0180
13424TIP3   OH261762   2.912   5.276  15.928 -0.3639  0.5563 -0.1514
13424TIP3    H161763   2.898   5.243  15.840  1.1792  2.7312 -1.2620
13424TIP3    H261764   2.826   5.272  15.969 -1.3122  0.4603 -2.1048
13425TIP3   OH261765   5.983   6.395  15.906 -0.1539 -0.8796 -1.0089
13425TIP3    H161766   6.034   6.378  15.827 -0.2188  0.6564 -1.4072
13425TIP3    H261767   6.033   6.355  15.977  0.9112 -0.5701 -1.5797
13426TIP3   OH261768   5.600   4.711   3.251  0.5649 -0.3481 -0.2901
13426TIP3    H161769   5.677   4.654   3.255  0.5993 -0.1652  1.8282
13426TIP3    H261770   5.601   4.760   3.333 -1.7746 -0.2757 -0.2624
13427TIP3   OH261771   0.220   2.651   3.983  0.2170  0.6488 -0.6622
13427TIP3    H161772   0.191   2.726   4.035  0.3626  0.1106  0.2243
13427TIP3    H261773   0.234   2.686   3.895 -2.0474  1.1461 -0.8559
13428TIP3   OH261774   5.504   5.793  12.701  0.2285  0.4243  0.5917
13428TIP3    H161775   5.584   5.745  12.722 -0.3007 -0.3442  0.9045
13428TIP3    H261776   5.533   5.864  12.644  1.0722 -0.1139  0.3272
13429TIP3   OH261777   2.782   2.338   1.240  0.3777  0.4143 -0.1527
13429TIP3    H161778   2.747   2.295   1.319 -0.9924  1.0284 -0.4106
13429TIP3    H261779   2.737   2.295   1.168  1.3217  0.1459 -0.5914
13430TIP3   OH261780   5.160   3.724   6.120 -0.1339  0.2571  0.2572
13430TIP3    H161781   5.167   3.629   6.124 -0.2253  0.2421  0.0840
13430TIP3    H261782   5.071   3.740   6.086 -0.2601  0.4094  0.6537
13431TIP3   OH261783   4.337   3.018  13.949  0.1336  0.0781 -0.2865
13431TIP3    H161784   4.374   3.004  14.036 -0.7351  1.0221  0.2463
13431TIP3    H261785   4.243   3.020  13.963  0.0926  3.9506 -0.6567
13432TIP3   OH261786   1.270   6.597   2.968 -0.0141 -0.8696  0.1048
13432TIP3    H161787   1.307   6.518   3.008  0.8884 -0.6023 -0.1731
13432TIP3    H261788   1.249   6.653   3.043  1.1284 -0.6073  0.2496
13433TIP3   OH261789   4.633   1.118   1.828 -0.0167 -0.2057  0.5774
13433TIP3    H161790   4.702   1.119   1.762 -0.0993 -0.0286  0.4939
13433TIP3    H261791   4.622   1.210   1.852 -0.1916 -0.2401  0.6267
13434TIP3   OH261792   0.302   4.783   4.042  0.0646  0.2528  0.4590
13434TIP3    H161793   0.287   4.878   4.046 -1.3748  0.0459  0.4339
13434TIP3    H261794   0.371   4.773   3.977 -0.8521  1.2031 -0.7095
13435TIP3   OH261795   4.629   4.586   0.692  0.2846  0.0604 -0.2673
13435TIP3    H161796   4.541   4.604   0.660 -0.1295 -2.7769 -0.9017
13435TIP3    H261797   4.684   4.587   0.613  0.9273  2.1838  0.1697
13436TIP3   OH261798   2.115   4.807  10.441 -0.3219 -0.5718 -0.0178
13436TIP3    H161799   2.186   4.755  10.479  1.0342 -0.7947 -2.6711
13436TIP3    H261800   2.073   4.849  10.515  3.1648  0.2572  1.6053
13437TIP3   OH261801   1.930   1.619   3.915 -0.0067 -0.4724  0.4904
13437TIP3    H161802   1.944   1.639   4.008 -0.7143 -0.0657  0.5070
13437TIP3    H261803   1.958   1.528   3.906  2.7623  0.3111  0.5085
13438TIP3   OH261804   2.033   2.157  15.729 -0.1602 -0.0773  0.2558
13438TIP3    H161805   1.951   2.110  15.712 -0.4013 -0.4869  2.4192
13438TIP3    H261806   2.099   2.088  15.740  0.3582  0.2328 -0.8335
13439TIP3   OH261807   2.070   1.111  12.226 -0.4110  0.2887 -0.2142
13439TIP3    H161808   1.984   1.151  12.235 -0.2118  0.8287 -0.7195
13439TIP3    H261809   2.130   1.184  12.213 -0.0024 -0.1405 -0.7944
13440TIP3   OH261810   6.496   1.220   5.892 -0.2727  0.0167  0.9105
13440TIP3    H161811   6.590   1.230   5.903 -0.4438  1.8136  0.9973
13440TIP3    H261812   6.477   1.262   5.808 -0.9568 -0.5763  0.7593
13441TIP3   OH261813   0.216   1.333   5.782  0.1522 -0.8348 -0.1566
13441TIP3    H161814   0.169   1.283   5.850 -0.3510  0.1135  0.2015
13441TIP3    H261815   0.297   1.361   5.824  0.0023 -0.5521 -0.0502
13442TIP3   OH261816   4.239   1.806   4.562  0.4565 -0.8629  0.0952
13442TIP3    H161817   4.254   1.847   4.477 -0.1406  1.8978  1.2664
13442TIP3    H261818   4.158   1.756   4.551  0.2856 -0.3708 -0.9023
13443TIP3   OH261819   3.765   6.458   3.094 -0.1420  0.0179 -0.0115
13443TIP3    H161820   3.812   6.506   3.025 -0.5577  0.6532  0.1445
13443TIP3    H261821   3.673   6.463   3.068 -0.2595 -0.0694  0.3893
13444TIP3   OH261822   3.218   5.320  15.702 -0.4063 -0.2349  0.0779
13444TIP3    H161823   3.253   5.408  15.688  2.3254 -1.3074 -0.1343
13444TIP3    H261824   3.185   5.321  15.792 -0.8018  1.1154 -0.0702
13445TIP3   OH261825   6.402   5.428   5.038  0.4798 -0.1133  0.0650
13445TIP3    H161826   6.329   5.439   4.978  1.0545 -0.3541 -0.6777
13445TIP3    H261827   6.376   5.354   5.093  0.1164 -0.1250 -0.1173
13446TIP3   OH261828   1.768   0.567   1.505  0.1933 -0.1192 -0.3094
13446TIP3    H161829   1.778   0.651   1.461  0.5980  0.4324  0.8262
13446TIP3    H261830   1.684   0.573   1.550  0.6185  0.0001  0.4716
13447TIP3   OH261831   3.832   0.532  15.169 -0.1362 -0.2843  0.6294
13447TIP3    H161832   3.777   0.454  15.178 -1.7401  0.7244 -0.1991
13447TIP3    H261833   3.787   0.585  15.103  1.5590  0.8106  0.3350
13448TIP3   OH261834   1.426   1.587  16.952  0.1579  0.4268 -0.1580
13448TIP3    H161835   1.394   1.675  16.971  1.2466  0.5932  0.9605
13448TIP3    H261836   1.510   1.581  16.997  0.9614 -0.5586 -1.7113
13449TIP3   OH261837   2.098   4.637   2.275 -0.6878  0.5373  0.0464
13449TIP3    H161838   2.183   4.680   2.259 -0.9955  0.6638 -1.3342
13449TIP3    H261839   2.033   4.698   2.241 -1.1989 -0.5264 -0.9428
13450TIP3   OH261840   1.565   5.350  12.550 -0.0391  0.5695  0.3859
13450TIP3    H161841   1.491   5.372  12.606  0.7334  2.8287  0.5773
13450TIP3    H261842   1.641   5.358  12.607  0.4832 -0.1705 -0.2020
13451TIP3   OH261843   2.845   3.950   1.887 -0.3975  0.0090 -0.2365
13451TIP3    H161844   2.914   3.909   1.938 -1.3736  0.6692  1.6616
13451TIP3    H261845   2.783   3.880   1.868  0.7475 -0.5752 -1.9089
13452TIP3   OH261846   1.059   3.186   1.306  0.4619 -0.8452  0.1781
13452TIP3    H161847   1.102   3.257   1.353  0.4057  0.1389 -1.2388
13452TIP3    H261848   0.966   3.208   1.309  0.2561 -1.7981  1.2764
13453TIP3   OH261849   6.191   4.302  12.257  0.4389 -1.2079  0.1486
13453TIP3    H161850   6.227   4.216  12.275  0.8484 -1.4748 -1.7885
13453TIP3    H261851   6.128   4.288  12.186  0.7635  0.1128 -0.4321
13454TIP3   OH261852   5.136   6.255   6.452 -0.4278 -0.2493 -0.2472
13454TIP3    H161853   5.142   6.180   6.512  1.3020  1.1739  1.4079
13454TIP3    H261854   5.201   6.236   6.384 -1.5378 -1.2740 -1.0568
13455TIP3   OH261855   1.164   0.204   5.712  0.2393  0.1761  0.2331
13455TIP3    H161856   1.188   0.275   5.772  0.2748  0.7805 -0.4872
13455TIP3    H261857   1.076   0.227   5.682 -0.3211 -0.8301  1.0899
13456TIP3   OH261858   2.675   3.127  13.079  0.0281  0.1865  0.0557
13456TIP3    H161859   2.671   3.173  12.996 -2.4332  0.6762  0.4118
13456TIP3    H261860   2.722   3.186  13.137  0.2390  0.5931 -0.5284
13457TIP3   OH261861   4.202   2.241  16.126  0.5739  0.5792 -0.3093
13457TIP3    H161862   4.114   2.260  16.094  0.5148  3.7073  1.4908
13457TIP3    H261863   4.248   2.325  16.123  3.5916 -1.0225 -1.3847
13458TIP3   OH261864   0.338   3.464  14.364  0.4956 -0.4915 -0.0593
13458TIP3    H161865   0.353   3.398  14.432  1.3161 -0.7736 -0.5100
13458TIP3    H261866   0.339   3.548  14.410  0.5439 -0.7185  0.3505
13459TIP3   OH261867   4.947   1.779  14.744  0.6761 -0.6299 -0.0463
13459TIP3    H161868   4.885   1.765  14.816  0.2267 -1.0403 -0.5134
13459TIP3    H261869   4.894   1.772  14.665  0.5767  2.7410 -0.3570
13460TIP3   OH261870   4.059   1.189   0.972  0.7590  0.3278  0.0767
13460TIP3    H161871   4.104   1.112   0.937  0.5711 -0.4331  1.4758
13460TIP3    H261872   4.030   1.162   1.059 -1.2001  1.2561 -0.2637
13461TIP3   OH261873   0.219   0.119  16.320 -0.5612  0.3322 -0.8148
13461TIP3    H161874   0.204   0.139  16.227 -0.0666  1.7481 -0.6043
13461TIP3    H261875   0.170   0.187  16.367 -1.7448 -1.0589 -0.0100
13462TIP3   OH261876   2.120   0.230  15.148  0.1747  0.2298  0.5809
13462TIP3    H161877   2.183   0.302  15.142  0.2525  0.1786  0.7714
13462TIP3    H261878   2.158   0.170  15.212  0.0559  0.0728  0.5022
13463TIP3   OH261879   4.873   2.326   3.691  0.1943  0.3471  0.0045
13463TIP3    H161880   4.912   2.242   3.666  1.3953  0.4987  1.2839
13463TIP3    H261881   4.894   2.384   3.617 -0.8227 -0.5214 -0.9747
13464TIP3   OH261882   3.792   3.063  15.988  0.0790  0.5520 -0.0848
13464TIP3    H161883   3.884   3.061  16.015 -0.0422 -0.9202  0.2510
13464TIP3    H261884   3.772   3.156  15.979  1.1777  0.9410  1.2837
13465TIP3   OH261885   3.259   1.423   4.090  0.9091  0.3141 -0.6581
13465TIP3    H161886   3.298   1.510   4.104  1.8920  0.7385 -5.0960
13465TIP3    H261887   3.184   1.439   4.032 -0.2058 -1.5797  0.2093
13466TIP3   OH261888   4.068   3.097  10.455  0.1991 -0.1172  0.1480
13466TIP3    H161889   4.065   3.033  10.527 -0.2072  0.0235  0.2613
13466TIP3    H261890   4.134   3.160  10.481 -0.5475  0.4067  0.8103
13467TIP3   OH261891   1.702   5.046  16.522 -0.4989 -0.3712 -0.0739
13467TIP3    H161892   1.740   4.958  16.524 -0.9153 -0.5369  0.6827
13467TIP3    H261893   1.718   5.081  16.610 -1.9750 -0.3904  0.2110
13468TIP3   OH261894   3.115   4.601  14.918 -0.0088 -0.2626 -0.0277
13468TIP3    H161895   3.184   4.536  14.933  0.5201 -0.1628 -1.9365
13468TIP3    H261896   3.033   4.551  14.923  0.2992 -0.7188  0.4474
13469TIP3   OH261897   4.516   6.553  12.299 -0.6643  0.0310 -0.0196
13469TIP3    H161898   4.463   6.589  12.370  0.2242  0.8606  0.2220
13469TIP3    H261899   4.607   6.566  12.327 -0.3143 -1.1243 -0.5623
13470TIP3   OH261900   6.210   5.558  13.646 -0.8764 -0.5885  0.2446
13470TIP3    H161901   6.261   5.482  13.618  1.6293  1.2789 -0.5127
13470TIP3    H261902   6.215   5.618  13.571 -1.4906  0.9456  1.4156
13471TIP3   OH261903   5.716   4.841  13.213 -0.1599 -0.0271 -0.0428
13471TIP3    H161904   5.679   4.875  13.295  0.0909  1.3242 -0.4815
13471TIP3    H261905   5.808   4.825  13.233 -0.0581  0.4725 -0.1086
13472TIP3   OH261906   0.499   3.955  16.381 -0.0414 -0.3278 -0.4067
13472TIP3    H161907   0.515   3.893  16.309 -1.4742 -1.3661  0.1453
13472TIP3    H261908   0.416   3.996  16.358 -1.7178 -2.3882  1.8309
13473TIP3   OH261909   2.516   0.773  14.469  0.1609 -0.3932  0.1848
13473TIP3    H161910   2.424   0.791  14.449  0.0075  1.0756  2.0419
13473TIP3    H261911   2.519   0.678  14.482 -0.9631 -0.5305 -0.4783
13474TIP3   OH261912   4.457   6.576  12.823 -0.4082 -0.0882 -0.2456
13474TIP3    H161913   4.516   6.502  12.838 -0.4618  0.0422  0.6518
13474TIP3    H261914   4.396   6.573  12.897 -1.1238  0.1627 -0.8229
13475TIP3   OH261915   5.908   4.329  15.901  0.6567  0.3794  0.5074
13475TIP3    H161916   5.881   4.267  15.969  0.3492  1.4681  1.3954
13475TIP3    H261917   5.825   4.358  15.861  0.5897  2.2945  1.9610
13476TIP3   OH261918   2.108   3.101   1.530 -0.0501  0.0959 -0.5103
13476TIP3    H161919   2.026   3.138   1.498 -0.6593 -0.1333  0.7733
13476TIP3    H261920   2.133   3.157   1.604  0.5708 -0.2730 -0.4338
13477TIP3   OH261921   4.016   2.934   0.965  0.6022 -0.1494  0.3319
13477TIP3    H161922   4.093   2.973   0.924 -0.6380  2.1818  0.1285
13477TIP3    H261923   4.013   2.844   0.931  1.6066  0.6210 -1.8819
13478TIP3   OH261924   0.345   2.051  12.724  0.1870 -0.3642  0.2332
13478TIP3    H161925   0.435   2.054  12.689  0.2116  0.7076  0.3574
13478TIP3    H261926   0.304   1.979  12.676  0.7212 -0.0022 -0.8041
13479TIP3   OH261927   1.449   1.774  13.256 -0.3492 -0.5007  0.1371
13479TIP3    H161928   1.480   1.699  13.307 -0.1693 -0.6098 -0.1293
13479TIP3    H261929   1.416   1.835  13.321 -0.7960 -0.9480  0.3354
13480TIP3   OH261930   3.323   4.702   1.031 -0.0895  0.1764 -0.3660
13480TIP3    H161931   3.369   4.650   0.966 -0.5941 -0.7633  0.0223
13480TIP3    H261932   3.314   4.789   0.991 -1.3807 -0.6935 -2.0301
13481TIP3   OH261933   6.064   4.696  15.813  0.7689 -0.0305 -0.0746
13481TIP3    H161934   6.011   4.762  15.859  1.4450  0.5124 -0.0704
13481TIP3    H261935   6.024   4.691  15.726  0.5491  0.1919  0.0117
13482TIP3   OH261936   6.587   3.927  14.750  0.4603  0.7083 -0.2468
13482TIP3    H161937   6.617   3.983  14.822 -3.3786  0.5520  1.5718
13482TIP3    H261938   6.567   3.843  14.791 -1.9905  0.6806 -1.4227
13483TIP3   OH261939   1.386   6.368   2.202  0.0922  0.2800 -0.5744
13483TIP3    H161940   1.366   6.307   2.130 -4.0248  0.2866  0.4241
13483TIP3    H261941   1.355   6.322   2.280 -0.5825  2.5498  0.5180
13484TIP3   OH261942   4.511   5.825  17.019  0.3222  0.0828  0.0902
13484TIP3    H161943   4.571   5.838  16.946 -0.8429 -0.9465 -1.0834
13484TIP3    H261944   4.448   5.761  16.987  0.8329 -1.7685  2.6374
13485TIP3   OH261945   4.955   2.250  14.074  0.0096 -0.0139 -0.2972
13485TIP3    H161946   4.941   2.323  14.135 -0.1131 -0.8932  0.7347
13485TIP3    H261947   5.047   2.260  14.048  0.8314 -1.0793  1.9967
13486TIP3   OH261948   4.703   0.570   1.664  0.1018 -0.2966  0.0454
13486TIP3    H161949   4.685   0.606   1.751 -1.5886  2.1168 -1.2556
13486TIP3    H261950   4.791   0.603   1.643 -0.1631  0.4986  0.1651
13487TIP3   OH261951   1.289   2.460  15.558  0.3826  0.4816  0.3998
13487TIP3    H161952   1.199   2.471  15.590 -0.1925  0.2124 -1.0768
13487TIP3    H261953   1.302   2.365  15.556  1.5482  0.5373  2.8249
13488TIP3   OH261954   4.936   1.198   4.327 -0.6867 -0.3303 -0.6247
13488TIP3    H161955   4.850   1.201   4.369  0.1596 -0.1710  1.1581
13488TIP3    H261956   4.928   1.256   4.251 -1.4689  1.5843  0.8801
13489TIP3   OH261957   2.362   1.140   1.412 -0.0498 -0.3713  0.6561
13489TIP3    H161958   2.369   1.124   1.506 -1.4571  0.4593  0.9017
13489TIP3    H261959   2.278   1.103   1.387  0.0466 -0.0461 -0.1708
13490TIP3   OH261960   5.880   3.920   3.811 -0.2416 -0.1894  0.9567
13490TIP3    H161961   5.801   3.911   3.866  0.0073  0.4465  1.4201
13490TIP3    H261962   5.847   3.949   3.726 -0.4815  0.3184  1.2253
13491TIP3   OH261963   3.421   3.303   5.925 -0.6421 -0.3433  0.7878
13491TIP3    H161964   3.504   3.316   5.880 -0.2601 -0.9527  1.3187
13491TIP3    H261965   3.354   3.322   5.859 -0.0926 -2.4142 -0.3855
13492TIP3   OH261966   6.067   6.008  16.465 -0.2693 -0.2105  0.0457
13492TIP3    H161967   5.997   6.040  16.522 -1.4078 -1.0801 -0.8661
13492TIP3    H261968   6.047   6.044  16.379  0.6668 -0.0796 -0.1302
13493TIP3   OH261969   4.357   2.630  13.985 -0.1428 -0.0185  0.0522
13493TIP3    H161970   4.266   2.637  13.957 -0.4690 -2.4668  0.3485
13493TIP3    H261971   4.352   2.613  14.079  0.7086  1.8166  0.4471
13494TIP3   OH261972   6.718   4.965   6.005 -0.2524 -0.5387 -0.3185
13494TIP3    H161973   6.666   5.041   6.028 -1.4725 -0.5517 -2.8315
13494TIP3    H261974   6.655   4.893   6.000  0.4863 -1.1886 -0.4414
13495TIP3   OH261975   5.692   2.325   5.406 -0.4726  0.0696  0.7904
13495TIP3    H161976   5.711   2.368   5.490 -0.6521  0.4672  0.6250
13495TIP3    H261977   5.615   2.271   5.424 -0.1070 -0.3723  1.0616
13496TIP3   OH261978   6.283   2.812  17.225 -0.5344  0.3583 -0.2760
13496TIP3    H161979   6.221   2.786  17.157  0.1469  0.1104 -0.8087
13496TIP3    H261980   6.370   2.797  17.186 -0.1190 -1.5614  1.3260
13497TIP3   OH261981   6.778   6.635  15.553 -0.2074 -0.0332  0.3719
13497TIP3    H161982   6.835   6.592  15.616 -1.2613 -0.2125  1.2313
13497TIP3    H261983   6.712   6.680  15.607 -0.9922 -0.0047 -0.5853
13498TIP3   OH261984   2.831   1.864   1.853  0.1526 -0.3757 -0.6231
13498TIP3    H161985   2.787   1.779   1.847 -0.7429 -0.0140  0.5847
13498TIP3    H261986   2.884   1.857   1.932 -1.2143  0.7628  0.4150
13499TIP3   OH261987   4.286   0.711   3.338 -0.9935  0.0535 -0.0817
13499TIP3    H161988   4.232   0.751   3.407 -1.9125 -1.3304  0.0166
13499TIP3    H261989   4.260   0.619   3.338  1.0853 -0.5411 -0.3424
13500TIP3   OH261990   1.515   3.804   2.542  0.6258  0.5215 -0.2345
13500TIP3    H161991   1.453   3.875   2.528  1.3510  0.9750 -1.2471
13500TIP3    H261992   1.589   3.826   2.485  1.8728  0.1877  1.2174
13501TIP3   OH261993   6.342   0.004   4.725 -0.0641  0.1695 -0.4820
13501TIP3    H161994   6.402  -0.054   4.677 -0.9107  1.0370 -2.6514
13501TIP3    H261995   6.364   0.092   4.693 -0.4709  0.8055  0.9579
13502TIP3   OH261996   3.529   6.187  12.376  0.2749 -0.1492 -0.0789
13502TIP3    H161997   3.600   6.123  12.382 -0.6245 -1.2848 -1.2881
13502TIP3    H261998   3.450   6.136  12.394 -0.3836  0.7775 -0.3121
13503TIP3   OH261999   3.963   6.501   6.779  0.4482  0.2792  0.2426
13503TIP3    H162000   4.015   6.482   6.701 -0.1539  1.2605 -0.4046
13503TIP3    H262001   3.887   6.444   6.771 -0.1130  1.0996 -0.4174
13504TIP3   OH262002   6.014   5.463  15.791 -0.6027 -0.3547 -0.0210
13504TIP3    H162003   6.011   5.555  15.814  1.3323 -0.6427  1.5967
13504TIP3    H262004   6.038   5.462  15.698 -3.6634  0.7704 -0.8832
13505TIP3   OH262005   1.507   5.044   0.880  0.6004 -0.4585 -0.3130
13505TIP3    H162006   1.416   5.025   0.857  0.3214 -1.7981  1.8284
13505TIP3    H262007   1.501   5.102   0.956  1.5545  1.5634 -1.7021
13506TIP3   OH262008   1.039   4.961   5.191  0.1425  0.7763  0.2162
13506TIP3    H162009   0.955   5.007   5.200  0.2329  0.6550  1.7631
13506TIP3    H262010   1.038   4.895   5.259  1.6961  1.0650  0.5421
13507TIP3   OH262011   4.498   1.273   0.681  0.5666  1.0623 -0.1960
13507TIP3    H162012   4.421   1.283   0.624  0.7232 -1.1953 -0.8293
13507TIP3    H262013   4.469   1.214   0.750  1.9435 -0.3761 -0.8335
13508TIP3   OH262014   0.158   2.575  14.369 -1.4271  0.7231  0.4371
13508TIP3    H162015   0.231   2.637  14.370  1.8318 -2.8374 -1.7042
13508TIP3    H262016   0.112   2.594  14.287 -0.0524 -0.0309 -0.5378
13509TIP3   OH262017   4.147   5.804   0.820  0.1194 -0.3261  0.6743
13509TIP3    H162018   4.093   5.838   0.891 -2.3082  0.4511 -1.4709
13509TIP3    H262019   4.200   5.878   0.792  0.0473 -0.2559  0.7265
13510TIP3   OH262020   3.768   5.416   2.616 -0.3298  0.6034 -0.8581
13510TIP3    H162021   3.682   5.457   2.618 -0.0215  1.2152  2.0441
13510TIP3    H262022   3.825   5.482   2.575 -1.0302  0.5310 -1.9902
13511TIP3   OH262023   4.495   4.563   3.347 -0.7155 -0.1935 -0.1999
13511TIP3    H162024   4.430   4.515   3.398 -0.3698 -0.0399  0.3883
13511TIP3    H262025   4.457   4.649   3.335 -0.7413 -0.1896 -0.0897
13512TIP3   OH262026   1.599   3.003  12.855 -0.4186 -0.0228 -0.0067
13512TIP3    H162027   1.535   3.064  12.891 -1.7407 -0.2420 -1.9002
13512TIP3    H262028   1.684   3.044  12.873 -1.2047  1.4157  0.4896
13513TIP3   OH262029   6.341   3.093  15.020  0.2578 -0.3006  0.5824
13513TIP3    H162030   6.426   3.132  15.038  0.7898 -1.9948  1.7273
13513TIP3    H262031   6.279   3.166  15.028  1.4087  0.6008  1.2956
13514TIP3   OH262032   5.828   6.648   1.268  0.0100  0.1325  0.3185
13514TIP3    H162033   5.862   6.589   1.335 -0.8324  0.6189  1.1822
13514TIP3    H262034   5.854   6.608   1.185  2.8924  0.6144  0.9280
13515TIP3   OH262035   1.487   2.530  12.537 -0.8131 -0.6814 -0.6323
13515TIP3    H162036   1.575   2.511  12.506  0.3923  1.2270  1.5022
13515TIP3    H262037   1.465   2.457  12.595  0.8017  0.5193  1.5874
13516TIP3   OH262038   0.574   0.047   0.361 -0.2053 -0.4181  0.4056
13516TIP3    H162039   0.585   0.115   0.295 -0.1867 -0.5484  0.2747
13516TIP3    H262040   0.492   0.005   0.338 -0.8383  0.3577  1.2054
13517TIP3   OH262041   2.747   4.654   5.201 -0.1339  0.1556  0.0877
13517TIP3    H162042   2.720   4.739   5.236  1.9872  0.5232  0.9019
13517TIP3    H262043   2.740   4.595   5.276 -1.7898 -0.4439 -0.5275
13518TIP3   OH262044   4.629   2.120   6.101  0.8399  0.1036 -0.7138
13518TIP3    H162045   4.556   2.182   6.109  2.1850  1.7412 -0.9597
13518TIP3    H262046   4.587   2.037   6.080 -1.0214  0.8574 -0.0826
13519TIP3   OH262047   1.504   1.169  15.583 -0.3388  0.3655 -0.2356
13519TIP3    H162048   1.490   1.252  15.538 -0.8492  0.0693 -0.6396
13519TIP3    H262049   1.588   1.178  15.627  0.3376  0.5355 -1.5498
13520TIP3   OH262050   6.188   0.061   2.943  0.4293 -0.1076 -0.2059
13520TIP3    H162051   6.213  -0.020   2.988  1.6887 -0.4378 -1.4624
13520TIP3    H262052   6.249   0.067   2.868 -0.3957  1.3982 -0.7803
13521TIP3   OH262053   4.118   2.736   0.475 -0.2041 -0.8468 -0.2433
13521TIP3    H162054   4.052   2.797   0.439  1.4089  0.7785 -0.5201
13521TIP3    H262055   4.197   2.789   0.484  1.5479 -3.1493 -1.4136
13522TIP3   OH262056   6.303   0.428  14.095  0.3822 -0.2161 -0.2680
13522TIP3    H162057   6.277   0.466  14.011  0.1747 -1.8933 -0.9872
13522TIP3    H262058   6.397   0.413  14.087  0.0992 -1.7288 -0.7510
13523TIP3   OH262059   0.071   2.106  14.328 -0.9634  0.0753 -0.2761
13523TIP3    H162060   0.036   2.050  14.397  0.6335  0.4963  0.9147
13523TIP3    H262061   0.163   2.120  14.353 -0.7927  1.5273 -1.6401
13524TIP3   OH262062   0.103   3.822   0.812  0.0408 -0.3170 -0.0055
13524TIP3    H162063   0.008   3.814   0.808  0.2400 -2.0974 -2.1983
13524TIP3    H262064   0.121   3.911   0.781 -0.7614 -1.1848 -3.1369
13525TIP3   OH262065   1.300   6.184  12.187  0.3871 -0.3179  0.6621
13525TIP3    H162066   1.208   6.204  12.204 -0.0051  0.1215 -1.7280
13525TIP3    H262067   1.302   6.089  12.173 -0.0553 -0.1079 -1.0292
13526TIP3   OH262068   4.692   2.884  15.054  0.1645 -0.1797  0.1746
13526TIP3    H162069   4.711   2.956  15.114 -0.1104 -0.1093  0.1775
13526TIP3    H262070   4.652   2.926  14.978 -0.5489 -0.3945  0.4317
13527TIP3   OH262071   4.652   5.208   2.901 -0.2007  0.3374 -0.0770
13527TIP3    H162072   4.713   5.140   2.873  1.0021  1.0186  0.8466
13527TIP3    H262073   4.565   5.170   2.885  0.3513 -2.9282  3.7570
13528TIP3   OH262074   0.223   6.234   2.776  0.4148  0.3605 -0.1860
13528TIP3    H162075   0.143   6.213   2.728 -0.2460  1.2920  0.4873
13528TIP3    H262076   0.252   6.318   2.739 -0.1777  1.1538  1.1208
13529TIP3   OH262077   6.186   0.111  11.365  0.5434  0.6525  0.3563
13529TIP3    H162078   6.230   0.051  11.426  0.7469 -0.2009 -0.6030
13529TIP3    H262079   6.234   0.100  11.283 -0.7095  0.6107 -0.3768
13530TIP3   OH262080   3.590   0.344   4.123  0.1387  0.4292  0.0383
13530TIP3    H162081   3.605   0.303   4.039  0.6084 -0.0162  0.3397
13530TIP3    H262082   3.585   0.272   4.185  1.4407  0.8444  0.6411
13531TIP3   OH262083   3.506   0.537   5.550  0.3596  0.7931 -0.1028
13531TIP3    H162084   3.583   0.504   5.595  1.3667  2.4224 -0.5631
13531TIP3    H262085   3.448   0.568   5.619 -0.6650 -1.9636  0.3407
13532TIP3   OH262086   4.813   1.424  14.669  0.0267  0.1693  0.1523
13532TIP3    H162087   4.889   1.444  14.723  1.3771 -0.0550 -1.6363
13532TIP3    H262088   4.814   1.329  14.658  0.3412  0.3120 -1.1029
13533TIP3   OH262089   2.187   5.255  10.890  0.2854  0.2804  0.0625
13533TIP3    H162090   2.187   5.159  10.886 -0.8894  0.2994 -0.4245
13533TIP3    H262091   2.187   5.282  10.798  0.5152  0.7474  0.2021
13534TIP3   OH262092   4.330   0.492  11.470 -0.3973 -0.3967 -0.5154
13534TIP3    H162093   4.252   0.525  11.425  0.1897 -0.4428 -1.5992
13534TIP3    H262094   4.398   0.556  11.448  0.1591 -1.0142 -0.6008
13535TIP3   OH262095   6.290   2.255   5.440 -0.0421  0.2557 -0.4011
13535TIP3    H162096   6.347   2.325   5.473  1.2926 -0.9139 -0.1938
13535TIP3    H262097   6.243   2.295   5.367 -1.2853  2.1691  1.3922
13536TIP3   OH262098   5.391   4.355  15.711  0.3574 -0.1366  0.0410
13536TIP3    H162099   5.453   4.285  15.690 -0.3811 -0.3304 -1.5365
13536TIP3    H262100   5.322   4.313  15.760  0.1370 -0.4353 -0.5232
13537TIP3   OH262101   6.175   0.937  15.806  0.0079  0.0271 -0.2227
13537TIP3    H162102   6.121   1.010  15.837  0.0734 -1.1694  2.8156
13537TIP3    H262103   6.117   0.861  15.811  0.9816 -0.7115 -0.0995
13538TIP3   OH262104   0.671   2.118   4.580 -0.1927 -0.1286  0.8099
13538TIP3    H162105   0.682   2.101   4.673 -2.0424  0.3494  1.1501
13538TIP3    H262106   0.759   2.136   4.548  0.5831 -1.2573  2.2640
13539TIP3   OH262107   0.048   2.510   5.135  0.2250  0.0222 -0.2284
13539TIP3    H162108   0.021   2.585   5.189  3.7670  2.0594 -1.0599
13539TIP3    H262109   0.096   2.453   5.195 -0.4224 -0.3919 -0.1027
13540TIP3   OH262110   5.897   2.845  17.213 -0.7558 -0.3435 -0.0616
13540TIP3    H162111   5.922   2.765  17.168 -0.8814  0.8539 -2.3220
13540TIP3    H262112   5.943   2.841  17.297  1.3729 -1.5100 -1.2585
13541TIP3   OH262113   2.662   1.961  16.261  0.3225  0.1155 -0.3238
13541TIP3    H162114   2.673   1.975  16.167 -1.0868 -0.7692 -0.6259
13541TIP3    H262115   2.615   2.038  16.291 -0.2194 -0.1341 -0.5393
13542TIP3   OH262116   2.371   0.401   5.163 -0.2219  0.5489  0.8385
13542TIP3    H162117   2.410   0.315   5.178  0.5446  0.9663  1.3008
13542TIP3    H262118   2.402   0.425   5.075 -2.1207 -0.5244 -0.1558
13543TIP3   OH262119   5.790   1.105   0.558 -0.0619  0.5308 -0.3983
13543TIP3    H162120   5.738   1.180   0.588 -0.3296  0.3376 -0.3765
13543TIP3    H262121   5.871   1.143   0.525  0.1073  0.7731  0.2917
13544TIP3   OH262122   0.049   3.517  14.560  0.0919  0.1322  0.3154
13544TIP3    H162123   0.047   3.495  14.467  1.2758 -1.3530  0.6238
13544TIP3    H262124   0.128   3.571  14.570 -1.0760  1.9305  0.1364
13545TIP3   OH262125   0.820   5.308  13.822  0.3954 -0.2398  0.1892
13545TIP3    H162126   0.774   5.391  13.830 -0.4247 -0.6062 -0.5679
13545TIP3    H262127   0.759   5.252  13.774 -0.2471 -2.2117  3.1795
13546TIP3   OH262128   2.855   6.489  16.643  1.0422 -0.5348  0.6082
13546TIP3    H162129   2.922   6.435  16.600  0.8136 -0.3627  0.0420
13546TIP3    H262130   2.813   6.538  16.572  0.9355  0.0474  1.0672
13547TIP3   OH262131   4.089   5.614   6.032 -0.0323 -0.4589  0.0755
13547TIP3    H162132   4.077   5.533   5.983 -2.4884  0.8530 -1.5509
13547TIP3    H262133   4.023   5.610   6.101 -0.2015  0.2102 -0.0517
13548TIP3   OH262134   4.121   6.532   2.118  0.5570  0.4161 -0.0415
13548TIP3    H162135   4.213   6.509   2.104  1.2403  2.3564  1.1509
13548TIP3    H262136   4.101   6.595   2.049  0.6568  1.3890  0.8128
13549TIP3   OH262137   4.042   4.818  15.983 -0.0826 -0.0902 -0.2321
13549TIP3    H162138   3.956   4.785  16.012 -2.2484  0.5100 -5.3817
13549TIP3    H262139   4.099   4.742  15.986 -1.9278 -1.5388 -0.7116
13550TIP3   OH262140   6.641   5.877   4.263  0.5041 -0.5606  0.3537
13550TIP3    H162141   6.680   5.831   4.336  0.6197 -0.0026  0.6472
13550TIP3    H262142   6.715   5.912   4.214  0.4465 -1.4312 -0.3614
13551TIP3   OH262143   3.563   6.355   1.070 -0.1420  0.3247  0.2696
13551TIP3    H162144   3.496   6.408   1.028 -1.0632 -1.4897 -0.5876
13551TIP3    H262145   3.613   6.417   1.123 -2.2235  1.7797  0.5966
13552TIP3   OH262146   3.903   2.703  12.413 -0.0008  0.3886 -0.9582
13552TIP3    H162147   3.996   2.722  12.424 -0.0548  0.6327 -0.9057
13552TIP3    H262148   3.868   2.781  12.369  0.0917 -0.2960 -2.2583
13553TIP3   OH262149   3.346   5.202   4.365  0.1978  0.4616 -0.6844
13553TIP3    H162150   3.345   5.282   4.312 -0.5876  1.3827  0.6575
13553TIP3    H262151   3.438   5.189   4.387  0.5854 -0.2222 -2.6824
13554TIP3   OH262152   3.989   5.847   1.333 -0.1403 -0.4141 -0.1330
13554TIP3    H162153   4.062   5.892   1.375 -1.2517  1.9577 -0.6376
13554TIP3    H262154   3.929   5.828   1.406  0.0136 -0.4228 -0.0078
13555TIP3   OH262155   4.381   1.303   5.887 -0.4819  0.4246  0.2253
13555TIP3    H162156   4.417   1.272   5.970 -0.1316  1.7186  0.5770
13555TIP3    H262157   4.391   1.230   5.827  0.2639 -0.1451  1.0378
13556TIP3   OH262158   1.619   2.950  14.106  0.5733 -0.0090 -0.7318
13556TIP3    H162159   1.674   2.905  14.041  3.0515  1.5151  0.2449
13556TIP3    H262160   1.577   2.879  14.154  0.1865 -1.1865 -2.7294
13557TIP3   OH262161   1.209   1.485  16.831 -0.3718 -0.2793 -0.0462
13557TIP3    H162162   1.288   1.507  16.879 -1.9028  0.6491  2.1234
13557TIP3    H262163   1.231   1.502  16.739  2.8148 -2.7099  0.1572
13558TIP3   OH262164   0.312   1.296   4.631  0.2592  0.4204  0.1957
13558TIP3    H162165   0.217   1.287   4.632  0.3159 -0.1183  1.2428
13558TIP3    H262166   0.339   1.274   4.720  1.5375 -1.3931 -0.6154
13559TIP3   OH262167   0.766   3.991   2.101  0.6725 -0.0303  0.6649
13559TIP3    H162168   0.696   4.041   2.144  0.5487 -0.3331  0.8195
13559TIP3    H262169   0.828   4.057   2.071  0.2360  0.2516  0.3775
13560TIP3   OH262170   5.672   2.000  14.382  0.0212 -0.4229 -0.2606
13560TIP3    H162171   5.643   2.070  14.324  1.2127  1.1262  0.9679
13560TIP3    H262172   5.762   1.981  14.354 -0.4724 -1.8419 -0.9262
13561TIP3   OH262173   6.227   4.964   6.244  0.3155  0.1815 -0.4360
13561TIP3    H162174   6.312   4.955   6.202  0.1596  0.2692 -0.7709
13561TIP3    H262175   6.166   4.984   6.173 -0.0388 -0.1953 -0.2418
13562TIP3   OH262176   6.426   1.073  15.794 -0.1727 -0.2885 -0.3617
13562TIP3    H162177   6.446   1.105  15.707 -1.6572 -0.4553 -0.7786
13562TIP3    H262178   6.374   0.994  15.779 -0.9132 -0.0076  0.6668
13563TIP3   OH262179   0.798   1.513  12.665 -0.5461 -0.2730  0.0607
13563TIP3    H162180   0.788   1.598  12.622  0.1171 -0.4465 -0.4330
13563TIP3    H262181   0.790   1.449  12.594 -0.3149 -0.5973  0.3266
13564TIP3   OH262182   1.088   6.439  15.000 -0.0358  0.2459  0.5799
13564TIP3    H162183   1.086   6.391  15.082  0.5479  0.7816  0.9193
13564TIP3    H262184   1.180   6.466  14.991  0.0763 -0.5066 -0.6512
13565TIP3   OH262185   5.658   5.085  12.164  0.5328  0.5603 -0.2211
13565TIP3    H162186   5.641   5.137  12.086  1.3607 -1.7198 -1.9487
13565TIP3    H262187   5.746   5.111  12.192  1.6533 -1.1070 -2.0841
13566TIP3   OH262188   1.131   1.283  13.789  0.2552 -0.4283  0.5050
13566TIP3    H162189   1.084   1.319  13.864  0.7845  1.4825 -0.0417
13566TIP3    H262190   1.063   1.263  13.725  0.1082  1.9895 -0.1464
13567TIP3   OH262191   1.580   2.364   4.094  0.2274 -0.2063  0.7358
13567TIP3    H162192   1.625   2.284   4.121  1.1769 -0.3896 -1.2904
13567TIP3    H262193   1.630   2.395   4.018 -0.6996  1.7919  0.9197
13568TIP3   OH262194   3.085   6.418   2.500 -0.1510 -0.2483 -0.9589
13568TIP3    H162195   3.028   6.493   2.520  0.5078 -0.0060  0.0777
13568TIP3    H262196   3.164   6.458   2.463  0.6130 -0.3376  0.5357
13569TIP3   OH262197   5.191   1.829   4.684  1.0358  0.0745 -0.5294
13569TIP3    H162198   5.260   1.789   4.737  0.1004 -0.5235  0.2507
13569TIP3    H262199   5.123   1.853   4.747  1.1319  1.9592 -1.1135
13570TIP3   OH262200   2.505   4.392  13.839  0.0265 -0.0935  0.1038
13570TIP3    H162201   2.593   4.360  13.857  0.3598  1.4809  1.3725
13570TIP3    H262202   2.451   4.353  13.908 -0.0473 -0.0377  0.0780
13571TIP3   OH262203   1.807   3.824   3.867  0.0237  0.1524 -0.2217
13571TIP3    H162204   1.823   3.818   3.773 -0.1854  1.0864 -0.3203
13571TIP3    H262205   1.894   3.835   3.905  0.0055  0.9395 -0.4034
13572TIP3   OH262206   3.091   2.508  10.875 -0.0587  0.1897  0.0959
13572TIP3    H162207   3.059   2.585  10.922 -1.0443  0.7743 -1.5083
13572TIP3    H262208   3.027   2.439  10.895  0.6948 -0.1714  1.3373
13573TIP3   OH262209   4.772   4.972  15.168  0.0647  0.8390 -0.2746
13573TIP3    H162210   4.680   4.969  15.194  0.1862 -0.5437  0.0333
13573TIP3    H262211   4.805   5.054  15.205 -0.4882  0.2630  1.5181
13574TIP3   OH262212   3.278   2.440  11.939  0.6211  1.0585 -0.5126
13574TIP3    H162213   3.370   2.417  11.923  0.4170  1.0335 -1.6826
13574TIP3    H262214   3.243   2.460  11.852 -0.5908  0.6742 -0.1198
13575TIP3   OH262215   2.181   0.131   1.149 -0.2449  0.2742  0.5642
13575TIP3    H162216   2.106   0.169   1.195  0.1189  1.2262  0.3794
13575TIP3    H262217   2.156   0.135   1.056 -0.3061 -0.1598  0.5621
13576TIP3   OH262218   2.213   2.414   0.343  0.1653  0.6606  0.2943
13576TIP3    H162219   2.239   2.495   0.388  0.4165  0.7472  0.0030
13576TIP3    H262220   2.237   2.430   0.251  1.3379 -0.2065  0.4434
13577TIP3   OH262221   4.831   1.166  14.674  0.8394  0.3618 -0.4663
13577TIP3    H162222   4.899   1.153  14.740  1.2054  0.4681 -0.8218
13577TIP3    H262223   4.809   1.077  14.644  0.5667  0.3054 -0.0913
13578TIP3   OH262224   3.880   5.682   3.001 -0.2958  0.0673 -0.3923
13578TIP3    H162225   3.913   5.602   3.041 -0.8804  0.2376  0.4266
13578TIP3    H262226   3.940   5.751   3.031  0.7645 -0.1948 -1.8431
13579TIP3   OH262227   5.604   4.546  16.062  0.4537 -0.0333  0.2719
13579TIP3    H162228   5.568   4.471  16.014  1.6928 -1.0050  0.8192
13579TIP3    H262229   5.556   4.547  16.145  0.0782  0.0907  0.0528
13580TIP3   OH262230   0.970   5.030  11.624 -0.3458 -0.1136 -0.0206
13580TIP3    H162231   1.053   4.996  11.658 -1.4016 -1.1798  1.5940
13580TIP3    H262232   0.940   4.963  11.563 -1.1303 -0.8677  1.1612
13581TIP3   OH262233   3.319   2.739   3.544  0.5405 -0.4754 -0.0925
13581TIP3    H162234   3.291   2.825   3.514 -1.6914 -0.3970  2.1103
13581TIP3    H262235   3.254   2.679   3.510  2.1852 -1.3523 -1.7690
13582TIP3   OH262236   2.565   4.948   2.091 -0.3780  0.0888  0.0017
13582TIP3    H162237   2.520   4.884   2.145 -0.2577  0.9751  1.1586
13582TIP3    H262238   2.658   4.928   2.101 -0.3146  0.7268  0.7354
13583TIP3   OH262239   4.120   5.356  14.356 -0.2755  0.5579 -0.3490
13583TIP3    H162240   4.053   5.383  14.420 -0.1800  0.0843 -0.0446
13583TIP3    H262241   4.086   5.274  14.319 -0.8509  1.3861 -1.6990
13584TIP3   OH262242   0.695   2.989   4.470  0.0291  0.0101  0.2428
13584TIP3    H162243   0.748   3.067   4.453 -1.5954  1.3464  1.1315
13584TIP3    H262244   0.645   2.976   4.389  3.7099 -2.9648 -1.6961
13585TIP3   OH262245   0.599   4.880   4.521  0.0766 -0.2772 -0.4321
13585TIP3    H162246   0.538   4.903   4.451  0.7253  0.0021 -0.9048
13585TIP3    H262247   0.663   4.951   4.522  0.3366 -0.5110  0.1431
13586TIP3   OH262248   1.225   2.084  12.651  0.4711  0.1702 -0.1471
13586TIP3    H162249   1.255   2.022  12.585 -0.9373  0.1912 -0.8222
13586TIP3    H262250   1.274   2.061  12.730  1.3834 -0.5368 -0.9142
13587TIP3   OH262251   6.746   3.286   0.004  0.3998 -0.1811  0.1843
13587TIP3    H162252   6.712   3.327   0.084 -0.3547 -1.8924  0.7716
13587TIP3    H262253   6.762   3.195   0.029  3.0350 -0.0266 -0.7993
13588TIP3   OH262254   3.110   0.800   2.792 -0.3956 -0.2188  0.5390
13588TIP3    H162255   3.114   0.722   2.737  0.4893 -1.3318  2.1533
13588TIP3    H262256   3.164   0.779   2.868  0.8535  2.4105  0.4445
13589TIP3   OH262257   1.004   5.877   1.857 -0.2367 -0.3501 -0.0590
13589TIP3    H162258   0.997   5.826   1.776 -0.3578 -0.1145 -0.1967
13589TIP3    H262259   0.930   5.937   1.855  0.6633  0.7620 -0.5584
13590TIP3   OH262260   1.270   0.353   2.423 -0.1927  0.2086 -0.1843
13590TIP3    H162261   1.292   0.299   2.348 -3.2058 -1.5654  0.1308
13590TIP3    H262262   1.355   0.370   2.466  1.0914 -2.2354 -1.6376
13591TIP3   OH262263   6.682   6.425   0.190 -0.4589  0.4419 -0.4811
13591TIP3    H162264   6.695   6.516   0.164 -0.9104  0.5937 -0.1814
13591TIP3    H262265   6.671   6.429   0.285 -0.6096  0.0925 -0.4839
13592TIP3   OH262266   4.860   4.711  12.601 -0.4273  0.4068 -0.0712
13592TIP3    H162267   4.776   4.737  12.640  0.2560  0.8277  1.1208
13592TIP3    H262268   4.885   4.786  12.547 -0.3578  0.6676  0.3208
13593TIP3   OH262269   0.646   0.761  16.262  0.3756  0.6718 -0.1611
13593TIP3    H162270   0.658   0.699  16.334  2.9026  0.8697 -0.3579
13593TIP3    H262271   0.660   0.709  16.183 -0.1972  0.9291 -0.4339
13594TIP3   OH262272   2.775   1.105  10.872 -0.3736 -0.0995 -0.1942
13594TIP3    H162273   2.794   1.099  10.966  1.2996  0.3419 -0.4887
13594TIP3    H262274   2.779   1.015  10.841 -1.9691 -0.3691  0.3393
13595TIP3   OH262275   2.671   0.133   0.425  0.0656  0.3486  0.1395
13595TIP3    H162276   2.724   0.178   0.491 -0.4232  2.1152 -0.6277
13595TIP3    H262277   2.587   0.180   0.425  0.2434  0.7425 -2.0947
13596TIP3   OH262278   3.415   5.091   3.589 -0.2338  0.3425 -0.1777
13596TIP3    H162279   3.409   5.006   3.545  1.1191  0.6167 -0.8907
13596TIP3    H262280   3.468   5.145   3.531 -2.5743  2.2677 -0.6051
13597TIP3   OH262281   1.264   5.804   4.210 -0.5042 -0.0960 -0.4481
13597TIP3    H162282   1.308   5.807   4.125  2.9479 -0.0607  1.2339
13597TIP3    H262283   1.270   5.893   4.243 -3.0291  0.1923 -0.7090
13598TIP3   OH262284   2.014   1.342  13.132  0.3598 -0.0665  0.0556
13598TIP3    H162285   2.042   1.429  13.160 -0.6036  0.2100  0.1503
13598TIP3    H262286   2.083   1.314  13.071  0.2779  1.0734 -0.5682
13599TIP3   OH262287   5.319   2.034  16.718  0.2100  0.1930 -0.1133
13599TIP3    H162288   5.247   2.030  16.780 -0.2494 -0.0661 -0.6634
13599TIP3    H262289   5.296   1.972  16.649  1.5296 -0.7865  0.3004
13600TIP3   OH262290   6.676   3.902  15.730 -0.0829 -0.3966 -0.0993
13600TIP3    H162291   6.626   3.983  15.731  1.0045  0.3169 -1.4985
13600TIP3    H262292   6.706   3.891  15.820  2.3803  2.4632 -0.4939
13601TIP3   OH262293   0.311   0.026   1.633  0.0346 -0.0120  0.5675
13601TIP3    H162294   0.224  -0.014   1.640  0.5376 -1.1255  0.6341
13601TIP3    H262295   0.350  -0.014   1.555  0.0404  1.3761 -0.1466
13602TIP3   OH262296   2.303   6.120  12.140 -0.3249  0.3540  0.2067
13602TIP3    H162297   2.249   6.132  12.218  1.0925  0.5202  1.1804
13602TIP3    H262298   2.385   6.164  12.161 -0.5685  1.9786 -2.0911
13603TIP3   OH262299   4.871   5.917   5.001 -0.5253  0.1939 -0.1141
13603TIP3    H162300   4.814   5.959   5.066 -0.8350 -1.4355  0.7033
13603TIP3    H262301   4.933   5.985   4.975 -1.8110  1.5129  0.2286
13604TIP3   OH262302   6.498   5.069   1.368  0.2866  0.1712  0.4221
13604TIP3    H162303   6.546   5.121   1.433  0.0033  1.6578 -0.5268
13604TIP3    H262304   6.406   5.081   1.391  0.2568 -0.7123  0.7824
13605TIP3   OH262305   6.592   6.709  15.835  0.5626 -0.3845  0.5643
13605TIP3    H162306   6.516   6.702  15.778  0.8056 -0.7461  0.2861
13605TIP3    H262307   6.656   6.760  15.785  0.3854  0.2044  0.9257
13606TIP3   OH262308   2.351   1.640  14.055  0.5633 -0.0557  0.0113
13606TIP3    H162309   2.417   1.581  14.090 -2.1240 -3.1422  0.0882
13606TIP3    H262310   2.318   1.689  14.130 -0.8145 -2.2190  0.8577
13607TIP3   OH262311   1.252   2.939   4.680  0.1869 -0.2903 -0.1788
13607TIP3    H162312   1.336   2.972   4.647  0.5939  0.2665  1.3610
13607TIP3    H262313   1.276   2.878   4.749 -0.6715  1.3011  1.5879
13608TIP3   OH262314   1.641   6.721   5.873  0.2483  0.2195 -0.0124
13608TIP3    H162315   1.647   6.651   5.809 -0.2781 -1.7770  2.0460
13608TIP3    H262316   1.549   6.721   5.900  0.2364  1.7372 -0.0010
13609TIP3   OH262317   6.164   2.202   1.374 -0.1150  0.3104 -0.0182
13609TIP3    H162318   6.100   2.231   1.310 -0.0702 -0.3806 -0.3768
13609TIP3    H262319   6.113   2.182   1.452 -0.1800  1.0653  0.1335
13610TIP3   OH262320   1.447   1.738   1.550  0.3514  0.5754  0.2633
13610TIP3    H162321   1.400   1.777   1.476 -1.2571 -0.1005  0.9064
13610TIP3    H262322   1.491   1.662   1.513  2.9603  2.5477 -0.8570
13611TIP3   OH262323   2.625   6.110  10.614  0.1770 -0.0262  0.2912
13611TIP3    H162324   2.616   6.186  10.555 -1.9667 -0.9621 -0.6509
13611TIP3    H262325   2.669   6.145  10.691  1.8482  1.5290 -1.3115
13612TIP3   OH262326   3.477   2.464  15.852 -0.1493  0.0805 -0.1864
13612TIP3    H162327   3.424   2.440  15.775  2.0141 -1.3478 -1.2780
13612TIP3    H262328   3.547   2.399  15.854  0.3972  0.6933  2.4577
13613TIP3   OH262329   4.744   4.358   5.747  0.5216  0.2086 -0.3818
13613TIP3    H162330   4.783   4.392   5.667  0.2262 -2.0833 -1.5696
13613TIP3    H262331   4.653   4.386   5.743  0.6334  0.5443 -0.5901
13614TIP3   OH262332   4.518   4.454  13.377 -0.3246  0.1903  0.2777
13614TIP3    H162333   4.468   4.373  13.368 -0.2905  0.4232 -2.4289
13614TIP3    H262334   4.457   4.516  13.416 -1.9866  0.2748 -2.3146
13615TIP3   OH262335   0.613   2.654   1.941  0.1697  0.5030 -0.0855
13615TIP3    H162336   0.557   2.660   2.019  0.4375 -0.1654  0.1658
13615TIP3    H262337   0.557   2.616   1.874 -0.2585  1.7145 -0.4178
13616TIP3   OH262338   0.426   0.085   0.862 -0.0952 -0.1882  0.3189
13616TIP3    H162339   0.463   0.066   0.948 -0.0619  0.0248  0.3523
13616TIP3    H262340   0.395   0.176   0.869  2.5604  0.8673 -0.8029
13617TIP3   OH262341   3.848   2.045   4.570 -0.0409  0.3217  0.2749
13617TIP3    H162342   3.760   2.053   4.606 -0.3765  0.7101 -0.6051
13617TIP3    H262343   3.902   2.016   4.643 -0.8485  0.3559  0.8874
13618TIP3   OH262344   4.545   2.152  15.774  0.0401  0.0888  0.0335
13618TIP3    H162345   4.579   2.170  15.687  1.4023  1.8913  0.8927
13618TIP3    H262346   4.484   2.224  15.792 -2.1634 -1.6149 -0.3799
13619TIP3   OH262347   2.890   1.008  16.606  0.3794  0.0439 -0.2464
13619TIP3    H162348   2.876   1.060  16.527  1.9569 -1.3864 -1.5045
13619TIP3    H262349   2.925   0.925  16.574  2.3157 -0.0626  2.0345
13620TIP3   OH262350   5.951   0.277  10.946 -0.3629 -0.1387 -0.0263
13620TIP3    H162351   5.955   0.291  10.851  0.2716 -0.9133 -0.1181
13620TIP3    H262352   5.866   0.234  10.960 -0.6360  0.3396 -0.1901
13621TIP3   OH262353   3.210   0.199   6.357 -0.0327 -0.3888  0.4943
13621TIP3    H162354   3.284   0.167   6.306  0.4278  1.3855 -0.0172
13621TIP3    H262355   3.136   0.199   6.296  0.2722  0.7273  0.1092
13622TIP3   OH262356   0.280   3.995  14.356 -0.3964  0.1095  0.5059
13622TIP3    H162357   0.226   3.945  14.295 -0.3246  0.6710 -0.0205
13622TIP3    H262358   0.309   4.071  14.306  0.2451  0.2122  1.0207
13623TIP3   OH262359   6.430   6.044   6.615  0.5324 -0.6295 -0.2463
13623TIP3    H162360   6.439   5.949   6.604  0.9252 -0.3936 -2.2258
13623TIP3    H262361   6.382   6.054   6.697  1.2840 -2.5066  0.4627
13624TIP3   OH262362   5.767   0.679   3.975  0.3826 -0.3706 -0.6100
13624TIP3    H162363   5.820   0.667   4.053  0.0828  0.8863 -0.1978
13624TIP3    H262364   5.830   0.692   3.904  0.6485  2.0932  0.0402
13625TIP3   OH262365   3.560   4.939  10.810 -0.5515  0.4340 -0.0786
13625TIP3    H162366   3.492   4.958  10.875 -2.8335 -1.2899 -1.8640
13625TIP3    H262367   3.544   5.000  10.739  0.2237  0.5083 -0.1902
13626TIP3   OH262368   1.982   1.650   2.597  0.4500  0.2142  0.5831
13626TIP3    H162369   2.070   1.616   2.584  0.1304 -0.7401  0.9149
13626TIP3    H262370   1.934   1.624   2.519  0.5707  1.0892  0.2163
13627TIP3   OH262371   3.172   2.837  13.824 -0.4197 -0.1080 -0.1033
13627TIP3    H162372   3.244   2.793  13.869 -0.6630  0.1021  0.5017
13627TIP3    H262373   3.147   2.908  13.883  1.2707  2.0901 -1.9524
13628TIP3   OH262374   2.201   5.212   1.436 -0.8614 -0.2347 -0.1013
13628TIP3    H162375   2.116   5.175   1.411 -0.4790 -0.9903 -0.3234
13628TIP3    H262376   2.184   5.305   1.452 -1.6317 -0.2834 -0.6215
13629TIP3   OH262377   4.624   4.435   1.521  0.2786 -0.6182  0.0732
13629TIP3    H162378   4.558   4.404   1.583  1.7511 -1.6880  1.1250
13629TIP3    H262379   4.661   4.513   1.562  1.3542 -1.4095  0.6128
13630TIP3   OH262380   6.588   5.640   5.633  0.3778 -0.2117  0.0576
13630TIP3    H162381   6.521   5.572   5.620  0.9651 -1.2570  2.2224
13630TIP3    H262382   6.670   5.598   5.608  0.3526  0.7428 -1.6312
13631TIP3   OH262383   5.910   5.715  12.185  0.1752 -0.4289  0.5244
13631TIP3    H162384   5.903   5.673  12.271  1.2391 -1.9429 -0.1009
13631TIP3    H262385   5.821   5.714  12.150  0.2998 -3.0370  0.1579
13632TIP3   OH262386   2.231   5.336  13.281  0.2779 -0.2640  0.3706
13632TIP3    H162387   2.224   5.322  13.375 -0.5193 -0.8545  0.2236
13632TIP3    H262388   2.193   5.423  13.267 -0.2576 -0.4703  0.5107
13633TIP3   OH262389   0.811   6.768  15.121  0.9979 -0.1385  0.3403
13633TIP3    H162390   0.853   6.761  15.207 -0.3386 -1.3082  0.9128
13633TIP3    H262391   0.793   6.678  15.095 -2.3219  0.3190  0.7327
13634TIP3   OH262392   0.878   4.518  14.113  0.6549  0.4938 -0.3314
13634TIP3    H162393   0.920   4.482  14.191 -1.0178  0.2560  0.4807
13634TIP3    H262394   0.853   4.607  14.138 -0.9653  0.0065 -0.1683
13635TIP3   OH262395   2.038   2.898   1.300  0.2064  0.2135 -0.4725
13635TIP3    H162396   1.964   2.842   1.323  1.0513 -0.7716 -0.0700
13635TIP3    H262397   2.010   2.986   1.322 -1.1269 -0.0540 -1.0294
13636TIP3   OH262398   3.134   6.015   3.625 -0.4117  0.2104 -0.4693
13636TIP3    H162399   3.149   5.926   3.594 -1.4977  0.2234 -1.0234
13636TIP3    H262400   3.069   6.006   3.695  0.4074  0.4312  0.3353
13637TIP3   OH262401   3.149   6.346   6.208  0.1107 -1.0253  0.2801
13637TIP3    H162402   3.123   6.426   6.253  1.9367 -0.7115  0.8006
13637TIP3    H262403   3.085   6.281   6.237  0.8623 -0.6803  2.8306
13638TIP3   OH262404   0.229   2.228  16.541 -0.7177  0.2263  0.2006
13638TIP3    H162405   0.212   2.311  16.497  2.0087  0.5817 -0.3097
13638TIP3    H262406   0.216   2.161  16.474 -0.1289  0.4861 -0.1806
13639TIP3   OH262407   5.233   2.773  14.200 -0.4317  0.2918 -0.4211
13639TIP3    H162408   5.138   2.773  14.195 -0.4124 -1.3897 -1.2101
13639TIP3    H262409   5.253   2.747  14.290 -0.7158 -2.1154 -1.0404
13640TIP3   OH262410   3.261   3.257  15.051  0.3670  0.3445  0.0796
13640TIP3    H162411   3.294   3.283  14.966 -1.2917  0.9531 -0.3931
13640TIP3    H262412   3.189   3.197  15.032  1.1118 -0.9216  1.0892
13641TIP3   OH262413   6.399   0.875   5.460 -0.0347  0.1267  0.5755
13641TIP3    H162414   6.402   0.954   5.515  0.1252  0.1277  0.5669
13641TIP3    H262415   6.435   0.903   5.376  0.6695 -0.1178  0.7829
13642TIP3   OH262416   2.511   4.467  17.177 -0.6356  0.0434  0.0526
13642TIP3    H162417   2.590   4.422  17.206  0.7867  2.4477  0.0222
13642TIP3    H262418   2.444   4.398  17.174  1.4975 -2.0882 -0.2288
13643TIP3   OH262419   0.973   3.740   3.376 -0.2552  0.2459  1.1434
13643TIP3    H162420   0.970   3.645   3.387 -0.4922  0.0234 -0.6507
13643TIP3    H262421   0.984   3.753   3.282 -1.1112  2.0181  1.2673
13644TIP3   OH262422   3.551   2.586   3.395 -0.1982  0.0553  0.3930
13644TIP3    H162423   3.582   2.496   3.407 -0.3678  0.2790  2.9152
13644TIP3    H262424   3.456   2.581   3.405 -0.3414  0.3194 -0.8044
13645TIP3   OH262425   4.515   3.041  14.875  0.7397 -0.0589 -0.5979
13645TIP3    H162426   4.439   3.044  14.817  0.3592 -1.1883 -0.1774
13645TIP3    H262427   4.529   3.132  14.902 -0.5793  0.1255 -0.5172
13646TIP3   OH262428   2.817   2.693  12.700  0.2347 -0.0038  0.1009
13646TIP3    H162429   2.749   2.626  12.708  0.5566 -0.1768  1.6546
13646TIP3    H262430   2.785   2.766  12.752 -0.2975  1.2258 -1.9175
13647TIP3   OH262431   0.681   4.574   3.131 -0.0889 -0.1383  0.2443
13647TIP3    H162432   0.771   4.588   3.161 -0.8139 -0.5701  2.7478
13647TIP3    H262433   0.676   4.621   3.048  1.9771  1.2976  0.8828
13648TIP3   OH262434   6.216   4.068  13.095 -0.3118  0.3857 -0.3129
13648TIP3    H162435   6.138   4.110  13.131  0.1045  1.5878 -0.7697
13648TIP3    H262436   6.259   4.137  13.045  0.9575 -0.3076 -0.2006
13649TIP3   OH262437   0.741   3.735  13.820 -0.3301  0.0622  0.2223
13649TIP3    H162438   0.831   3.707  13.807  0.5919  2.2957  1.4941
13649TIP3    H262439   0.709   3.679  13.891  1.1281  1.3869  1.9755
13650TIP3   OH262440   6.272   6.630   6.674  0.3659 -0.5770 -0.3972
13650TIP3    H162441   6.232   6.640   6.588 -2.0601  0.7271  0.8181
13650TIP3    H262442   6.213   6.570   6.720  0.8773 -0.1800  0.7810
13651TIP3   OH262443   5.779   6.657   2.112 -0.2784  0.5831  0.1933
13651TIP3    H162444   5.761   6.744   2.149  0.9702  0.9738 -0.0899
13651TIP3    H262445   5.746   6.596   2.178 -0.7740  1.2679  0.5904
13652TIP3   OH262446   1.933   5.776  13.655 -0.3616 -0.4940  0.1491
13652TIP3    H162447   1.931   5.858  13.704  1.7839  0.4763 -1.3113
13652TIP3    H262448   1.879   5.792  13.578 -0.1247 -0.5186 -0.0233
13653TIP3   OH262449   1.435   5.848  13.130  0.0307  0.1642  0.5189
13653TIP3    H162450   1.397   5.785  13.068  1.1399  0.2143 -0.2212
13653TIP3    H262451   1.359   5.887  13.173 -0.7939  0.6858 -1.3526
13654TIP3   OH262452   0.916   4.076  16.207  0.7420  0.5403  0.5445
13654TIP3    H162453   0.987   4.015  16.224  0.8843  0.5711  0.0805
13654TIP3    H262454   0.960   4.160  16.193  0.9099 -0.0726 -3.0468
13655TIP3   OH262455   5.652   4.770   1.207  0.3427 -0.5082  0.2575
13655TIP3    H162456   5.646   4.773   1.302  0.2752 -0.4351  0.2509
13655TIP3    H262457   5.616   4.854   1.178  0.4553 -0.4893  0.1730
13656TIP3   OH262458   6.108   0.362   6.102  0.3834  0.4321 -0.4626
13656TIP3    H162459   6.040   0.381   6.037  1.2519  3.4410 -0.5744
13656TIP3    H262460   6.076   0.404   6.182 -0.3852 -2.7250  0.9773
13657TIP3   OH262461   2.255   4.540  16.657 -0.3983  0.3296  0.0132
13657TIP3    H162462   2.223   4.579  16.738  1.1602 -0.2901  0.9347
13657TIP3    H262463   2.303   4.462  16.685  0.6133  0.4018 -1.4647
13658TIP3   OH262464   0.163   1.452   4.874 -0.5650  0.5082 -0.6745
13658TIP3    H162465   0.162   1.516   4.803 -0.7905  0.3886 -0.7813
13658TIP3    H262466   0.164   1.504   4.954  1.6651  0.6616 -0.7772
13659TIP3   OH262467   3.391   4.402   3.982  0.1719  0.1287  0.2107
13659TIP3    H162468   3.337   4.418   4.059  0.2578  1.0159  0.0870
13659TIP3    H262469   3.335   4.425   3.908 -0.5414 -2.4310 -0.0913
13660TIP3   OH262470   5.247   3.049   2.346  0.0916 -0.1194 -0.3018
13660TIP3    H162471   5.278   3.130   2.304 -0.9630  0.2210 -0.4432
13660TIP3    H262472   5.158   3.070   2.375 -0.1908 -1.2438 -0.3536
13661TIP3   OH262473   5.593   4.515   1.645 -0.6170  0.5482 -0.0832
13661TIP3    H162474   5.679   4.479   1.621 -1.6513 -0.0092 -3.1415
13661TIP3    H262475   5.614   4.588   1.704  1.7195 -2.1160  2.5545
13662TIP3   OH262476   1.287   2.367  15.196 -0.2007  0.1851 -0.1909
13662TIP3    H162477   1.343   2.389  15.121  0.4636  0.3962  0.3554
13662TIP3    H262478   1.336   2.399  15.271  0.0398 -1.7263  0.4911
13663TIP3   OH262479   1.231   3.515  15.923 -0.0468  0.6750 -0.2537
13663TIP3    H162480   1.269   3.577  15.985 -0.1738  0.8012 -0.3006
13663TIP3    H262481   1.223   3.565  15.842  0.1744  0.4950 -0.3913
13664TIP3   OH262482   4.192   5.317  11.027  0.9812 -0.1527  0.2826
13664TIP3    H162483   4.222   5.319  10.936  2.2433  0.8306  0.7063
13664TIP3    H262484   4.099   5.295  11.021  0.9680  0.2591 -1.2666
13665TIP3   OH262485   4.765   0.765  16.995  0.0507 -0.1463  0.4054
13665TIP3    H162486   4.687   0.734  16.948  1.2581 -1.3651 -0.8186
13665TIP3    H262487   4.805   0.686  17.031  1.0312  0.4142  0.5592
13666TIP3   OH262488   1.632   5.640  16.650  0.5788  0.2915 -0.2445
13666TIP3    H162489   1.619   5.731  16.621  0.2065 -0.1227 -1.3955
13666TIP3    H262490   1.598   5.587  16.578 -0.2408 -0.7650  0.9115
13667TIP3   OH262491   5.616   0.199   2.423 -0.6789  0.4952  0.6338
13667TIP3    H162492   5.617   0.294   2.436  0.4642  0.6271 -0.3967
13667TIP3    H262493   5.617   0.163   2.512  0.0372  1.4355  1.0186
13668TIP3   OH262494   3.632   6.334  16.319  0.6895 -0.4915 -0.3498
13668TIP3    H162495   3.555   6.292  16.357 -0.5240  0.8016 -1.3314
13668TIP3    H262496   3.689   6.354  16.394 -0.5083 -0.3085  0.5140
13669TIP3   OH262497   2.558   0.115   3.270  0.2071  0.3066  0.2781
13669TIP3    H162498   2.604   0.058   3.207 -1.0353 -0.5592  0.1345
13669TIP3    H262499   2.471   0.077   3.277 -0.8766  2.5940 -0.3284
13670TIP3   OH262500   3.955   4.724  11.305  0.0689 -0.0944 -0.0848
13670TIP3    H162501   3.911   4.777  11.239 -2.4676  0.1499  1.7055
13670TIP3    H262502   4.042   4.761  11.312 -0.0195  0.6351 -2.3995
13671TIP3   OH262503   1.506   5.544  14.181  0.0978 -0.5003  0.4802
13671TIP3    H162504   1.475   5.469  14.232  0.8270 -1.6581 -0.7429
13671TIP3    H262505   1.601   5.536  14.182  0.1754  0.3043  0.1468
13672TIP3   OH262506   5.647   2.049  12.542  0.5949  0.1452  0.0548
13672TIP3    H162507   5.732   2.009  12.527 -0.5597 -2.6059  0.6507
13672TIP3    H262508   5.662   2.111  12.614  2.2444  0.2827 -0.4005
13673TIP3   OH262509   0.812   4.061  10.675 -1.1503 -0.0310 -0.8418
13673TIP3    H162510   0.874   3.989  10.678  0.1485  1.1718  3.0905
13673TIP3    H262511   0.860   4.133  10.635 -0.8429  0.1316 -0.1769
13674TIP3   OH262512   6.311   3.679  14.680  0.5468  0.4250 -0.2164
13674TIP3    H162513   6.404   3.657  14.693  0.5477  0.9542  0.7356
13674TIP3    H262514   6.294   3.748  14.744 -0.9314 -0.8519  0.8277
13675TIP3   OH262515   2.873   6.295   3.734  0.4034  0.2360 -0.2541
13675TIP3    H162516   2.957   6.329   3.767 -0.2930  1.0662  0.6702
13675TIP3    H262517   2.879   6.200   3.749 -0.2312  0.6737  3.0754
13676TIP3   OH262518   1.913   3.717  15.854  0.1677  0.3081  0.6031
13676TIP3    H162519   1.900   3.760  15.938 -0.3973  0.9956  0.1738
13676TIP3    H262520   2.008   3.714  15.842  0.1929  2.1457  0.2799
13677TIP3   OH262521   4.849   0.950  13.019 -0.3174 -0.3473  0.1081
13677TIP3    H162522   4.871   1.035  13.059 -0.0015 -1.3603  2.1439
13677TIP3    H262523   4.926   0.927  12.967 -0.0437  0.1813  0.2779
13678TIP3   OH262524   0.680   5.126   4.122  0.3162  0.0384  0.2931
13678TIP3    H162525   0.686   5.031   4.126 -0.8548 -0.0666 -0.3428
13678TIP3    H262526   0.661   5.145   4.030  0.2612  0.8625  0.4729
13679TIP3   OH262527   1.981   0.704   1.235  0.0590 -0.7011  0.4896
13679TIP3    H162528   2.046   0.690   1.166 -0.8758 -1.7933 -0.1927
13679TIP3    H262529   1.987   0.626   1.290 -0.8347 -0.9268  0.2770
13680TIP3   OH262530   6.070   4.677   3.497 -0.0723 -0.1282  0.8625
13680TIP3    H162531   6.141   4.619   3.526 -0.2998 -0.5226  0.6250
13680TIP3    H262532   6.052   4.650   3.407 -0.7559 -0.2484  1.0360
13681TIP3   OH262533   6.327   1.287   1.755 -0.2118  0.7576 -0.1101
13681TIP3    H162534   6.380   1.229   1.810 -0.4482  0.1153 -0.5537
13681TIP3    H262535   6.388   1.320   1.689  0.0943  1.5982  0.5721
13682TIP3   OH262536   2.391   0.033  14.501 -0.3840  0.1290 -0.3465
13682TIP3    H162537   2.305   0.019  14.461  0.5151  0.4405 -2.4745
13682TIP3    H262538   2.429  -0.055  14.508 -0.5510  0.0718 -0.1708
13683TIP3   OH262539   3.923   0.140  13.679 -0.0096  0.3585  0.3885
13683TIP3    H162540   4.016   0.130  13.700  0.2732 -1.2363 -1.5174
13683TIP3    H262541   3.885   0.055  13.703 -0.9359  0.9013  0.8664
13684TIP3   OH262542   5.049   0.799   5.797 -0.2678 -0.2083 -0.5155
13684TIP3    H162543   5.106   0.732   5.758 -1.1206 -0.2809 -1.6638
13684TIP3    H262544   4.986   0.748   5.849 -0.3501 -0.2245 -0.6333
13685TIP3   OH262545   4.024   2.209   5.937  0.0346 -0.0921 -0.7772
13685TIP3    H162546   4.110   2.183   5.970 -0.1197 -0.5941 -0.7625
13685TIP3    H262547   4.035   2.299   5.908  0.8104 -0.4575 -1.6522
13686TIP3   OH262548   5.464   6.386   4.625 -0.3223  0.2438 -0.0810
13686TIP3    H162549   5.459   6.477   4.655  1.8683  0.6280 -0.8099
13686TIP3    H262550   5.467   6.334   4.706 -2.7497  0.7086  0.3472
13687TIP3   OH262551   0.628   5.075   0.123 -0.3916  0.0769  0.3163
13687TIP3    H162552   0.585   5.149   0.079 -1.4187 -1.0297 -0.5685
13687TIP3    H262553   0.705   5.114   0.166 -1.5570  1.8656  0.8457
13688TIP3   OH262554   0.325   3.588  15.783 -0.4179 -0.1117 -0.3559
13688TIP3    H162555   0.399   3.531  15.764  0.4244  0.5544  0.8120
13688TIP3    H262556   0.363   3.676  15.787 -1.8478  0.6877 -3.0526
13689TIP3   OH262557   2.006   3.747  13.360 -0.0198 -0.0908  0.6272
13689TIP3    H162558   1.935   3.716  13.305 -0.2523 -0.5420  1.1798
13689TIP3    H262559   2.057   3.669  13.380  0.8591  0.2896 -0.0920
13690TIP3   OH262560   2.358   3.993  12.805 -0.2461 -0.2714 -0.0366
13690TIP3    H162561   2.425   4.042  12.852 -1.0212  0.1691  0.6248
13690TIP3    H262562   2.299   3.961  12.873 -0.6414 -0.7630 -0.6017
13691TIP3   OH262563   0.173   6.226  11.553  0.0767 -0.3068  0.5079
13691TIP3    H162564   0.161   6.255  11.462 -1.6863 -0.2449  0.7479
13691TIP3    H262565   0.167   6.131  11.549 -1.4999 -0.2338  0.7499
13692TIP3   OH262566   1.044   5.783   2.117 -0.0176 -0.3097 -0.5927
13692TIP3    H162567   1.047   5.785   2.021 -0.0746  0.4895 -0.5784
13692TIP3    H262568   0.951   5.778   2.138 -0.0462  0.3345 -0.5645
13693TIP3   OH262569   0.696   1.207  15.754 -0.0426  0.3896  0.0325
13693TIP3    H162570   0.773   1.202  15.698 -0.7378 -0.9261 -0.8280
13693TIP3    H262571   0.705   1.291  15.800  1.7696  0.3588 -0.2342
13694TIP3   OH262572   0.198   2.304  12.299 -0.2345  0.0735  0.2231
13694TIP3    H162573   0.201   2.295  12.394 -0.7140 -0.8706  0.1558
13694TIP3    H262574   0.251   2.382  12.281 -0.0999  0.2336  1.2536
13695TIP3   OH262575   3.689   0.771  15.692 -0.1914 -0.7739  0.1418
13695TIP3    H162576   3.732   0.813  15.617 -1.7328 -0.2910 -0.5002
13695TIP3    H262577   3.734   0.806  15.768  0.5409 -0.2613 -0.5184
13696TIP3   OH262578   5.612   0.693  11.897 -0.0783  0.1080 -0.1547
13696TIP3    H162579   5.645   0.656  11.815  0.6693  0.9897 -0.2606
13696TIP3    H262580   5.660   0.647  11.966 -0.4622 -0.3942 -0.2177
13697TIP3   OH262581   3.494   4.245  12.810 -0.3177 -0.3050 -0.3098
13697TIP3    H162582   3.436   4.268  12.737 -1.3311 -1.2813  0.1653
13697TIP3    H262583   3.491   4.150  12.814  0.6605 -0.3226  0.2755
13698TIP3   OH262584   0.413   0.627  12.876  0.2239 -0.6773 -0.2460
13698TIP3    H162585   0.345   0.635  12.809  2.2596 -0.1586 -2.3172
13698TIP3    H262586   0.436   0.717  12.899 -0.4419 -0.8504  1.1705
13699TIP3   OH262587   1.185   4.408  17.236 -0.3905 -0.4032  0.9638
13699TIP3    H162588   1.096   4.432  17.261 -1.7145 -2.4999 -1.4761
13699TIP3    H262589   1.200   4.324  17.279  0.8401  0.4070  2.1798
13700TIP3   OH262590   3.383   0.968  15.556  0.5333 -0.2177  0.7028
13700TIP3    H162591   3.298   0.928  15.538  0.7391 -0.5704  0.5160
13700TIP3    H262592   3.366   1.028  15.629 -0.3214  1.2831 -0.6731
13701TIP3   OH262593   0.727   5.212   0.579 -0.2539  0.0826 -0.5763
13701TIP3    H162594   0.781   5.232   0.656  0.1210  0.0466 -0.8317
13701TIP3    H262595   0.723   5.116   0.577 -0.7766  0.0914 -0.2464
13702TIP3   OH262596   2.117   1.694  10.523 -0.2715 -0.1340 -0.4609
13702TIP3    H162597   2.152   1.762  10.466  0.5299 -0.9557 -0.9642
13702TIP3    H262598   2.029   1.678  10.490 -1.7622  3.0467  1.7844
13703TIP3   OH262599   1.927   1.033  14.690  0.3420 -0.4676 -0.2543
13703TIP3    H162600   1.976   1.072  14.617  0.6936  0.9952  0.7348
13703TIP3    H262601   1.909   1.107  14.749  0.5804 -1.7108  1.4212
13704TIP3   OH262602   0.488   0.900   5.244 -0.0277 -0.1002 -0.3364
13704TIP3    H162603   0.456   0.814   5.216  0.0670 -0.2419 -0.0068
13704TIP3    H262604   0.409   0.946   5.274  0.2330 -0.8976  1.6596
13705TIP3   OH262605   1.753   0.439   1.073  0.1149 -0.7177  0.0529
13705TIP3    H162606   1.731   0.527   1.102  1.2799 -0.2703 -0.3877
13705TIP3    H262607   1.675   0.387   1.092 -0.2141  0.1905  1.2285
13706TIP3   OH262608   1.764   6.718  10.857 -0.6136  0.0832 -0.0664
13706TIP3    H162609   1.780   6.812  10.856 -0.5656  0.0770  0.0273
13706TIP3    H262610   1.714   6.701  10.777 -0.6768  0.1967 -0.0505
13707TIP3   OH262611   2.585   4.117  11.121  0.2686  0.5248  0.3824
13707TIP3    H162612   2.547   4.174  11.054 -0.5987 -0.0289  0.3951
13707TIP3    H262613   2.661   4.165  11.154 -0.1837  1.4618  0.0578
13708TIP3   OH262614   5.985   5.444  13.918  0.2009 -0.1034 -0.7211
13708TIP3    H162615   5.992   5.490  13.834  3.8392 -0.0028 -0.4419
13708TIP3    H262616   5.929   5.501  13.972  0.5828  1.5101 -1.9809
13709TIP3   OH262617   4.199   5.981   5.763  0.0253 -0.1054  0.2639
13709TIP3    H162618   4.135   6.041   5.801 -0.1817  0.0659 -0.3522
13709TIP3    H262619   4.239   5.937   5.838 -3.2122 -2.7437  0.5201
13710TIP3   OH262620   0.970   2.537   3.882  0.1267  0.4538  0.3538
13710TIP3    H162621   1.049   2.581   3.853  0.9197  0.3266  2.2095
13710TIP3    H262622   0.899   2.597   3.860  0.7895  0.8266 -0.7857
13711TIP3   OH262623   2.611   4.670   2.698 -0.4989 -0.3189  0.3708
13711TIP3    H162624   2.551   4.701   2.766  1.6016  1.9634  1.2536
13711TIP3    H262625   2.582   4.715   2.619 -1.8863 -1.6853  0.0588
13712TIP3   OH262626   3.490   4.227  11.306 -0.2974 -0.5458 -0.0433
13712TIP3    H162627   3.473   4.317  11.281  1.3294  0.5433  2.5444
13712TIP3    H262628   3.554   4.195  11.242 -0.9123  0.1013 -0.9845
13713TIP3   OH262629   2.424   4.818   3.798 -0.1095 -0.7029 -0.0011
13713TIP3    H162630   2.375   4.833   3.717  0.5543 -2.4437 -0.7520
13713TIP3    H262631   2.364   4.845   3.868 -0.5945  1.0885 -1.0542
13714TIP3   OH262632   6.759   5.567   5.454  0.2148  0.3647  0.0988
13714TIP3    H162633   6.738   5.483   5.414 -1.5107  1.0002 -0.3614
13714TIP3    H262634   6.778   5.625   5.380 -3.4107  1.6609  0.0742
13715TIP3   OH262635   5.315   6.619   0.866  0.2773  0.3095 -0.5376
13715TIP3    H162636   5.254   6.676   0.819 -1.4163  0.2201  1.5153
13715TIP3    H262637   5.353   6.674   0.934 -0.6267 -0.7101  0.8254
13716TIP3   OH262638   3.074   5.875  15.360  0.4922  0.1761  0.7585
13716TIP3    H162639   3.097   5.785  15.337 -1.7302 -0.3336  0.4609
13716TIP3    H262640   3.133   5.929  15.307 -0.6126 -1.0470 -1.8004
13717TIP3   OH262641   3.713   1.974  15.928 -0.1930 -0.0928  0.2664
13717TIP3    H162642   3.646   1.920  15.970 -0.8284  0.0343 -0.5809
13717TIP3    H262643   3.697   2.062  15.960  1.5188 -0.5476  2.5029
13718TIP3   OH262644   2.341   1.240   6.649  0.0710  0.3889 -0.1750
13718TIP3    H162645   2.295   1.314   6.689 -1.6576 -0.4676 -0.5617
13718TIP3    H262646   2.309   1.163   6.697 -0.0261 -0.3670 -1.4254
13719TIP3   OH262647   0.922   5.549   0.166  0.0970  0.2618  0.5591
13719TIP3    H162648   1.010   5.533   0.131 -0.0231  1.4159 -0.2899
13719TIP3    H262649   0.927   5.518   0.257  1.1509 -0.3902  0.2943
13720TIP3   OH262650   0.157   5.000   4.796  0.7657  0.5641  0.4392
13720TIP3    H162651   0.133   4.918   4.754  0.3503  0.3000  1.1868
13720TIP3    H262652   0.171   4.977   4.888 -0.1822  1.4872  0.8221
13721TIP3   OH262653   2.713   2.150  12.848 -0.8574 -0.1135  0.4549
13721TIP3    H162654   2.760   2.154  12.932  0.8638  0.6822 -0.5281
13721TIP3    H262655   2.653   2.224  12.852 -1.2200 -0.4399  1.2407
13722TIP3   OH262656   0.511   6.233  12.681  0.4339 -0.1802 -0.4730
13722TIP3    H162657   0.438   6.178  12.710  1.2223  0.0013  1.9684
13722TIP3    H262658   0.589   6.186  12.710  1.1533  1.6516  0.6129
13723TIP3   OH262659   6.163   1.040  11.074 -0.0326  0.2547 -0.2402
13723TIP3    H162660   6.084   1.009  11.117 -1.9781  1.3776 -2.8859
13723TIP3    H262661   6.187   0.970  11.014 -0.8558  1.1998 -1.7036
13724TIP3   OH262662   1.021   6.717   5.018  0.3811  0.0179  0.1775
13724TIP3    H162663   0.991   6.641   5.068  1.2480 -1.1621 -1.0676
13724TIP3    H262664   0.963   6.788   5.045  1.3985 -0.3198  3.6050
13725TIP3   OH262665   1.699   5.546  10.809 -0.1538 -0.2798 -0.0511
13725TIP3    H162666   1.683   5.452  10.821 -0.5213 -0.0582  1.2532
13725TIP3    H262667   1.793   5.556  10.825 -0.1531 -0.3831  0.0107
13726TIP3   OH262668   5.840   4.101   5.030 -0.2102  0.1074  0.0316
13726TIP3    H162669   5.753   4.103   4.992 -0.0867 -0.6579 -0.2992
13726TIP3    H262670   5.892   4.047   4.970 -0.2947 -2.0576  1.8660
13727TIP3   OH262671   1.961   3.936   2.559 -0.3428 -0.0964  0.3241
13727TIP3    H162672   1.900   3.913   2.629  0.3451  1.4710  1.4783
13727TIP3    H262673   1.990   3.852   2.523 -2.3403 -0.8665  0.4886
13728TIP3   OH262674   4.050   5.790   3.357  0.0194  0.8417  0.5691
13728TIP3    H162675   3.976   5.730   3.363 -0.4659  1.5290  1.7207
13728TIP3    H262676   4.009   5.877   3.355  0.7589  1.1793  0.1497
13729TIP3   OH262677   0.398   3.750  12.603 -0.1743 -0.8017  0.3653
13729TIP3    H162678   0.368   3.840  12.617 -1.9898 -1.6332  2.0758
13729TIP3    H262679   0.488   3.760  12.572 -0.5724  1.6196 -0.1650
13730TIP3   OH262680   3.740   1.424  13.514  0.3053 -0.8011 -0.0994
13730TIP3    H162681   3.824   1.436  13.470  0.0886  1.7043  0.1083
13730TIP3    H262682   3.763   1.415  13.607  0.3543 -0.1273 -0.0437
13731TIP3   OH262683   4.347   6.684   2.198 -0.6069  0.1882  0.5494
13731TIP3    H162684   4.272   6.705   2.142 -1.0729 -0.9421  0.7382
13731TIP3    H262685   4.423   6.692   2.140 -1.0336 -0.3485 -0.0887
13732TIP3   OH262686   5.801   4.469  14.406 -0.4427 -0.2384 -0.6547
13732TIP3    H162687   5.775   4.377  14.417 -0.7756 -0.0192  0.4406
13732TIP3    H262688   5.733   4.507  14.351 -0.8258 -0.4029 -0.2951
13733TIP3   OH262689   6.663   5.132  12.486  0.4737  0.0473 -0.0187
13733TIP3    H162690   6.693   5.219  12.462  0.3914 -0.1865 -1.0124
13733TIP3    H262691   6.696   5.075  12.415  0.0864 -0.6391  0.3460
13734TIP3   OH262692   3.635   1.019  11.110 -0.7793 -0.3035 -0.3046
13734TIP3    H162693   3.616   0.926  11.106 -1.0540 -0.3037  0.6822
13734TIP3    H262694   3.710   1.032  11.052 -0.4298 -1.2214 -0.0564
13735TIP3   OH262695   0.560   3.076  10.621 -0.1536  0.0560  0.6604
13735TIP3    H162696   0.465   3.071  10.625 -0.2006 -0.5327 -0.8634
13735TIP3    H262697   0.591   2.992  10.654 -0.1171  0.6372  2.1461
13736TIP3   OH262698   5.770   6.611   4.984  0.0342 -0.9736 -0.1543
13736TIP3    H162699   5.728   6.530   5.013  1.3358 -1.3028  0.8594
13736TIP3    H262700   5.856   6.610   5.026 -0.0275  1.0580  0.0815
13737TIP3   OH262701   4.216   0.474  14.587  0.1292 -0.2236 -0.4124
13737TIP3    H162702   4.166   0.536  14.533  0.8161  0.0659 -0.7227
13737TIP3    H262703   4.175   0.479  14.673  0.6579  1.2368 -0.2269
13738TIP3   OH262704   1.581   2.683   5.663 -0.2218 -0.1740 -0.4424
13738TIP3    H162705   1.614   2.696   5.752 -1.5799 -2.7237  0.5053
13738TIP3    H262706   1.656   2.648   5.615  0.8444  2.3034 -0.6422
13739TIP3   OH262707   2.153   3.591   1.384 -0.4795 -0.1245  0.5014
13739TIP3    H162708   2.224   3.548   1.336 -1.0744  0.5043 -0.9897
13739TIP3    H262709   2.175   3.684   1.380 -1.4957  0.0986 -0.1876
13740TIP3   OH262710   4.551   4.233   0.640 -0.0207 -0.1563  0.3256
13740TIP3    H162711   4.542   4.327   0.658 -1.0147 -0.2631  0.3919
13740TIP3    H262712   4.575   4.229   0.548 -0.3148  0.1452  0.2352
13741TIP3   OH262713   3.048   4.117  13.457  0.2504  0.1943  0.2661
13741TIP3    H162714   3.039   4.087  13.367  1.5234  0.4721  0.0358
13741TIP3    H262715   2.959   4.140  13.484 -0.5281 -2.2948 -0.0735
13742TIP3   OH262716   0.781   5.404   0.364  0.3640  0.4717  0.3330
13742TIP3    H162717   0.796   5.313   0.336 -0.4082  0.5324 -0.3130
13742TIP3    H262718   0.754   5.397   0.455 -0.3924 -0.0149  0.0801
13743TIP3   OH262719   0.772   3.900  15.587 -0.5073  0.5889 -0.1624
13743TIP3    H162720   0.746   3.815  15.624  3.1181 -0.9831 -0.9777
13743TIP3    H262721   0.763   3.961  15.660  0.6161 -1.3123  1.6527
13744TIP3   OH262722   1.470   0.665   4.719 -0.4503 -0.1218 -0.1252
13744TIP3    H162723   1.495   0.617   4.641 -0.1297  0.0459 -0.1269
13744TIP3    H262724   1.548   0.663   4.775 -0.6019 -0.0452  0.0925
13745TIP3   OH262725   5.738   4.386   1.290 -0.3934  0.8194  0.6310
13745TIP3    H162726   5.775   4.436   1.218  0.2634  0.2042  0.5321
13745TIP3    H262727   5.710   4.303   1.250 -0.6216  0.7332  0.9607
13746TIP3   OH262728   5.785   1.048   3.601  0.2205  0.0488 -0.5502
13746TIP3    H162729   5.831   1.040   3.517 -1.1103  0.4284 -1.3387
13746TIP3    H262730   5.698   1.012   3.583 -0.8230  2.2113  0.0406
13747TIP3   OH262731   1.122   1.001   5.705  0.0250 -0.2920 -0.1014
13747TIP3    H162732   1.164   1.036   5.783 -0.3423 -0.2644  0.0857
13747TIP3    H262733   1.089   0.915   5.731 -0.7362  0.0190 -0.0072
13748TIP3   OH262734   5.495   0.238   4.107 -0.3940 -0.3656  0.4183
13748TIP3    H162735   5.461   0.155   4.141 -0.0420 -1.6353 -2.1771
13748TIP3    H262736   5.589   0.233   4.123 -0.3390 -0.5978  0.0398
13749TIP3   OH262737   2.739   5.477   5.396  0.5168 -0.0094  0.5208
13749TIP3    H162738   2.674   5.546   5.387 -0.5752 -0.7120  2.6938
13749TIP3    H262739   2.785   5.497   5.478  2.3472 -0.1075 -0.4456
13750TIP3   OH262740   0.380   6.628  12.511  0.6545 -0.1642 -0.0563
13750TIP3    H162741   0.344   6.698  12.458 -0.7237 -0.5429  0.3648
13750TIP3    H262742   0.432   6.575  12.449 -1.1478 -0.7527 -1.0886
13751TIP3   OH262743   1.205   6.467  14.603  0.4825 -0.2099 -0.3974
13751TIP3    H162744   1.239   6.452  14.515  2.7557  0.2785  0.3595
13751TIP3    H262745   1.282   6.486  14.656 -1.2559  3.9583  0.8070
13752TIP3   OH262746   2.775   1.507  17.061  0.6787  0.4818 -0.2589
13752TIP3    H162747   2.732   1.547  16.986  1.3780  1.3827 -0.1946
13752TIP3    H262748   2.782   1.577  17.125  0.7777 -0.0824  0.3556
13753TIP3   OH262749   2.553   5.656   5.345 -0.8113  0.4794  0.7774
13753TIP3    H162750   2.472   5.611   5.321 -1.1570  1.6615 -0.2770
13753TIP3    H262751   2.528   5.712   5.419 -0.5648 -0.4272  1.5561
13754TIP3   OH262752   4.870   5.606   5.926 -0.2118 -0.5237 -0.4101
13754TIP3    H162753   4.792   5.571   5.884 -1.4455  1.4999  0.1383
13754TIP3    H262754   4.875   5.560   6.010 -0.1817 -1.4531 -0.9188
13755TIP3   OH262755   1.026   0.661  14.342 -0.5164  0.2965 -0.1909
13755TIP3    H162756   1.049   0.646  14.250 -2.6766  1.4235 -0.9578
13755TIP3    H262757   0.931   0.653  14.345 -0.4549 -0.0342  2.0299
13756TIP3   OH262758   3.351   1.686   3.718  0.0387  0.2080 -0.0227
13756TIP3    H162759   3.327   1.767   3.763 -2.1054 -0.2018 -0.3942
13756TIP3    H262760   3.415   1.645   3.775 -0.9288  0.8209  1.5249
13757TIP3   OH262761   5.816   2.544  12.392 -0.3346 -0.5164 -0.2082
13757TIP3    H162762   5.788   2.612  12.331  0.5405 -0.6170 -0.7269
13757TIP3    H262763   5.850   2.474  12.336 -1.3454 -1.4413  0.3191
13758TIP3   OH262764   3.771   1.869  12.506 -0.2909 -0.3111 -0.4227
13758TIP3    H162765   3.679   1.887  12.488 -0.7582 -1.8828  0.2910
13758TIP3    H262766   3.810   1.855  12.419 -1.1993 -1.7253 -0.6327
13759TIP3   OH262767   4.604   5.569   1.290  0.5368 -0.0546  0.1003
13759TIP3    H162768   4.510   5.578   1.273 -0.0476 -3.3963  1.1383
13759TIP3    H262769   4.636   5.511   1.221  1.9264  1.2534 -0.3863
13760TIP3   OH262770   1.925   6.146   3.522  0.3076  0.1984  0.0822
13760TIP3    H162771   1.976   6.227   3.515  0.2699  0.0739 -1.7187
13760TIP3    H262772   1.991   6.078   3.534  0.4107  0.3177  0.2137
13761TIP3   OH262773   5.661   4.203  16.544 -0.1348  0.3008 -0.3670
13761TIP3    H162774   5.577   4.226  16.503 -0.5315 -1.2169 -0.4216
13761TIP3    H262775   5.653   4.110  16.564  1.6817  0.0571 -0.6980
13762TIP3   OH262776   1.923   4.725  13.679 -0.1305  0.5794 -0.0774
13762TIP3    H162777   1.883   4.772  13.752 -0.7569 -1.0041  0.6221
13762TIP3    H262778   1.851   4.710  13.618 -0.2580 -0.7229  0.3731
13763TIP3   OH262779   1.882   5.029   6.013 -0.2573 -0.4021 -0.4372
13763TIP3    H162780   1.950   5.005   6.075 -1.0664  0.7169  0.9111
13763TIP3    H262781   1.910   4.989   5.930  2.1323  0.2017  0.0312
13764TIP3   OH262782   2.275   5.870  12.862 -0.1179  0.0070  0.3624
13764TIP3    H162783   2.263   5.964  12.846 -0.9040 -0.3511 -1.2187
13764TIP3    H262784   2.263   5.860  12.957  0.0728  1.5154  0.5551
13765TIP3   OH262785   2.747   3.850   3.071 -0.2931  0.1231 -0.2031
13765TIP3    H162786   2.789   3.935   3.057  0.9937 -0.9305 -3.2086
13765TIP3    H262787   2.655   3.865   3.051 -0.0179  0.7437 -1.0352
13766TIP3   OH262788   3.081   0.905   1.525  0.1798 -0.2462  0.4139
13766TIP3    H162789   3.010   0.863   1.574 -0.9350  2.2616  1.0492
13766TIP3    H262790   3.035   0.954   1.456  1.3224  1.0225  0.5426
13767TIP3   OH262791   1.328   4.794   2.298 -0.1640 -0.1155 -0.6844
13767TIP3    H162792   1.238   4.797   2.331 -0.7612  2.0696 -2.4315
13767TIP3    H262793   1.326   4.725   2.231 -0.0751 -1.3218  0.5322
13768TIP3   OH262794   5.227   2.451  12.012 -0.1622  0.2984 -0.7360
13768TIP3    H162795   5.233   2.363  12.051  1.1343  0.3575 -0.7722
13768TIP3    H262796   5.135   2.475  12.021  0.3206  0.9270  3.7415
13769TIP3   OH262797   2.599   2.479   6.106 -0.3302  0.2772 -0.3519
13769TIP3    H162798   2.526   2.538   6.125 -0.5305  0.7762 -2.5763
13769TIP3    H262799   2.561   2.391   6.112 -1.3026  0.5597 -2.1958
13770TIP3   OH262800   0.245   3.759   5.586 -0.5788 -0.4867 -0.0546
13770TIP3    H162801   0.296   3.712   5.520 -0.7908  0.6533 -1.0302
13770TIP3    H262802   0.301   3.832   5.613 -0.9828 -0.2456  0.1359
13771TIP3   OH262803   1.082   1.739   2.257 -0.2384  0.1275 -0.1317
13771TIP3    H162804   1.125   1.655   2.274  1.6101  0.8422 -1.1347
13771TIP3    H262805   1.109   1.796   2.328  0.5915  0.6137 -0.8258
13772TIP3   OH262806   1.819   6.017  12.699 -0.2878 -0.6057  0.2027
13772TIP3    H162807   1.774   5.939  12.730  1.3420 -1.5632  0.1867
13772TIP3    H262808   1.778   6.089  12.747  0.1777 -1.7609  2.3987
13773TIP3   OH262809   6.395   3.662   3.483  0.1198 -0.4977  0.2496
13773TIP3    H162810   6.349   3.578   3.478 -0.9408  0.0551  0.6715
13773TIP3    H262811   6.337   3.723   3.439  1.6645 -0.2920 -1.6165
13774TIP3   OH262812   4.421   2.521   2.612  0.1482 -0.2707  0.1084
13774TIP3    H162813   4.351   2.465   2.645 -1.3895  0.5831 -1.5855
13774TIP3    H262814   4.501   2.485   2.649 -0.9546 -2.6848  0.2273
13775TIP3   OH262815   6.153   1.532   0.215  0.0977 -0.0098  0.1140
13775TIP3    H162816   6.242   1.564   0.204 -0.5301  1.2132 -1.7753
13775TIP3    H262817   6.110   1.597   0.270  0.0630  0.0313  0.0396
13776TIP3   OH262818   3.632   0.788   0.078  0.5415 -0.1157  0.2453
13776TIP3    H162819   3.690   0.745   0.017 -0.6531  1.4844 -2.0994
13776TIP3    H262820   3.683   0.860   0.114  0.1717  1.0391 -1.5015
13777TIP3   OH262821   3.908   4.462   2.339 -0.6188  0.0531 -0.5713
13777TIP3    H162822   3.876   4.399   2.404 -0.4091 -1.6016 -2.0286
13777TIP3    H262823   3.912   4.412   2.258  0.5291  1.6976 -1.5544
13778TIP3   OH262824   4.992   2.598  12.040  0.3161  0.0816 -0.2491
13778TIP3    H162825   5.004   2.649  12.120  0.0508  0.1846 -0.2725
13778TIP3    H262826   4.992   2.664  11.970  0.3041  0.0176 -0.3087
13779TIP3   OH262827   6.517   5.530  13.567  0.2734 -0.4266  0.1092
13779TIP3    H162828   6.586   5.506  13.629  0.2644  0.1022  0.3249
13779TIP3    H262829   6.487   5.446  13.531  1.8445 -0.5888 -0.8684
13780TIP3   OH262830   3.275   6.601   0.050 -0.3508 -0.6333  0.4250
13780TIP3    H162831   3.200   6.651   0.080  0.5902  2.1546 -1.6971
13780TIP3    H262832   3.344   6.620   0.114  0.2386  1.4929 -0.7948
13781TIP3   OH262833   0.294   6.604  13.990 -0.6935  0.7439 -0.3006
13781TIP3    H162834   0.383   6.593  13.958 -1.2498 -2.3332 -0.9768
13781TIP3    H262835   0.303   6.655  14.071  1.5847  0.9686 -0.6630
13782TIP3   OH262836   0.476   3.095  15.301  0.6156 -0.2627 -0.1229
13782TIP3    H162837   0.482   3.022  15.240 -0.4184 -0.4132 -0.0633
13782TIP3    H262838   0.473   3.054  15.388  3.2445 -0.0000  0.1214
13783TIP3   OH262839   6.592   2.562   0.942  0.4461 -0.7124  0.7806
13783TIP3    H162840   6.615   2.541   1.032  3.0622  0.2159  0.3751
13783TIP3    H262841   6.576   2.656   0.942 -3.3424 -1.2872  0.9951
13784TIP3   OH262842   3.272   4.194  11.947 -0.2953 -0.8030 -0.4492
13784TIP3    H162843   3.335   4.258  11.981  0.6710 -3.0935  2.3038
13784TIP3    H262844   3.320   4.148  11.878 -0.1463 -0.2360 -0.7262
13785TIP3   OH262845   4.782   5.742  13.150 -0.0328 -0.1886  0.1841
13785TIP3    H162846   4.726   5.816  13.173 -1.2243 -1.2383  0.7511
13785TIP3    H262847   4.739   5.666  13.190  2.3967 -0.8808  1.5923
13786TIP3   OH262848   2.858   0.918   6.548 -0.0870  0.5997  0.1290
13786TIP3    H162849   2.936   0.967   6.576 -1.2193  3.1802 -1.0396
13786TIP3    H262850   2.822   0.882   6.628  0.7991  1.6929  1.0399
13787TIP3   OH262851   1.370   0.036   1.793 -0.8326 -0.3019 -0.6768
13787TIP3    H162852   1.376   0.081   1.709  0.1725  0.6350 -0.1172
13787TIP3    H262853   1.459   0.036   1.827 -1.1401 -1.1329  0.1598
13788TIP3   OH262854   4.801   4.569  13.256  0.2520 -0.2967 -0.2005
13788TIP3    H162855   4.706   4.565  13.260  0.2437  0.6193  0.9720
13788TIP3    H262856   4.823   4.541  13.168 -1.2449  1.5681 -1.1962
13789TIP3   OH262857   4.157   6.575   1.002  0.2604 -0.5419 -0.0707
13789TIP3    H162858   4.122   6.489   0.976 -1.2362  0.0471 -0.0609
13789TIP3    H262859   4.158   6.572   1.098  2.8376 -1.5641 -0.1085
13790TIP3   OH262860   6.071   5.932   3.891  0.9574  0.4337  0.0106
13790TIP3    H162861   6.041   5.987   3.819  3.3091  0.0452 -1.3181
13790TIP3    H262862   6.151   5.974   3.922  2.3474 -1.7161 -0.4898
13791TIP3   OH262863   5.816   3.804  15.714 -0.0209 -0.0548 -0.0009
13791TIP3    H162864   5.874   3.810  15.790 -0.6570 -0.1286  0.4868
13791TIP3    H262865   5.774   3.719  15.721  0.4032 -0.3358 -0.7875
13792TIP3   OH262866   6.257   6.634   4.333 -0.2163  0.3025  0.2226
13792TIP3    H162867   6.249   6.595   4.420  2.0801 -1.2668 -0.2373
13792TIP3    H262868   6.241   6.562   4.272 -0.4187  1.0838 -0.6696
13793TIP3   OH262869   0.255   0.982  11.439  0.0915  0.0609 -0.2265
13793TIP3    H162870   0.276   0.894  11.408 -1.4021 -0.1820 -0.5932
13793TIP3    H262871   0.163   0.977  11.467  0.4226  1.1232  1.1489
13794TIP3   OH262872   5.647   4.545  14.717 -0.6382 -0.1067 -0.2174
13794TIP3    H162873   5.567   4.504  14.685 -0.2522 -1.0685  0.0185
13794TIP3    H262874   5.711   4.473  14.722 -0.1657  0.3666  0.9237
13795TIP3   OH262875   3.306   6.046   5.343  0.3199 -0.0396  0.0939
13795TIP3    H162876   3.318   6.140   5.358  0.6215  0.0225 -0.5285
13795TIP3    H262877   3.269   6.013   5.425 -1.5780  0.9598 -0.3430
13796TIP3   OH262878   1.003   5.124   5.486 -0.0910  0.5516 -0.3027
13796TIP3    H162879   1.089   5.144   5.521  0.1321 -0.9159  0.0431
13796TIP3    H262880   1.013   5.039   5.443 -1.0021  1.0747 -1.6144
13797TIP3   OH262881   4.465   6.222  13.616 -0.2580  0.4148 -0.2871
13797TIP3    H162882   4.461   6.205  13.710  2.2237  0.5511 -0.1242
13797TIP3    H262883   4.507   6.308  13.609  1.7268 -0.6149 -1.5581
13798TIP3   OH262884   4.176   4.441   5.035 -0.2781 -0.3826  0.3857
13798TIP3    H162885   4.176   4.346   5.047 -1.8523 -0.7821 -2.1922
13798TIP3    H262886   4.089   4.468   5.065  0.7713  0.5129  2.6967
13799TIP3   OH262887   1.289   0.070  13.521 -0.3893 -0.3676  0.4070
13799TIP3    H162888   1.317   0.109  13.603  1.1402 -0.4506 -0.0506
13799TIP3    H262889   1.371   0.051  13.474 -1.1882 -1.6436 -0.5125
13800TIP3   OH262890   4.724   1.920   4.132  0.2236 -0.0475  0.3269
13800TIP3    H162891   4.789   1.891   4.068 -0.8898 -1.5877 -0.1285
13800TIP3    H262892   4.640   1.897   4.094 -0.5665  1.2373  1.2603
13801TIP3   OH262893   5.004   3.211  14.110  0.1388 -0.0759 -0.6486
13801TIP3    H162894   5.054   3.231  14.189 -0.3545  2.6143 -0.9853
13801TIP3    H262895   4.914   3.235  14.132 -0.7231 -3.0581 -0.7079
13802TIP3   OH262896   6.642   5.184   1.934  0.3557 -0.2305 -0.6625
13802TIP3    H162897   6.577   5.194   2.003  1.0881  1.3425 -0.1753
13802TIP3    H262898   6.593   5.150   1.859 -1.0115  0.9065 -0.3005
13803TIP3   OH262899   2.477   3.859  14.884 -0.3307 -0.2159  0.2316
13803TIP3    H162900   2.496   3.941  14.838  2.6273  0.1166  1.9914
13803TIP3    H262901   2.421   3.886  14.957 -0.9408 -0.0614 -0.2805
13804TIP3   OH262902   0.426   1.760  14.333  0.0236  0.0576 -0.8362
13804TIP3    H162903   0.332   1.738  14.333  0.2195 -0.8756 -2.4349
13804TIP3    H262904   0.457   1.730  14.418 -0.6350 -2.0018 -1.2726
13805TIP3   OH262905   6.259   3.453   1.836  0.2604 -0.5836  0.1001
13805TIP3    H162906   6.188   3.425   1.779 -1.0974  0.3167  1.3134
13805TIP3    H262907   6.315   3.376   1.844 -0.2629 -1.1225 -1.3252
13806TIP3   OH262908   2.396   3.819  13.439 -0.1297 -0.1771 -0.6354
13806TIP3    H162909   2.369   3.732  13.412  0.7664  0.1448 -2.6543
13806TIP3    H262910   2.463   3.804  13.505  0.5105 -1.0276 -1.4653
13807TIP3   OH262911   5.872   5.192   0.996 -0.3615  0.0534 -0.2833
13807TIP3    H162912   5.862   5.257   1.066  1.2285  0.6665 -0.5877
13807TIP3    H262913   5.866   5.243   0.915 -0.8527 -0.4498 -0.5646
13808TIP3   OH262914   2.938   1.110  12.675 -0.5623 -0.1560  0.6937
13808TIP3    H162915   2.985   1.086  12.594 -1.0970  0.1462  0.2889
13808TIP3    H262916   2.957   1.203  12.686  0.0341 -0.3389  1.2759
13809TIP3   OH262917   0.294   6.355  13.835 -0.2039  0.1464 -0.0293
13809TIP3    H162918   0.360   6.424  13.834 -0.9257  0.8468 -1.3848
13809TIP3    H262919   0.342   6.276  13.861  0.9140  0.8864  0.1893
13810TIP3   OH262920   0.951   3.616   5.493 -0.2597 -0.4480 -0.2379
13810TIP3    H162921   1.002   3.576   5.563 -0.5584  0.1279  0.3190
13810TIP3    H262922   0.867   3.639   5.534 -1.0115 -1.4807 -1.1733
13811TIP3   OH262923   0.894   1.117   2.066  0.4219 -0.3981  0.1141
13811TIP3    H162924   0.903   1.030   2.105  0.4863 -0.2367  0.4612
13811TIP3    H262925   0.804   1.119   2.033  0.5601 -0.7548 -0.2859
13812TIP3   OH262926   0.120   3.204  13.984 -0.8575 -0.0704 -0.7457
13812TIP3    H162927   0.175   3.143  14.034  0.5998  1.3156 -0.6309
13812TIP3    H262928   0.031   3.184  14.011 -0.6557 -3.8893 -2.5552
13813TIP3   OH262929   1.058   6.494  13.041  0.3794  0.1724  0.3691
13813TIP3    H162930   0.965   6.516  13.043  0.1764 -0.7025  1.5718
13813TIP3    H262931   1.067   6.421  13.104  1.5796 -0.8981 -0.9956
13814TIP3   OH262932   5.800   0.225  11.551  0.3217 -0.0350  0.0899
13814TIP3    H162933   5.744   0.161  11.595 -0.5821  0.6160 -0.0919
13814TIP3    H262934   5.887   0.209  11.586 -0.2248 -0.1316  1.4209
13815TIP3   OH262935   1.588   1.612  16.269  0.1504 -0.1273 -0.2348
13815TIP3    H162936   1.558   1.528  16.234  0.3535 -0.1577 -0.3369
13815TIP3    H262937   1.662   1.637  16.213  2.6792 -1.8186  2.1999
13816TIP3   OH262938   2.089   3.987  14.187 -0.2746 -0.2629 -0.4766
13816TIP3    H162939   2.002   4.017  14.212  0.6783  1.6947  0.6058
13816TIP3    H262940   2.075   3.898  14.154 -2.6737  0.0524 -0.3944
13817TIP3   OH262941   3.723   0.707   0.984  0.2371  0.2263  0.0230
13817TIP3    H162942   3.762   0.620   0.993 -0.2989 -0.0456 -0.2995
13817TIP3    H262943   3.632   0.696   1.010  0.3722  0.8729  0.7944
13818TIP3   OH262944   6.759   1.999  11.287 -0.1365  0.2389  0.2668
13818TIP3    H162945   6.711   1.918  11.306  0.6762  0.2826  2.6840
13818TIP3    H262946   6.695   2.069  11.296  0.0691  0.1877  2.1491
13819TIP3   OH262947   1.273   6.359   3.108  0.0693 -0.0021  0.3743
13819TIP3    H162948   1.219   6.406   3.171  1.7595  0.2540  1.6709
13819TIP3    H262949   1.243   6.268   3.116 -0.6403  0.2399  0.5709
13820TIP3   OH262950   3.252   5.562   1.820 -0.0320 -0.3278  0.1058
13820TIP3    H162951   3.340   5.564   1.783 -1.3198  2.2945 -3.0330
13820TIP3    H262952   3.209   5.488   1.776 -0.9267  1.5292 -2.2194
13821TIP3   OH262953   3.220   2.861   0.087  0.1931  0.2509 -0.3103
13821TIP3    H162954   3.279   2.932   0.062 -0.1139  0.0738 -1.6025
13821TIP3    H262955   3.278   2.788   0.110  0.5039  0.8550  0.8557
13822TIP3   OH262956   2.003   2.711   4.629  0.2076 -0.4906 -0.1271
13822TIP3    H162957   1.977   2.790   4.675  0.7897 -0.8577  0.8558
13822TIP3    H262958   1.931   2.694   4.568 -0.2383  0.4039  0.1356
13823TIP3   OH262959   1.227   2.545  15.899  0.3652 -0.5170 -0.0605
13823TIP3    H162960   1.220   2.635  15.869 -0.7613 -0.6696 -0.2876
13823TIP3    H262961   1.186   2.545  15.985  1.9084 -0.4662  0.6914
13824TIP3   OH262962   0.828   1.358   5.403  0.7718  0.6926 -0.0668
13824TIP3    H162963   0.893   1.294   5.374  1.0225  1.3100 -0.8725
13824TIP3    H262964   0.812   1.413   5.326 -0.5073  0.7155  0.1978
13825TIP3   OH262965   0.356   3.532  12.276  0.2536 -0.6589 -0.0509
13825TIP3    H162966   0.339   3.564  12.364 -0.4082  1.4678 -0.9203
13825TIP3    H262967   0.399   3.447  12.289 -0.9168 -0.9273  2.2808
13826TIP3   OH262968   5.927   6.219   7.058  0.3506  0.1403  0.1363
13826TIP3    H162969   5.887   6.277   6.994 -1.0968 -1.0596 -0.0772
13826TIP3    H262970   6.000   6.178   7.011  0.3378  0.5307 -0.2228
13827TIP3   OH262971   1.496   0.278  12.287 -0.2532 -0.5399 -0.2548
13827TIP3    H162972   1.516   0.367  12.258 -0.9877 -0.4509 -0.5035
13827TIP3    H262973   1.492   0.284  12.383 -0.5774 -0.2451 -0.2873
13828TIP3   OH262974   0.698   3.202  12.116 -0.3187  0.4141 -0.2161
13828TIP3    H162975   0.672   3.166  12.201 -2.6680 -0.5933 -1.3089
13828TIP3    H262976   0.615   3.214  12.069  0.9525  0.8981 -2.3827
13829TIP3   OH262977   5.367   0.296   2.298 -0.3032 -0.3143 -0.2668
13829TIP3    H162978   5.456   0.283   2.265 -0.6347 -2.1980 -0.4597
13829TIP3    H262979   5.379   0.349   2.377  0.8888  0.3659 -0.8899
13830TIP3   OH262980   3.377   6.226  15.346  0.1690  0.1227  0.4911
13830TIP3    H162981   3.415   6.190  15.265  0.9725  0.5032  0.6882
13830TIP3    H262982   3.322   6.299  15.316  0.3916  0.2052  0.2740
13831TIP3   OH262983   5.904   4.374   0.352  0.3307  0.2372 -0.1445
13831TIP3    H162984   5.816   4.341   0.365 -0.3053  2.1229  0.4390
13831TIP3    H262985   5.953   4.345   0.429 -0.2735  0.8309  0.4627
13832TIP3   OH262986   4.379   6.684   4.765 -0.0915 -0.0956  0.6888
13832TIP3    H162987   4.363   6.753   4.829  1.4597  0.9341 -0.0161
13832TIP3    H262988   4.463   6.706   4.726 -0.2774 -1.5769 -0.5931
13833TIP3   OH262989   4.800   1.865  13.007  0.1443  0.1893 -0.1723
13833TIP3    H162990   4.895   1.854  13.004  0.1635  0.0238  0.8556
13833TIP3    H262991   4.769   1.831  12.923  0.7733 -1.8843  0.4228
13834TIP3   OH262992   5.922   2.044  16.936  0.1518  0.0266  0.1661
13834TIP3    H162993   5.895   1.971  16.879  1.0045 -0.7213  0.7046
13834TIP3    H262994   6.005   2.015  16.975  1.4701  2.0648 -1.0454
13835TIP3   OH262995   1.702   3.867  17.117  0.3696 -0.0991 -0.2217
13835TIP3    H162996   1.733   3.778  17.134  1.6930 -0.0610 -2.2505
13835TIP3    H262997   1.652   3.859  17.036 -0.8794  0.7331  0.4556
13836TIP3   OH262998   3.579   6.613   1.989 -0.1867  0.1873  0.0907
13836TIP3    H162999   3.646   6.615   1.920  0.3443  1.5349  0.6429
13836TIP3    H263000   3.629   6.619   2.071 -0.9959  1.4759  0.4957
13837TIP3   OH263001   2.907   0.710   4.721  0.1655 -0.2165  0.2605
13837TIP3    H163002   2.916   0.794   4.767 -2.1049 -0.8669  1.9813
13837TIP3    H263003   2.985   0.660   4.746  0.7273  0.7706  0.4978
13838TIP3   OH263004   1.518   1.974   1.700 -0.2879  0.1086 -0.2552
13838TIP3    H163005   1.454   1.905   1.686  1.2149 -1.0536 -1.5546
13838TIP3    H263006   1.598   1.928   1.725  0.4232  1.4455 -0.0310
13839TIP3   OH263007   5.644   1.854   0.426  0.2208 -0.4573  0.2148
13839TIP3    H163008   5.552   1.881   0.431  0.9885  2.4803 -0.6650
13839TIP3    H263009   5.654   1.822   0.336  0.0519 -0.7946  0.3157
13840TIP3   OH263010   0.464   3.473  11.351  0.5157 -0.1612 -0.1451
13840TIP3    H163011   0.451   3.421  11.272  0.3907  2.6531 -2.0494
13840TIP3    H263012   0.427   3.419  11.421  0.7555 -2.7750 -1.9553
13841TIP3   OH263013   6.339   5.042   0.574  0.4199  0.2299  0.0964
13841TIP3    H163014   6.323   5.017   0.665 -0.8105  0.9319  0.0871
13841TIP3    H263015   6.343   4.959   0.527  0.3540 -0.1109  0.6891
13842TIP3   OH263016   4.280   2.604  16.948  0.1433 -0.1988  0.1585
13842TIP3    H163017   4.282   2.621  16.854  4.4023 -0.0440  0.2043
13842TIP3    H263018   4.352   2.656  16.984 -0.7019 -1.1187  3.3697
13843TIP3   OH263019   1.027   4.443  10.642 -0.4859  0.1027 -0.2085
13843TIP3    H163020   0.993   4.485  10.721 -1.0405  1.2895 -1.0699
13843TIP3    H263021   1.036   4.514  10.579 -1.4962 -1.0821 -1.7222
13844TIP3   OH263022   6.221   3.473  11.029 -0.1698  0.6984 -0.0785
13844TIP3    H163023   6.167   3.527  11.086  1.0173  1.2242  0.5783
13844TIP3    H263024   6.285   3.533  10.991  1.0675 -0.1698  0.5428
13845TIP3   OH263025   1.896   5.032  15.924 -0.0647 -0.2328 -0.5469
13845TIP3    H163026   1.881   5.115  15.969  1.9759  0.1311 -0.5248
13845TIP3    H263027   1.927   4.972  15.992  0.7447 -0.3512 -1.0154
13846TIP3   OH263028   4.212   1.182  13.999  0.3246  0.3621  0.1741
13846TIP3    H163029   4.244   1.270  13.978  0.2352  0.4607  0.4590
13846TIP3    H263030   4.186   1.145  13.914 -1.1708  1.2116  0.2378
13847TIP3   OH263031   4.638   2.974   4.070 -0.1452  0.1758  0.3644
13847TIP3    H163032   4.604   2.931   4.149 -0.2155  0.4767  0.4999
13847TIP3    H263033   4.709   2.917   4.041 -0.3689 -0.1355  0.4290
13848TIP3   OH263034   6.251   2.802  13.628 -0.7368 -0.0288 -0.4214
13848TIP3    H163035   6.289   2.753  13.556  1.3761  1.6291 -0.4725
13848TIP3    H263036   6.235   2.890  13.592 -1.0062  0.4002  0.7083
13849TIP3   OH263037   2.441   2.988  11.833  0.3247 -0.7132 -0.2518
13849TIP3    H163038   2.385   2.933  11.777 -0.0592  0.0272 -0.5975
13849TIP3    H263039   2.506   3.024  11.773 -1.0842  1.4120 -0.5488
13850TIP3   OH263040   1.612   1.619   2.152 -0.1660 -0.4635 -0.1132
13850TIP3    H163041   1.680   1.618   2.085 -0.7337 -3.1887 -0.7129
13850TIP3    H263042   1.532   1.595   2.105 -0.7247 -1.5788  1.3515
13851TIP3   OH263043   3.246   6.774   4.000 -0.0943  0.0564  0.2382
13851TIP3    H163044   3.230   6.776   4.094 -2.4473 -2.2055 -0.0682
13851TIP3    H263045   3.241   6.866   3.973 -2.2734  0.4562  1.8876
13852TIP3   OH263046   3.413   0.075  13.842  0.1937  0.1379  0.1645
13852TIP3    H163047   3.496   0.122  13.853  1.2279 -1.5029 -0.4634
13852TIP3    H263048   3.373   0.114  13.765 -0.6947  2.4696  1.7679
13853TIP3   OH263049   6.227   2.770   3.240 -0.0854  0.0677  0.3913
13853TIP3    H163050   6.172   2.806   3.310 -1.0240  0.9022 -0.7489
13853TIP3    H263051   6.293   2.719   3.286 -0.3426  1.0604  1.9298
13854TIP3   OH263052   4.132   2.369   3.854  0.1471 -0.5639  0.5061
13854TIP3    H163053   4.096   2.425   3.923 -1.0699 -0.5999 -0.0871
13854TIP3    H263054   4.188   2.307   3.900 -1.2260 -1.0490  1.5594
13855TIP3   OH263055   3.214   4.579   5.381 -0.4133 -0.0739  0.7537
13855TIP3    H163056   3.178   4.497   5.347  1.1858 -1.6794  2.7843
13855TIP3    H263057   3.147   4.644   5.362 -2.1281 -2.0140 -0.0879
13856TIP3   OH263058   2.171   1.836   5.780 -0.3398 -0.3348 -0.0445
13856TIP3    H163059   2.177   1.761   5.721 -0.2568 -1.2926  1.1461
13856TIP3    H263060   2.240   1.895   5.752 -1.0086 -0.2578 -1.5954
13857TIP3   OH263061   0.973   0.584   4.985  0.9011 -0.0964 -0.1747
13857TIP3    H163062   0.995   0.665   4.940 -0.6910  0.7781  0.5938
13857TIP3    H263063   1.047   0.568   5.043  0.9489  1.1164  0.1036
13858TIP3   OH263064   5.539   5.314  15.480  0.4655  0.4058  0.7096
13858TIP3    H163065   5.492   5.354  15.407  0.2590 -2.3372 -0.7241
13858TIP3    H263066   5.474   5.258  15.523  1.6722 -1.3280  0.3440
13859TIP3   OH263067   5.351   1.410  17.012  0.2860 -0.5014  0.5643
13859TIP3    H163068   5.376   1.368  16.930 -0.6547 -1.8682  0.9647
13859TIP3    H263069   5.261   1.383  17.027  0.3934 -0.1391  1.9607
13860TIP3   OH263070   6.082   6.194   0.981  0.3154  0.2401  0.7369
13860TIP3    H163071   6.067   6.254   0.908 -1.5299 -0.9615  0.0967
13860TIP3    H263072   6.155   6.139   0.952  0.7004  0.8593  0.5115
13861TIP3   OH263073   2.169   0.135  12.731  0.1663  0.5512  0.0329
13861TIP3    H163074   2.156   0.201  12.663 -3.0418  0.7263  0.7495
13861TIP3    H263075   2.135   0.175  12.810  1.0172 -0.8282  1.1165
13862TIP3   OH263076   1.099   6.253  15.226  0.1331 -0.4430 -0.1615
13862TIP3    H163077   1.183   6.214  15.200  0.3193 -0.4146  0.3774
13862TIP3    H263078   1.042   6.178  15.245  0.1189 -0.4618 -0.2803
13863TIP3   OH263079   0.650   2.069  11.330 -0.5361  0.1539 -0.2604
13863TIP3    H163080   0.655   1.978  11.357  0.7049  0.4131  0.4487
13863TIP3    H263081   0.683   2.070  11.240 -1.2140 -0.1918 -0.5127
13864TIP3   OH263082   2.895   2.815   5.777 -0.2842  0.3228 -0.7462
13864TIP3    H163083   2.833   2.888   5.770  0.6828  1.3686  1.3658
13864TIP3    H263084   2.858   2.758   5.843  0.6922  0.6474  0.0886
13865TIP3   OH263085   2.462   4.711  17.031 -0.3971 -0.2721 -0.1709
13865TIP3    H163086   2.488   4.631  17.076 -1.4393 -1.4929 -1.6791
13865TIP3    H263087   2.539   4.737  16.981 -0.0940 -0.3938  0.2299
13866TIP3   OH263088   0.290   4.081   2.987  0.1065  0.3302  0.0130
13866TIP3    H163089   0.323   4.159   2.943 -0.3100  0.6580  0.2780
13866TIP3    H263090   0.333   4.081   3.072  0.5134 -0.0188 -0.1943
13867TIP3   OH263091   5.953   3.691   3.933  0.2450 -0.1829 -0.0700
13867TIP3    H163092   5.951   3.786   3.927 -0.2652 -0.1745  0.2234
13867TIP3    H263093   5.960   3.661   3.842  0.0463  0.1266 -0.1854
13868TIP3   OH263094   3.475   6.455  14.127  0.8396 -0.2981  0.0077
13868TIP3    H163095   3.435   6.536  14.096 -1.5467 -1.2405  0.5080
13868TIP3    H263096   3.470   6.460  14.222  1.9662 -0.4311  0.0858
13869TIP3   OH263097   0.041   5.251   3.571 -0.0709 -0.0077 -0.1018
13869TIP3    H163098   0.011   5.251   3.662 -0.5962  0.2214 -0.2747
13869TIP3    H263099   0.102   5.177   3.566  0.1237  0.1134  0.4896
13870TIP3   OH263100   0.231   5.590  13.952  0.2647  0.0851 -0.7966
13870TIP3    H163101   0.264   5.550  13.872  0.6192  1.0526 -1.1395
13870TIP3    H263102   0.262   5.680  13.948  1.2923 -0.1534  0.9749
13871TIP3   OH263103   2.827   4.048  16.899  0.2494  0.4108 -0.5165
13871TIP3    H163104   2.736   4.044  16.926  0.7394  0.5113  1.2299
13871TIP3    H263105   2.858   4.132  16.933  1.6609 -0.7463  1.1691
13872TIP3   OH263106   4.740   6.775   5.984 -0.2753 -0.6352 -0.5997
13872TIP3    H163107   4.662   6.749   6.033  0.4298  1.1499  1.5723
13872TIP3    H263108   4.721   6.752   5.893 -2.9034 -1.1386  0.0479
13873TIP3   OH263109   2.439   1.565   3.539  0.0696  0.0603 -0.4378
13873TIP3    H163110   2.501   1.538   3.472  0.3873 -0.5190  0.0783
13873TIP3    H263111   2.474   1.529   3.620 -1.4053 -1.0285 -0.2648
13874TIP3   OH263112   0.373   5.157  11.534  0.2404  0.2282 -0.1775
13874TIP3    H163113   0.336   5.240  11.504  1.1426  0.9359  0.6379
13874TIP3    H263114   0.463   5.158  11.500  0.4385 -0.1514  0.3344
13875TIP3   OH263115   0.931   1.438  14.958 -0.2829  0.6593 -0.0448
13875TIP3    H163116   0.921   1.353  14.916  2.0581  0.5255 -0.3874
13875TIP3    H263117   0.878   1.433  15.038  0.1464 -1.2521  0.1257
13876TIP3   OH263118   2.433   5.487   1.056 -0.1448 -1.0216 -0.3187
13876TIP3    H163119   2.493   5.432   1.006 -1.5030 -0.7080 -2.3355
13876TIP3    H263120   2.444   5.574   1.019  0.6100 -0.2878  1.5945
13877TIP3   OH263121   1.753   1.522  15.290  0.1539  0.0772 -0.2746
13877TIP3    H163122   1.664   1.528  15.255  0.4167 -1.2607 -1.1702
13877TIP3    H263123   1.788   1.441  15.254  1.8844  0.7992 -0.2381
13878TIP3   OH263124   1.766   3.410  12.909  0.1649  0.0210  0.6257
13878TIP3    H163125   1.829   3.482  12.906  1.3328 -1.0244 -0.7778
13878TIP3    H263126   1.817   3.336  12.941 -0.7223 -0.4990  0.8552
13879TIP3   OH263127   4.718   3.262  12.060 -0.3603 -0.7176 -0.1233
13879TIP3    H163128   4.699   3.354  12.046  0.9385 -0.4049  0.0959
13879TIP3    H263129   4.710   3.250  12.155 -0.4323 -0.8016 -0.1409
13880TIP3   OH263130   6.136   6.448  11.361 -0.3970  0.1702  0.5793
13880TIP3    H163131   6.210   6.388  11.367 -0.4976  0.1713  2.0655
13880TIP3    H263132   6.073   6.404  11.304  0.1662 -0.4416  0.4237
13881TIP3   OH263133   3.971   0.100   0.573 -0.1689  0.7518 -0.3793
13881TIP3    H163134   3.967   0.099   0.477 -0.9385  0.3310 -0.3459
13881TIP3    H263135   4.063   0.084   0.593 -0.0043  0.8226 -1.0467
13882TIP3   OH263136   0.751   4.195  14.477  0.1863 -0.2414  0.5947
13882TIP3    H163137   0.788   4.185  14.389  0.7738  0.0807  0.8050
13882TIP3    H263138   0.696   4.117  14.489  0.1707 -0.3286 -0.0197
13883TIP3   OH263139   4.275   5.788   3.913  0.2571 -0.1067 -0.0768
13883TIP3    H163140   4.227   5.860   3.955  0.3903 -0.4609  0.6957
13883TIP3    H263141   4.210   5.719   3.901 -0.3575  0.8573 -2.6649
13884TIP3   OH263142   4.612   1.839   5.278  0.7740  0.3135  0.1839
13884TIP3    H163143   4.573   1.815   5.362  0.2899  1.4102  0.2785
13884TIP3    H263144   4.570   1.781   5.215  1.5414 -0.9042  0.7559
13885TIP3   OH263145   1.642   2.815  15.113 -0.3113 -0.3505  0.6093
13885TIP3    H163146   1.614   2.901  15.146  0.0736  0.0244 -0.0355
13885TIP3    H263147   1.630   2.821  15.018 -0.8085 -1.2032  0.6142
13886TIP3   OH263148   6.101   3.716   6.078 -0.7075  0.4824 -0.3452
13886TIP3    H163149   6.193   3.730   6.103 -0.7318 -0.3356  0.2518
13886TIP3    H263150   6.062   3.803   6.076 -0.3555  0.6843  1.1453
13887TIP3   OH263151   1.808   3.740   0.763  0.5981  0.8920 -0.1771
13887TIP3    H163152   1.794   3.833   0.781  0.5812  0.5262  1.7644
13887TIP3    H263153   1.828   3.702   0.848  3.0005 -0.4799 -1.3253
13888TIP3   OH263154   3.938   2.717   5.087  0.0761 -0.7463  0.1668
13888TIP3    H163155   3.941   2.812   5.085  0.2393 -0.7403  0.6101
13888TIP3    H263156   3.853   2.694   5.048 -0.0669 -0.4126  0.2847
13889TIP3   OH263157   6.063   4.043  10.890 -0.4541  0.2887  1.1259
13889TIP3    H163158   6.029   3.988  10.960 -0.1524 -1.2927  0.0472
13889TIP3    H263159   6.001   4.033  10.818 -0.3068  1.2347  0.8499
13890TIP3   OH263160   4.121   0.902  11.870 -0.0582  0.1943  0.1582
13890TIP3    H163161   4.118   0.971  11.804 -0.8399 -0.5842 -0.6382
13890TIP3    H263162   4.029   0.880  11.885  0.2535 -2.8445 -1.9173
13891TIP3   OH263163   0.821   1.587   1.150  0.3597  0.6051 -0.2699
13891TIP3    H163164   0.777   1.510   1.186 -1.4965  1.5748 -0.3472
13891TIP3    H263165   0.889   1.552   1.093  1.2754 -0.9525  1.7247
13892TIP3   OH263166   2.694   0.581   3.536  0.0991  0.0504  0.0392
13892TIP3    H163167   2.680   0.624   3.620  2.3760 -0.4071  0.6762
13892TIP3    H263168   2.663   0.491   3.550  0.2539  0.0396  0.3037
13893TIP3   OH263169   3.305   3.052  15.713  0.7088 -0.4444 -0.0265
13893TIP3    H163170   3.269   3.095  15.636  0.0779 -0.2820  0.3564
13893TIP3    H263171   3.292   2.958  15.696 -1.9921 -0.3224  1.1073
13894TIP3   OH263172   6.311   6.810  13.913  0.1577  0.2641 -0.3702
13894TIP3    H163173   6.281   6.862  13.987 -1.1457  1.5290 -1.7505
13894TIP3    H263174   6.283   6.721  13.934 -1.5508  0.8554 -0.0068
13895TIP3   OH263175   1.557   0.970  13.295 -0.0291 -0.4288  0.0892
13895TIP3    H163176   1.528   0.890  13.339  0.5690 -0.1803  0.9423
13895TIP3    H263177   1.515   0.966  13.209 -0.3174 -1.4674  0.2665
13896TIP3   OH263178   1.559   1.934  13.038 -0.5646 -0.1648 -0.1091
13896TIP3    H163179   1.506   1.874  13.091  0.0577 -0.4542  0.1837
13896TIP3    H263180   1.628   1.964  13.097 -0.8166  0.7605 -0.2870
13897TIP3   OH263181   2.183   3.939   0.453  0.2490  0.4536 -0.4956
13897TIP3    H163182   2.180   4.034   0.448  0.4459  0.5011  0.2459
13897TIP3    H263183   2.275   3.918   0.467  0.2125  0.1503 -0.6990
13898TIP3   OH263184   4.964   5.294  16.758  0.2556 -0.2468  0.0760
13898TIP3    H163185   4.908   5.366  16.788 -0.2718 -1.6272  2.5100
13898TIP3    H263186   5.027   5.336  16.699 -1.2426  1.8787 -0.0569
13899TIP3   OH263187   5.275   2.352  13.445  0.2643 -0.0112  0.0939
13899TIP3    H163188   5.246   2.430  13.400 -0.6433 -0.5831 -0.3220
13899TIP3    H263189   5.330   2.306  13.381  1.0523  0.4401  0.4445
13900TIP3   OH263190   4.847   2.038  14.411 -0.0566 -0.2902  0.1590
13900TIP3    H163191   4.814   1.955  14.446 -0.8208 -0.5443 -1.1251
13900TIP3    H263192   4.886   2.082  14.486 -0.1974 -1.5391  0.9863
13901TIP3   OH263193   2.286   0.477  15.190  0.2136  0.3302  0.0527
13901TIP3    H163194   2.380   0.463  15.180  0.1438 -1.8346  2.1149
13901TIP3    H263195   2.277   0.526  15.271 -0.4849 -0.1563  0.2696
13902TIP3   OH263196   5.626   1.305  12.810  0.0116  0.1880 -0.0406
13902TIP3    H163197   5.584   1.390  12.819  0.7831  0.4029  1.9614
13902TIP3    H263198   5.706   1.322  12.760  1.0643  1.0077  1.8482
13903TIP3   OH263199   0.750   2.952   0.851  0.0088  0.2650 -0.4237
13903TIP3    H163200   0.671   2.937   0.903 -0.8138 -0.9746 -2.0062
13903TIP3    H263201   0.820   2.965   0.916 -1.3918  0.9144  0.9746
13904TIP3   OH263202   2.111   6.017  12.711  0.1626 -0.4791 -0.6457
13904TIP3    H163203   2.018   5.995  12.718  0.5833 -1.6210  1.9785
13904TIP3    H263204   2.154   5.934  12.693  0.7002  0.0390 -1.8050
13905TIP3   OH263205   4.864   2.888  12.419  0.5212  0.3962  0.1567
13905TIP3    H163206   4.843   2.858  12.330 -0.0084 -0.4739  0.5663
13905TIP3    H263207   4.785   2.935  12.447  1.3241  2.1535 -0.4617
13906TIP3   OH263208   5.698   3.061   5.756 -0.6404  0.2118 -0.2796
13906TIP3    H163209   5.710   2.967   5.772  0.2091 -0.1822 -2.8340
13906TIP3    H263210   5.666   3.096   5.838  1.6398 -1.8628  1.5949
13907TIP3   OH263211   5.069   1.904  14.278 -0.7033  0.0708  0.2697
13907TIP3    H163212   5.001   1.947  14.330 -2.1806 -0.5048 -1.1624
13907TIP3    H263213   5.149   1.953  14.299 -1.9987  2.3609  0.1169
13908TIP3   OH263214   5.842   1.612   5.733  0.1384  0.1749 -0.3090
13908TIP3    H163215   5.869   1.561   5.657 -0.9899  0.3547 -0.8374
13908TIP3    H263216   5.877   1.563   5.808 -2.1840 -2.2399 -0.6935
13909TIP3   OH263217   0.367   5.182   4.501  0.0481 -0.1117  0.2833
13909TIP3    H163218   0.351   5.088   4.511 -1.3958  0.2213  1.3512
13909TIP3    H263219   0.454   5.188   4.463 -0.0088 -1.8998 -0.1821
13910TIP3   OH263220   3.086   2.052   2.998 -0.3871 -0.4470  0.2256
13910TIP3    H163221   3.113   1.971   3.042  3.1150  0.6927  0.3534
13910TIP3    H263222   3.148   2.062   2.926 -1.1509  1.7890 -0.1580
13911TIP3   OH263223   4.921   4.241  15.856  0.0659  0.4168  0.2510
13911TIP3    H163224   4.872   4.294  15.793 -1.2917  0.3243  1.1943
13911TIP3    H263225   5.010   4.275  15.853 -0.5000  1.9164 -0.0753
13912TIP3   OH263226   5.561   5.512   1.596 -0.2969  0.0323  0.1822
13912TIP3    H163227   5.593   5.460   1.670  0.2627  0.2326  0.0878
13912TIP3    H263228   5.550   5.600   1.632  0.1316  0.1667 -0.0083
13913TIP3   OH263229   5.355   3.930   3.009 -0.2641 -0.0288 -0.0885
13913TIP3    H163230   5.425   3.961   2.951  0.5928 -1.8979 -0.1020
13913TIP3    H263231   5.340   3.840   2.982 -0.2873 -0.7353  2.1786
13914TIP3   OH263232   4.165   1.586  15.320 -0.2185  0.5779 -0.1955
13914TIP3    H163233   4.260   1.598  15.322 -0.0887 -0.3306 -0.6028
13914TIP3    H263234   4.152   1.494  15.346 -0.9065  0.3569 -1.3040
13915TIP3   OH263235   6.713   4.890  15.588  0.0425 -0.4465 -0.5246
13915TIP3    H163236   6.783   4.939  15.545  1.5740 -0.9705  1.3329
13915TIP3    H263237   6.758   4.825  15.641 -1.8125 -0.0539  1.5993
13916TIP3   OH263238   6.418   0.154   0.174  0.8401 -0.0960  0.2036
13916TIP3    H163239   6.380   0.205   0.246 -3.1847  0.8404 -2.3983
13916TIP3    H263240   6.508   0.184   0.168  0.7222  1.1758  3.6051
13917TIP3   OH263241   4.566   3.361  11.663  0.0792 -0.3361  0.4416
13917TIP3    H163242   4.556   3.409  11.745 -1.0599  0.1450  0.0308
13917TIP3    H263243   4.660   3.366  11.643  0.1732  0.5736  1.0831
13918TIP3   OH263244   1.433   5.057   3.159  0.6816  0.4067 -0.3813
13918TIP3    H163245   1.417   5.075   3.066  0.1087 -0.3960 -0.4391
13918TIP3    H263246   1.498   4.987   3.159 -0.5243 -0.7325 -0.2014
13919TIP3   OH263247   4.488   5.645   5.944 -0.5506 -0.0730  0.6840
13919TIP3    H163248   4.490   5.555   5.910  1.9346  0.4058 -0.5110
13919TIP3    H263249   4.491   5.634   6.040 -3.1053 -1.2988  0.6719
13920TIP3   OH263250   1.488   0.602   1.583 -1.1256 -0.3200  0.0479
13920TIP3    H163251   1.506   0.680   1.636  0.7097  0.3423 -1.4834
13920TIP3    H263252   1.421   0.630   1.521 -0.3267  0.1473 -0.6329
13921TIP3   OH263253   5.015   6.473  16.027 -0.0066  0.0494 -0.0838
13921TIP3    H163254   5.044   6.428  16.106 -1.8422  0.4477  0.8387
13921TIP3    H263255   5.083   6.453  15.962  1.4840 -0.3500  1.5498
13922TIP3   OH263256   2.127   4.634   0.790 -0.4300 -0.3057 -0.2251
13922TIP3    H163257   2.037   4.622   0.820 -0.7683  2.1842 -0.1543
13922TIP3    H263258   2.144   4.728   0.799  2.0998 -0.6878 -0.4770
13923TIP3   OH263259   0.590   2.023  12.624 -0.6172 -0.6292 -0.2516
13923TIP3    H163260   0.645   2.066  12.558 -2.0607 -0.0582 -1.0901
13923TIP3    H263261   0.649   1.959  12.665  0.2308 -1.2063 -2.2906
13924TIP3   OH263262   5.965   2.235  11.814 -0.4826  0.2220 -0.2695
13924TIP3    H163263   5.872   2.213  11.804 -0.8845  0.8079  1.8999
13924TIP3    H263264   5.969   2.286  11.895  1.7806 -0.0310 -0.1920
13925TIP3   OH263265   3.614   6.361   2.763  0.2882  0.5976 -0.5584
13925TIP3    H163266   3.564   6.324   2.836 -0.0081 -0.2710 -1.1895
13925TIP3    H263267   3.690   6.401   2.804  1.7192 -2.5334  0.0089
13926TIP3   OH263268   5.711   1.993  13.610 -0.5791  0.1339 -0.2605
13926TIP3    H163269   5.645   2.036  13.665 -1.4565 -1.1165 -0.3099
13926TIP3    H263270   5.756   2.065  13.566 -1.6508  1.0344  0.0875
13927TIP3   OH263271   0.775   6.361   0.059 -0.6430 -0.1739 -0.0675
13927TIP3    H163272   0.682   6.339   0.056 -0.2467 -1.9787  0.4988
13927TIP3    H263273   0.813   6.321  -0.019 -0.0623 -0.8111  0.5356
13928TIP3   OH263274   0.913   3.055  10.136  0.5087  0.4369  0.5311
13928TIP3    H163275   0.953   2.968  10.136 -0.2490  0.0722 -0.5215
13928TIP3    H263276   0.829   3.042  10.181  0.7475  0.8028  1.0869
13929TIP3   OH263277   2.215   0.262   5.488  0.7716  0.2044 -0.3560
13929TIP3    H163278   2.148   0.282   5.422 -3.2723 -1.9516  2.8947
13929TIP3    H263279   2.237   0.170   5.472 -0.5553 -0.4644  1.4638
13930TIP3   OH263280   5.394   0.768  11.706  0.2615  0.4932 -0.0157
13930TIP3    H163281   5.481   0.805  11.701  0.6699 -0.5446 -0.7265
13930TIP3    H263282   5.367   0.783  11.797  0.4460  2.4124 -0.2646
13931TIP3   OH263283   2.286   6.128   3.450  0.7473  0.3543 -0.0275
13931TIP3    H163284   2.336   6.158   3.374 -1.2293  0.3483 -1.3822
13931TIP3    H263285   2.200   6.106   3.414 -0.8015  2.0632  2.5192
13932TIP3   OH263286   1.841   1.650   2.352  0.1906  0.1746  0.0161
13932TIP3    H163287   1.801   1.564   2.335  1.4923 -0.4339 -0.0451
13932TIP3    H263288   1.769   1.712   2.339 -0.3650 -0.7619 -1.6375
13933TIP3   OH263289   1.648   1.570  17.086 -0.3761  0.4947  0.3480
13933TIP3    H163290   1.735   1.596  17.058 -0.9657 -0.0233 -2.0382
13933TIP3    H263291   1.663   1.520  17.166  1.3954  1.3920  0.6103
13934TIP3   OH263292   3.774   6.363  16.566 -0.4146  0.6589 -0.2909
13934TIP3    H163293   3.841   6.429  16.549 -1.0689  1.3953 -0.0561
13934TIP3    H263294   3.741   6.384  16.654 -0.1213 -0.4235  0.0932
13935TIP3   OH263295   1.290   6.064   2.798 -0.2458  0.4488  0.6239
13935TIP3    H163296   1.383   6.056   2.776 -0.6155 -0.5326 -0.6387
13935TIP3    H263297   1.273   6.158   2.797  0.8714  0.6644  1.4433
13936TIP3   OH263298   3.784   6.752  13.303  0.8010  0.6114 -0.7226
13936TIP3    H163299   3.820   6.783  13.220 -1.2710  1.0134 -1.4867
13936TIP3    H263300   3.710   6.698  13.279 -0.0703  1.0499  0.8877
13937TIP3   OH263301   4.564   2.306  11.533 -0.4670  0.7036  0.0413
13937TIP3    H163302   4.475   2.334  11.511 -0.9432  0.4089  1.5509
13937TIP3    H263303   4.619   2.345  11.465 -1.8359  0.2009 -1.3977
13938TIP3   OH263304   0.703   3.346  13.321  0.3183  0.1003 -0.0072
13938TIP3    H163305   0.760   3.399  13.376  0.1865 -0.0570  0.2836
13938TIP3    H263306   0.758   3.273  13.293  0.5101  0.4077 -0.4385
13939TIP3   OH263307   6.797   0.053  16.053  0.1820 -0.0294 -0.0024
13939TIP3    H163308   6.759   0.134  16.087 -0.2644  0.9546 -2.7311
13939TIP3    H263309   6.880   0.080  16.014  0.9100 -1.2097  0.7025
13940TIP3   OH263310   0.502   5.473   0.468 -0.5236 -0.1375 -0.3137
13940TIP3    H163311   0.546   5.496   0.387 -0.0247  1.0241  0.2796
13940TIP3    H263312   0.539   5.532   0.533 -0.4537 -1.4745  0.8933
13941TIP3   OH263313   1.818   3.435   3.495 -0.1336 -0.2833  0.5326
13941TIP3    H163314   1.889   3.442   3.431 -1.3770  0.9640 -0.7379
13941TIP3    H263315   1.859   3.393   3.570  2.0127  0.5732 -0.0966
13942TIP3   OH263316   5.503   6.241   4.912 -0.0565  0.3496 -0.0413
13942TIP3    H163317   5.548   6.159   4.891  0.1150  0.6844 -1.0244
13942TIP3    H263318   5.413   6.227   4.880  0.3278  1.0349 -1.4686
13943TIP3   OH263319   3.090   6.252  17.203  0.2709 -0.6751  0.5542
13943TIP3    H163320   3.072   6.336  17.160 -1.3413 -0.3975  1.7201
13943TIP3    H263321   3.170   6.220  17.161  1.0817  1.5823  0.2820
13944TIP3   OH263322   5.035   0.185  11.234 -0.7043  0.5668  0.3407
13944TIP3    H163323   5.112   0.237  11.210  0.0705 -0.0577  1.4442
13944TIP3    H263324   4.978   0.190  11.157  0.8589  0.2369 -0.8668
13945TIP3   OH263325   6.210   1.329   4.968  0.1774 -0.2894  0.3821
13945TIP3    H163326   6.284   1.380   4.935 -0.0734 -0.8846 -1.1662
13945TIP3    H263327   6.245   1.283   5.044  0.7556  1.1823  1.0313
13946TIP3   OH263328   3.171   6.456  15.538  0.1517 -0.3845 -0.2954
13946TIP3    H163329   3.157   6.526  15.602 -1.4412  0.3832 -1.4369
13946TIP3    H263330   3.170   6.375  15.590 -0.8411  0.2483  0.6936
13947TIP3   OH263331   0.874   6.301   2.308  0.4298 -0.1801 -0.3708
13947TIP3    H163332   0.868   6.394   2.289 -0.0550 -0.0942  0.1904
13947TIP3    H263333   0.959   6.291   2.351 -1.2158  0.6809  3.2623
13948TIP3   OH263334   5.010   5.095  16.064  0.0467 -0.0220  0.4819
13948TIP3    H163335   5.090   5.071  16.016  1.8021  0.4581  3.0805
13948TIP3    H263336   4.944   5.032  16.033  1.2775 -0.1503 -2.0149
13949TIP3   OH263337   5.118   5.409   5.925  0.3492 -0.1731  0.0475
13949TIP3    H163338   5.175   5.393   6.001 -1.8788 -0.7059  1.6629
13949TIP3    H263339   5.041   5.451   5.962 -1.1954 -1.3189 -1.7863
13950TIP3   OH263340   5.522   5.324  16.725 -0.6600  0.4308 -0.1142
13950TIP3    H163341   5.459   5.280  16.668 -1.5865 -1.6038  2.3789
13950TIP3    H263342   5.602   5.273  16.716  0.1176  1.8647 -1.7752
13951TIP3   OH263343   3.611   1.606  14.672  0.1384 -0.3199  0.1700
13951TIP3    H163344   3.643   1.543  14.608  0.5277  0.1994 -0.1572
13951TIP3    H263345   3.599   1.687  14.622 -0.6070 -0.2061  0.5262
13952TIP3   OH263346   2.843   2.083  14.097 -0.6364 -0.0822  0.0043
13952TIP3    H163347   2.914   2.021  14.107 -1.0527 -0.7776 -1.2465
13952TIP3    H263348   2.840   2.101  14.003 -0.7384  1.5721  0.3051
13953TIP3   OH263349   2.253   6.439   2.748 -0.5526  0.1866 -0.3020
13953TIP3    H163350   2.188   6.403   2.808 -0.9651 -0.3041 -1.0397
13953TIP3    H263351   2.207   6.450   2.666  0.4795 -0.8766 -1.0465
13954TIP3   OH263352   6.565   3.372   1.378 -0.6106  0.2562  0.7425
13954TIP3    H163353   6.627   3.393   1.447  0.2046 -0.8631  0.3590
13954TIP3    H263354   6.520   3.293   1.410 -0.6255  0.0632  0.2451
13955TIP3   OH263355   6.335   0.785  12.511 -0.2040  0.0108  0.2946
13955TIP3    H163356   6.423   0.752  12.530  0.0650 -0.5662 -1.7979
13955TIP3    H263357   6.276   0.725  12.558  0.3933 -1.8130 -1.2227
13956TIP3   OH263358   2.945   4.387  14.859  0.0914  0.2817  0.5211
13956TIP3    H163359   2.901   4.399  14.943 -3.5509 -0.5907 -1.1544
13956TIP3    H263360   2.975   4.296  14.860  0.6868  0.4849  1.1619
13957TIP3   OH263361   6.767   3.029   4.061 -0.5572 -0.0635  0.2379
13957TIP3    H163362   6.680   3.025   4.101 -0.5800  0.5660  0.2607
13957TIP3    H263363   6.770   3.116   4.021 -0.2907 -0.4390 -0.5682
13958TIP3   OH263364   1.151   3.868   4.750  0.2204 -0.7216 -0.2454
13958TIP3    H163365   1.193   3.919   4.680 -0.4451 -0.5440 -0.5237
13958TIP3    H263366   1.151   3.926   4.826 -0.1308 -0.4681 -0.4365
13959TIP3   OH263367   0.135   4.572  13.968  0.4448  0.1423 -0.1506
13959TIP3    H163368   0.199   4.629  14.009  0.7445 -0.5430  0.3344
13959TIP3    H263369   0.060   4.572  14.028  1.2063 -1.5208  0.8217
13960TIP3   OH263370   2.842   1.844  11.837  0.2349  0.2054  0.4653
13960TIP3    H163371   2.814   1.899  11.764 -2.0001  1.4337  2.1731
13960TIP3    H263372   2.771   1.781  11.848  0.4007  0.2339  1.7747
13961TIP3   OH263373   6.717   0.620   6.755  0.8355  0.1714 -0.8216
13961TIP3    H163374   6.638   0.665   6.725  0.2367 -0.4948 -0.2504
13961TIP3    H263375   6.742   0.667   6.835  0.2889 -0.4013 -0.3023
13962TIP3   OH263376   2.693   4.601  10.288 -0.2389  0.2651  0.1020
13962TIP3    H163377   2.623   4.665  10.279 -0.8251 -0.3861 -0.0361
13962TIP3    H263378   2.773   4.650  10.270 -0.5201  1.3593  1.6846
13963TIP3   OH263379   4.115   4.279   0.617  0.4447 -0.0947 -0.5752
13963TIP3    H163380   4.085   4.370   0.614  0.9171  0.1690  2.0955
13963TIP3    H263381   4.073   4.242   0.694  0.9884 -1.9037 -1.1290
13964TIP3   OH263382   2.857   1.653   4.044  0.2832  0.3752  0.3521
13964TIP3    H163383   2.889   1.646   4.134  1.8504  1.4034 -0.1004
13964TIP3    H263384   2.769   1.689   4.053  0.0274 -0.5259  1.5282
13965TIP3   OH263385   2.321   5.160   5.628  0.0618  0.0287  0.1897
13965TIP3    H163386   2.229   5.161   5.656 -0.0009  1.2361 -0.0048
13965TIP3    H263387   2.359   5.237   5.672  0.6297  0.3316 -0.8352
13966TIP3   OH263388   2.290   2.533   1.522  0.1974 -0.2893 -0.8131
13966TIP3    H163389   2.278   2.441   1.542 -0.4696  0.0286  0.2960
13966TIP3    H263390   2.240   2.547   1.441  0.4475 -0.9303 -1.0821
13967TIP3   OH263391   5.905   0.487   2.611 -0.1336 -0.0203  0.9338
13967TIP3    H163392   5.887   0.449   2.696 -1.7466 -1.3325  0.0210
13967TIP3    H263393   5.976   0.550   2.628  0.1716 -0.8915  3.0562
13968TIP3   OH263394   1.102   0.662   4.081  0.0760 -1.0394  0.3108
13968TIP3    H163395   1.185   0.615   4.069  0.1426 -0.6033 -0.9679
13968TIP3    H263396   1.067   0.673   3.993  0.4559  1.9789  0.4607
13969TIP3   OH263397   3.561   3.502  14.814 -0.4175  0.3750  0.4871
13969TIP3    H163398   3.630   3.568  14.809  1.4385 -1.6378 -1.4934
13969TIP3    H263399   3.509   3.517  14.735  0.1655 -0.6828 -0.1014
13970TIP3   OH263400   0.671   3.133  12.976  0.0094 -0.6482 -0.1918
13970TIP3    H163401   0.679   3.096  12.888 -2.4110 -0.1561 -0.6617
13970TIP3    H263402   0.693   3.061  13.035 -0.7628 -1.7136 -1.1801
13971TIP3   OH263403   0.976   1.764  12.790  0.6658 -0.0675  0.0188
13971TIP3    H163404   1.054   1.817  12.806  0.9860 -0.5459  0.0446
13971TIP3    H263405   0.973   1.702  12.863  0.9689 -0.8770 -0.6523
13972TIP3   OH263406   5.069   6.291  14.451  0.7504 -0.2072  0.1584
13972TIP3    H163407   5.110   6.375  14.471  0.7445  0.1948 -1.5175
13972TIP3    H263408   5.114   6.260  14.372 -1.4224 -0.2813 -1.0685
13973TIP3   OH263409   5.801   4.098   0.590 -0.4570  0.3659  0.4534
13973TIP3    H163410   5.788   4.187   0.623  0.4256 -0.0259  1.8688
13973TIP3    H263411   5.789   4.042   0.666  2.9381 -0.4665  0.4307
13974TIP3   OH263412   3.699   1.718   3.079 -0.2115 -0.7163 -0.1004
13974TIP3    H163413   3.740   1.801   3.056  0.3468 -1.6679 -2.7244
13974TIP3    H263414   3.629   1.706   3.015  0.1167 -2.5423 -0.1651
13975TIP3   OH263415   0.212   6.215   1.730  0.2088 -0.2252 -0.6439
13975TIP3    H163416   0.243   6.164   1.655  0.8048 -2.1058  0.8297
13975TIP3    H263417   0.212   6.305   1.699  2.9932 -0.6499 -2.0755
13976TIP3   OH263418   2.385   6.505  11.868  0.0681  0.3357  0.0729
13976TIP3    H163419   2.444   6.556  11.813  0.7623  0.0243  0.5175
13976TIP3    H263420   2.403   6.414  11.845  0.3089  0.2071  0.7562
13977TIP3   OH263421   5.656   0.716   5.795  0.1056  0.4307 -0.2225
13977TIP3    H163422   5.604   0.738   5.872 -0.7250  0.2016 -0.7116
13977TIP3    H263423   5.744   0.698   5.830 -0.8134 -2.0058  0.9668
13978TIP3   OH263424   1.593   5.886   0.912  0.0401 -0.0571 -0.1506
13978TIP3    H163425   1.677   5.928   0.891 -0.7093  1.4598 -0.1779
13978TIP3    H263426   1.611   5.792   0.905  1.2990  0.2853 -1.8739
13979TIP3   OH263427   6.470   4.194   4.203  0.1702 -0.0164 -0.2311
13979TIP3    H163428   6.394   4.221   4.152  1.2717 -0.5522 -2.2075
13979TIP3    H263429   6.537   4.259   4.183  1.0576 -1.0261 -0.5921
13980TIP3   OH263430   5.714   0.470   2.007 -0.2450  0.0927 -0.0723
13980TIP3    H163431   5.797   0.423   2.018 -1.0045 -1.3576 -0.3145
13980TIP3    H263432   5.650   0.417   2.055 -1.2598  0.4946 -0.9603
13981TIP3   OH263433   2.482   4.069   5.278  0.2930  0.3929 -0.2173
13981TIP3    H163434   2.443   4.135   5.220  4.4016  3.3084  0.0226
13981TIP3    H263435   2.452   4.093   5.366  1.3327  1.7179 -0.1949
13982TIP3   OH263436   4.379   3.859  11.201 -0.2557 -0.1051 -0.0457
13982TIP3    H163437   4.346   3.941  11.162  0.4374  0.6604  0.9584
13982TIP3    H263438   4.344   3.790  11.144 -2.3868  0.7679  0.1596
13983TIP3   OH263439   0.687   5.158  10.448 -0.4145 -0.4871 -0.1621
13983TIP3    H163440   0.684   5.063  10.438 -3.1297 -0.3650 -1.0170
13983TIP3    H263441   0.595   5.183  10.459  0.3681  1.9366  1.0983
13984TIP3   OH263442   0.607   5.419  12.175  0.0749  0.1723  0.5752
13984TIP3    H163443   0.517   5.451  12.165  0.2564  0.0220 -1.6145
13984TIP3    H263444   0.644   5.475  12.244 -1.6960  0.1969  1.5470
13985TIP3   OH263445   0.922   5.794  11.304 -0.4054 -0.4654  0.6775
13985TIP3    H163446   1.014   5.816  11.321 -0.3992  0.3467 -0.3360
13985TIP3    H263447   0.910   5.816  11.212 -1.8106  0.0901  0.9893
13986TIP3   OH263448   5.391   1.774  11.631  0.1853  0.0506  0.2245
13986TIP3    H163449   5.461   1.836  11.612  0.7061 -0.7357 -0.4356
13986TIP3    H263450   5.405   1.702  11.569 -0.4687 -0.6829  0.9222
13987TIP3   OH263451   3.736   6.143   0.112  0.1059  0.6028 -0.0245
13987TIP3    H163452   3.743   6.115   0.021  0.6188  0.1316  0.1551
13987TIP3    H263453   3.747   6.062   0.163 -0.5400  0.8046  0.4451
13988TIP3   OH263454   2.687   1.069   1.826 -0.2174 -0.9457 -0.1191
13988TIP3    H163455   2.719   1.105   1.743 -1.2672 -1.8369 -0.9270
13988TIP3    H263456   2.616   1.127   1.852  0.1917 -0.5944  0.2411
13989TIP3   OH263457   4.140   5.953  17.143  0.4242 -0.3253  0.2257
13989TIP3    H163458   4.134   6.010  17.219  0.1168 -0.4604  0.3076
13989TIP3    H263459   4.123   5.865  17.177  1.6177 -0.5599  0.2191
13990TIP3   OH263460   4.277   0.064   3.652  0.5863  0.2902 -0.3973
13990TIP3    H163461   4.320   0.144   3.621  0.2988 -0.3966 -2.6707
13990TIP3    H263462   4.349   0.003   3.669  0.7212  0.5474 -0.0319
13991TIP3   OH263463   4.115   2.525   4.760 -0.5394 -0.5663 -0.0949
13991TIP3    H163464   4.109   2.588   4.688  1.2149 -2.0055 -1.5316
13991TIP3    H263465   4.024   2.505   4.782 -1.1197  1.9941 -0.0171
13992TIP3   OH263466   4.924   5.158  12.861 -0.0704  0.2282 -0.8528
13992TIP3    H163467   4.911   5.216  12.936  0.5858 -1.6312  0.7175
13992TIP3    H263468   5.014   5.174  12.833  0.4953 -0.8596  0.3127
13993TIP3   OH263469   1.174   0.424  16.412 -0.3844  0.1968 -0.1021
13993TIP3    H163470   1.228   0.384  16.480 -0.0053  0.1216 -0.4479
13993TIP3    H263471   1.129   0.495  16.457 -0.4754 -0.1343  0.3355
13994TIP3   OH263472   4.335   0.223   1.619  0.1614 -0.3997 -0.3481
13994TIP3    H163473   4.254   0.269   1.599 -0.7820 -0.7332  2.5238
13994TIP3    H263474   4.399   0.292   1.634 -0.2070 -0.0829 -0.2311
13995TIP3   OH263475   2.402   4.032  16.443  0.2463  0.3650 -0.4404
13995TIP3    H163476   2.463   4.092  16.400  1.8429 -0.0703  1.1871
13995TIP3    H263477   2.391   3.960  16.380  0.6750  0.8934 -1.1296
13996TIP3   OH263478   2.266   3.148   0.217 -0.3342 -0.0012 -0.6897
13996TIP3    H163479   2.171   3.158   0.222 -0.2313  0.9290 -0.6098
13996TIP3    H263480   2.286   3.156   0.124 -0.1932  1.0303 -0.5667
13997TIP3   OH263481   4.703   4.869   3.741  0.3400  0.4791 -0.4720
13997TIP3    H163482   4.631   4.808   3.755 -0.6864  2.1715  1.8901
13997TIP3    H263483   4.755   4.864   3.821  0.7925  1.9670 -0.6633
13998TIP3   OH263484   6.309   5.004   5.701 -0.1069 -0.6826 -0.0033
13998TIP3    H163485   6.311   4.955   5.783 -0.0743 -0.6808 -0.0030
13998TIP3    H263486   6.391   4.979   5.657  0.2336 -0.1024  0.3031
13999TIP3   OH263487   1.417   0.077  12.595  0.9084  0.2987 -0.0437
13999TIP3    H163488   1.396   0.016  12.523  1.5159 -0.1070  0.1188
13999TIP3    H263489   1.333   0.093  12.638  1.1215 -2.5472  1.5738
14000TIP3   OH263490   3.925   2.550  15.920  0.7549  0.3811  0.1805
14000TIP3    H163491   3.953   2.625  15.972  1.3980  0.8407 -0.8097
14000TIP3    H263492   4.006   2.517  15.880  0.1742  0.4677 -1.0837
14001TIP3   OH263493   0.134   5.042   2.706 -0.8940 -0.5094  0.2785
14001TIP3    H163494   0.041   5.042   2.729 -1.2875 -2.0939 -1.2481
14001TIP3    H263495   0.173   4.976   2.764 -0.2667  1.7794  2.5459
14002TIP3   OH263496   5.052   1.281  13.531  0.1663  0.0398 -0.3010
14002TIP3    H163497   5.055   1.186  13.535 -0.8494 -0.0173 -0.8108
14002TIP3    H263498   4.973   1.305  13.578  0.7329  0.6713  0.3340
14003TIP3   OH263499   2.846   1.848  15.264  0.5614 -0.0599 -0.2486
14003TIP3    H163500   2.767   1.794  15.263 -0.3913  1.2893  1.0478
14003TIP3    H263501   2.876   1.845  15.355  2.3989 -1.0859 -0.8476
14004TIP3   OH263502   0.674   1.319   6.885 -0.3531 -0.3862  0.2097
14004TIP3    H163503   0.733   1.374   6.834  1.4233 -0.5649  1.9816
14004TIP3    H263504   0.730   1.247   6.916 -2.2514 -2.2887 -0.7028
14005TIP3   OH263505   3.551   2.405  12.169 -0.5726 -0.4017  0.0566
14005TIP3    H163506   3.600   2.323  12.170 -1.6030 -1.0291 -0.2087
14005TIP3    H263507   3.570   2.446  12.254  0.2083 -0.7529  0.0523
14006TIP3   OH263508   0.188   2.674   0.090  0.3276  0.2499 -0.4922
14006TIP3    H163509   0.130   2.723   0.032 -0.7875 -0.8031 -0.2797
14006TIP3    H263510   0.134   2.652   0.166  1.0174 -0.6929 -0.2569
14007TIP3   OH263511   3.372   3.381   3.536 -0.0709 -0.5184  0.3620
14007TIP3    H163512   3.417   3.303   3.503  2.9212  0.9750  0.6472
14007TIP3    H263513   3.430   3.453   3.511 -2.1924  1.5119  1.1188
14008TIP3   OH263514   1.791   1.029  13.959  0.1831  0.2538 -0.1084
14008TIP3    H163515   1.886   1.026  13.945  0.3131  0.3310  0.7612
14008TIP3    H263516   1.762   0.939  13.948  0.4386  0.1343  0.1870
14009TIP3   OH263517   6.349   5.875   0.782 -0.8045 -0.3700  0.2132
14009TIP3    H163518   6.299   5.865   0.863 -2.3701 -1.4887 -0.8503
14009TIP3    H263519   6.293   5.834   0.715 -0.4753  2.3510 -1.7711
14010TIP3   OH263520   3.922   0.316  16.389  0.3751 -0.2648 -0.0701
14010TIP3    H163521   4.010   0.353  16.394  0.8526 -1.1534 -1.5012
14010TIP3    H263522   3.931   0.239  16.333 -1.5230  0.3199 -1.2371
14011TIP3   OH263523   0.821   6.058   1.771  0.7441  0.0899  0.5737
14011TIP3    H163524   0.900   6.094   1.732  1.9800 -0.7388  2.2594
14011TIP3    H263525   0.749   6.106   1.728  2.1016  0.3298 -1.4798
14012TIP3   OH263526   6.738   0.864  10.685 -0.1071 -0.3891  0.5841
14012TIP3    H163527   6.688   0.945  10.680  0.9020  0.2933  1.5078
14012TIP3    H263528   6.812   0.884  10.743 -0.3721 -2.2295  1.6052
14013TIP3   OH263529   0.790   1.506   5.698 -0.6389 -0.0227 -0.1245
14013TIP3    H163530   0.799   1.470   5.787  1.0095 -0.6590 -0.5386
14013TIP3    H263531   0.810   1.433   5.640  1.5761  1.2250 -0.9912
14014TIP3   OH263532   1.277   2.191   1.227  0.2914  0.3719  0.1123
14014TIP3    H163533   1.319   2.222   1.307 -0.2654 -0.3681  0.7028
14014TIP3    H263534   1.270   2.096   1.240 -1.7362  0.4984  0.1162
14015TIP3   OH263535   4.683   1.442   0.615 -0.1712 -0.0439  0.1623
14015TIP3    H163536   4.761   1.396   0.584 -0.0647  1.5023 -1.9827
14015TIP3    H263537   4.619   1.372   0.630  0.5384 -1.0571 -1.3773
14016TIP3   OH263538   4.769   2.610   0.653  0.0996  0.0475 -0.1345
14016TIP3    H163539   4.744   2.637   0.565  1.0239 -2.4221 -1.2133
14016TIP3    H263540   4.859   2.640   0.663  0.7678 -1.6380 -0.9281
14017TIP3   OH263541   5.823   4.192   0.970 -0.3804  0.1981 -0.2691
14017TIP3    H163542   5.764   4.268   0.963 -0.6088  0.1864  1.2380
14017TIP3    H263543   5.881   4.214   1.043 -1.5333 -1.7730  1.2913
14018TIP3   OH263544   1.320   4.889   4.098 -0.4291 -0.2396 -0.7011
14018TIP3    H163545   1.388   4.924   4.040 -0.7162  2.1283  0.3365
14018TIP3    H263546   1.368   4.854   4.173 -0.3206  0.9364 -0.2199
14019TIP3   OH263547   5.092   0.858   3.507  0.1776 -0.4385 -0.4525
14019TIP3    H163548   5.042   0.806   3.445  0.3377 -0.9312 -0.1682
14019TIP3    H263549   5.026   0.904   3.559  0.0143 -1.2113  0.0310
14020TIP3   OH263550   0.687   1.206   3.112  0.0713 -0.1305 -0.0684
14020TIP3    H163551   0.695   1.192   3.018  0.0830  0.2934 -0.1316
14020TIP3    H263552   0.594   1.195   3.131 -0.0771  0.7235 -0.2842
14021TIP3   OH263553   3.109   6.282   2.757  0.1181 -0.1534 -0.3321
14021TIP3    H163554   3.155   6.343   2.699 -0.0469 -1.3808 -1.7803
14021TIP3    H263555   3.032   6.254   2.708 -1.0829  0.2765  1.2612
14022TIP3   OH263556   0.350   5.702  11.031  0.4505  0.1274 -0.3715
14022TIP3    H163557   0.413   5.677  10.964  1.7707 -0.3124  0.9976
14022TIP3    H263558   0.289   5.628  11.035  0.8650 -0.2253 -0.5068
14023TIP3   OH263559   0.164   0.300  13.117 -0.2598 -0.1767 -0.1816
14023TIP3    H163560   0.097   0.269  13.178  0.4432 -2.1556 -0.3884
14023TIP3    H263561   0.116   0.338  13.044 -1.1190  0.9049  0.9243
14024TIP3   OH263562   4.960   1.411   3.233 -0.2226 -0.5977  0.1510
14024TIP3    H163563   5.000   1.483   3.282  0.2069 -0.3672 -0.5243
14024TIP3    H263564   5.007   1.410   3.150 -2.9271  0.9706 -1.4723
14025TIP3   OH263565   1.023   6.433   0.700 -0.7650  0.2084  0.1430
14025TIP3    H163566   1.100   6.489   0.710  0.9478 -1.9461 -0.6072
14025TIP3    H263567   0.976   6.441   0.783  0.6153  1.0301  0.8497
14026TIP3   OH263568   2.679   5.457  15.250 -0.3931 -0.1671  0.0584
14026TIP3    H163569   2.698   5.366  15.229  1.6136  0.1599  0.4081
14026TIP3    H263570   2.748   5.507  15.205 -0.1573  1.0182  1.6978
14027TIP3   OH263571   1.260   3.210  12.218 -0.1830  0.2782  0.6191
14027TIP3    H163572   1.228   3.141  12.160  0.9534 -1.8078  2.4097
14027TIP3    H263573   1.186   3.270  12.228 -1.0763 -0.4853 -1.2238
14028TIP3   OH263574   1.484   2.087   0.734 -0.5987  0.0543 -0.2423
14028TIP3    H163575   1.546   2.035   0.784  1.2215  1.1389 -1.3153
14028TIP3    H263576   1.522   2.175   0.731 -1.8305  0.5797 -1.5047
14029TIP3   OH263577   1.133   5.094   0.124  0.3497 -0.0806 -0.1757
14029TIP3    H163578   1.188   5.149   0.180  0.8868 -0.1373 -0.6454
14029TIP3    H263579   1.180   5.090   0.040 -1.1405  1.1889 -1.1054
14030TIP3   OH263580   0.343   2.112  14.419 -0.4516  0.3354  0.1121
14030TIP3    H163581   0.423   2.164  14.429 -0.4232  0.2172  0.5264
14030TIP3    H263582   0.343   2.054  14.495 -0.2636 -0.5720 -0.5755
14031TIP3   OH263583   1.741   1.538   5.447  0.3324 -0.0276 -0.3829
14031TIP3    H163584   1.676   1.482   5.404 -0.7069  0.5173  0.4336
14031TIP3    H263585   1.696   1.568   5.526  2.3543 -1.3961  1.3416
14032TIP3   OH263586   0.221   3.608  11.327  0.1270 -0.2553  0.6316
14032TIP3    H163587   0.155   3.553  11.286  1.5064 -1.2962 -0.2262
14032TIP3    H263588   0.286   3.547  11.362  1.9511  0.7975 -0.8093
14033TIP3   OH263589   0.975   2.492  13.059 -0.3976 -0.0584  0.0310
14033TIP3    H163590   1.031   2.562  13.026 -0.5110  0.1523  0.2839
14033TIP3    H263591   1.022   2.411  13.037  0.8007  0.1663  1.6911
14034TIP3   OH263592   4.088   5.810   5.180 -0.1195  0.0836 -0.1010
14034TIP3    H163593   4.100   5.894   5.135 -1.3989  0.2571 -0.1149
14034TIP3    H263594   4.157   5.810   5.247  2.4689 -0.6003 -2.6473
14035TIP3   OH263595   6.196   6.091   5.321 -0.5255 -0.0593 -0.2260
14035TIP3    H163596   6.267   6.156   5.324 -1.5119  1.0044  0.5770
14035TIP3    H263597   6.162   6.088   5.410 -3.0067  1.1631 -1.0782
14036TIP3   OH263598   4.607   5.329  11.610 -0.0811 -0.1654 -0.2937
14036TIP3    H163599   4.535   5.351  11.551 -1.4277 -0.7136  1.1102
14036TIP3    H263600   4.593   5.384  11.687  1.3947  0.2040 -0.2747
14037TIP3   OH263601   1.235   1.938  15.243 -0.1531 -1.0156 -0.9389
14037TIP3    H163602   1.178   2.014  15.243  1.4712  0.3170  1.9914
14037TIP3    H263603   1.181   1.867  15.279 -1.0487 -0.7273 -1.7008
14038TIP3   OH263604   4.059   1.708  14.721  0.0427  0.1840 -0.1613
14038TIP3    H163605   4.072   1.738  14.811  0.7819  0.4525 -0.3611
14038TIP3    H263606   4.012   1.626  14.731  0.5478 -0.0348  0.4924
14039TIP3   OH263607   5.725   3.573   4.893  0.1918  0.2429  0.2095
14039TIP3    H163608   5.804   3.588   4.945 -0.2552  2.1115  0.3966
14039TIP3    H263609   5.654   3.573   4.957 -0.0331 -0.7310 -0.0377
14040TIP3   OH263610   1.683   1.412  15.769  0.2892  0.2638  0.5465
14040TIP3    H163611   1.699   1.393  15.862  1.3286  1.2073  0.5719
14040TIP3    H263612   1.613   1.477  15.769 -0.8058 -0.8880  0.5928
14041TIP3   OH263613   0.437   5.727  13.614 -0.5437  0.6989  0.6286
14041TIP3    H163614   0.409   5.818  13.607 -2.5874 -0.0233 -1.1666
14041TIP3    H263615   0.453   5.700  13.523 -0.3196 -0.8381  1.1093
14042TIP3   OH263616   2.275   4.190  15.338  0.2995  0.8540  0.0399
14042TIP3    H163617   2.189   4.173  15.376 -0.4270  0.6737 -1.6462
14042TIP3    H263618   2.281   4.285  15.333  0.6780  0.8970  1.2145
14043TIP3   OH263619   4.489   1.676   3.224  0.3390  0.2131 -0.0761
14043TIP3    H163620   4.453   1.716   3.303  1.5548  0.1430  0.5270
14043TIP3    H263621   4.471   1.740   3.154 -0.5824  0.3520  0.2748
14044TIP3   OH263622   3.251   5.360   0.353  0.1495  0.3983 -0.2333
14044TIP3    H163623   3.341   5.393   0.359 -0.0178  0.7981  0.1389
14044TIP3    H263624   3.200   5.421   0.407 -0.6162  1.1592 -1.7713
14045TIP3   OH263625   3.355   5.585   1.502 -0.5808  0.7451 -0.1931
14045TIP3    H163626   3.265   5.613   1.516 -0.1864  1.5518  0.7317
14045TIP3    H263627   3.350   5.489   1.499 -1.5260  0.8069 -0.5784
14046TIP3   OH263628   3.516   5.799   5.048  0.2558 -0.1070 -0.1833
14046TIP3    H163629   3.595   5.812   4.995 -0.4907 -1.0294 -1.5547
14046TIP3    H263630   3.452   5.861   5.013 -0.1123 -0.4296 -0.0873
14047TIP3   OH263631   5.044   5.221  17.202 -0.4745  0.0321 -0.0189
14047TIP3    H163632   5.114   5.284  17.185 -1.2527  0.2938 -2.4802
14047TIP3    H263633   4.990   5.262  17.269  0.7066  0.6297  0.5817
14048TIP3   OH263634   2.911   5.919  11.759 -0.2415 -0.2823 -0.4994
14048TIP3    H163635   2.856   5.995  11.776  0.3073  0.5799 -2.4198
14048TIP3    H263636   2.850   5.847  11.745 -0.8133  0.1700 -0.3350
14049TIP3   OH263637   2.424   4.708  14.167 -0.0261  0.3633  0.5692
14049TIP3    H163638   2.382   4.622  14.170  0.1268  0.2738  0.0842
14049TIP3    H263639   2.447   4.721  14.075  1.9803 -0.0493  1.0080
14050TIP3   OH263640   0.499   1.661  11.116 -0.0266  0.1354 -0.1144
14050TIP3    H163641   0.524   1.569  11.126 -1.9442 -0.2107  1.6617
14050TIP3    H263642   0.431   1.660  11.049  0.3637  0.3570 -0.5228
14051TIP3   OH263643   5.983   3.255  14.347  0.2117  0.1665  0.3060
14051TIP3    H163644   6.025   3.202  14.415  0.8594 -0.8696 -0.8908
14051TIP3    H263645   5.906   3.205  14.321  1.2388 -0.5741 -1.3676
14052TIP3   OH263646   6.315   6.593  14.473  0.1240 -0.4376 -0.2894
14052TIP3    H163647   6.261   6.602  14.552 -0.2498  1.5607 -0.7336
14052TIP3    H263648   6.260   6.545  14.411  0.2363 -1.5863  0.4948
14053TIP3   OH263649   0.807   6.449  15.512  0.0781  0.3036  0.1317
14053TIP3    H163650   0.856   6.517  15.558  0.5134 -1.1522  1.9222
14053TIP3    H263651   0.776   6.391  15.582 -2.5938  0.1382 -1.1192
14054TIP3   OH263652   4.115   3.514  11.670 -0.2856  0.7893  0.2369
14054TIP3    H163653   4.071   3.434  11.645  1.1043 -1.0284  3.3336
14054TIP3    H263654   4.201   3.508  11.629  0.6169 -0.4100  2.2124
14055TIP3   OH263655   3.715   6.766  15.669 -0.1776 -0.0754  0.2667
14055TIP3    H163656   3.768   6.686  15.666  0.7715  0.5580 -0.4815
14055TIP3    H263657   3.627   6.737  15.647 -0.5309 -1.4280  3.1797
14056TIP3   OH263658   5.085   5.613   6.662 -0.6478 -0.6637  0.1929
14056TIP3    H163659   5.026   5.588   6.734  1.1655  0.4605  2.1111
14056TIP3    H263660   5.077   5.708   6.657 -0.6763 -0.7245 -1.0669
14057TIP3   OH263661   5.254   0.821  13.279  0.3026  0.1108  0.6059
14057TIP3    H163662   5.228   0.912  13.262  0.3565  0.5660  2.7500
14057TIP3    H263663   5.323   0.804  13.216 -1.2165  0.8090 -1.3227
14058TIP3   OH263664   4.530   6.019  11.800 -0.4247 -0.2491  0.3503
14058TIP3    H163665   4.555   6.037  11.890  1.8068  0.7611 -0.4266
14058TIP3    H263666   4.587   5.947  11.773 -0.3444  0.1454 -0.5619
14059TIP3   OH263667   2.432   6.499   0.084 -0.4425  0.8684 -0.2123
14059TIP3    H163668   2.364   6.510   0.017 -2.1146 -1.7860  0.9976
14059TIP3    H263669   2.396   6.540   0.163  0.3635  1.4978 -0.1535
14060TIP3   OH263670   0.811   3.624  14.505  0.3499 -0.4168 -0.2484
14060TIP3    H163671   0.865   3.601  14.430  0.0489  0.4993 -0.7525
14060TIP3    H263672   0.731   3.574  14.495  0.9780 -1.5652  0.3508
14061TIP3   OH263673   0.807   3.303   1.365 -0.3961 -0.3185 -0.2059
14061TIP3    H163674   0.754   3.255   1.301 -0.3636 -0.5685 -0.0443
14061TIP3    H263675   0.762   3.290   1.449 -0.0859 -0.5213 -0.0713
14062TIP3   OH263676   2.732   5.648   1.774  0.3106  0.6819  0.6287
14062TIP3    H163677   2.675   5.700   1.830  0.7465 -0.1118  1.8302
14062TIP3    H263678   2.678   5.625   1.699 -1.1257 -0.4980  2.0084
14063TIP3   OH263679   3.102   4.855   0.605  0.0314 -0.0499 -0.1849
14063TIP3    H163680   3.023   4.820   0.563 -0.6567  0.6432  0.5313
14063TIP3    H263681   3.101   4.817   0.693  1.8776 -2.1175 -1.0023
14064TIP3   OH263682   2.297   5.114  16.035 -0.3830  0.0148  0.2361
14064TIP3    H163683   2.318   5.045  15.972 -1.8692 -0.7080  0.5085
14064TIP3    H263684   2.276   5.067  16.115  2.4140  0.9505  1.6039
14065TIP3   OH263685   3.088   3.347   3.569  0.1730 -0.1026 -0.4628
14065TIP3    H163686   3.073   3.350   3.475  0.6433 -0.7744 -0.5673
14065TIP3    H263687   3.182   3.330   3.577 -0.2639 -2.3801  0.1061
14066TIP3   OH263688   2.607   4.979  16.549 -0.2041 -0.1483 -0.2407
14066TIP3    H163689   2.688   4.945  16.588  1.1305  1.3195 -1.6949
14066TIP3    H263690   2.545   4.907  16.558  0.9839 -0.9783  1.7115
14067TIP3   OH263691   3.815   5.238  12.326  0.1520  0.3556 -0.0232
14067TIP3    H163692   3.806   5.151  12.365  1.2879  0.2723  0.0624
14067TIP3    H263693   3.876   5.284  12.384  0.5426  0.7827 -0.7681
14068TIP3   OH263694   0.348   2.399  14.521 -0.3909 -1.0707 -0.1395
14068TIP3    H163695   0.432   2.395  14.475 -0.9566 -1.4774 -1.1548
14068TIP3    H263696   0.297   2.463  14.471 -0.8650 -1.2023  0.1753
14069TIP3   OH263697   1.952   1.045  16.670 -0.2257 -0.0818  0.1694
14069TIP3    H163698   2.039   1.007  16.657  0.2446  2.0812 -3.7021
14069TIP3    H263699   1.966   1.117  16.731  1.0253  1.1560 -1.5334
14070TIP3   OH263700   3.533   3.932  13.604  0.2340  0.0034 -0.5221
14070TIP3    H163701   3.592   3.869  13.562  0.3014 -0.5452  0.3947
14070TIP3    H263702   3.451   3.925  13.554 -0.2659 -1.9416  0.5255
14071TIP3   OH263703   2.798   1.885   1.384 -0.1438 -0.3217 -0.1412
14071TIP3    H163704   2.811   1.947   1.456  0.9585 -1.2001  0.4342
14071TIP3    H263705   2.877   1.894   1.330 -0.7632  0.0063 -0.9980
14072TIP3   OH263706   6.319   5.341  15.260  0.0395 -0.1483 -0.0021
14072TIP3    H163707   6.308   5.346  15.355  0.6360 -1.3119  0.1357
14072TIP3    H263708   6.230   5.336  15.226 -0.1785  0.2595  0.4934
14073TIP3   OH263709   5.347   1.955  13.189  0.1703 -0.2945 -0.7010
14073TIP3    H163710   5.403   1.883  13.160 -0.4038 -0.9276 -0.2510
14073TIP3    H263711   5.378   1.975  13.277 -0.9362 -1.3088 -0.0625
14074TIP3   OH263712   1.026   6.570   4.264 -0.5051  0.0073 -0.3295
14074TIP3    H163713   0.965   6.500   4.288 -0.0882 -0.6638 -1.1882
14074TIP3    H263714   1.105   6.524   4.237 -0.0869  0.8260 -0.5112
14075TIP3   OH263715   0.588   4.769  13.299  0.3026  0.6907 -0.1685
14075TIP3    H163716   0.525   4.733  13.362  0.2187  0.0619 -0.6063
14075TIP3    H263717   0.580   4.864  13.308  1.6191  0.6090  2.1109
14076TIP3   OH263718   6.235   6.597  11.598  0.0307 -0.1554  0.6364
14076TIP3    H163719   6.183   6.578  11.520  0.9862  1.9265 -0.5378
14076TIP3    H263720   6.293   6.522  11.607  0.8850  0.2369 -1.4761
14077TIP3   OH263721   3.188   6.676   3.745  0.4151  0.1414 -0.1202
14077TIP3    H163722   3.226   6.697   3.830  0.0487  1.5873 -0.2924
14077TIP3    H263723   3.157   6.586   3.753  3.0811 -0.7838  0.3039
14078TIP3   OH263724   3.397   3.335   1.682 -0.4235 -0.2958 -0.1683
14078TIP3    H163725   3.443   3.393   1.743 -3.0137  0.1283  1.4816
14078TIP3    H263726   3.450   3.337   1.602  1.5806  1.3229  1.1465
14079TIP3   OH263727   6.503   1.878   3.655  0.4020  0.2257  0.1420
14079TIP3    H163728   6.509   1.786   3.680 -0.9291 -0.0266 -0.4032
14079TIP3    H263729   6.485   1.876   3.561 -0.6618  1.0121  0.3150
14080TIP3   OH263730   2.182   6.349   6.245 -0.4626 -0.2084  0.1143
14080TIP3    H163731   2.117   6.402   6.198 -0.3569 -0.0570  0.1419
14080TIP3    H263732   2.129   6.285   6.293 -0.6562  0.7443  1.1849
14081TIP3   OH263733   1.335   1.122   5.113 -0.3050 -0.2737 -0.0510
14081TIP3    H163734   1.319   1.162   5.198  0.6848  1.1369 -0.5228
14081TIP3    H263735   1.428   1.100   5.114 -0.0987  0.5435 -1.1035
14082TIP3   OH263736   1.613   4.549   4.092 -0.2356  0.3065 -0.3551
14082TIP3    H163737   1.526   4.545   4.054  0.2867  0.4495 -1.5915
14082TIP3    H263738   1.615   4.633   4.138 -1.4143 -0.5808  1.3717
14083TIP3   OH263739   2.238   6.789   3.220  0.5541 -0.2391  0.0299
14083TIP3    H163740   2.151   6.763   3.251 -0.0647 -0.3382 -1.7645
14083TIP3    H263741   2.298   6.730   3.265 -0.5379 -2.1230 -0.9490
14084TIP3   OH263742   5.089   1.084  15.270 -0.3925 -0.3863 -0.7733
14084TIP3    H163743   5.131   1.106  15.187  0.1829 -1.0286 -0.6550
14084TIP3    H263744   5.053   0.997  15.256  0.9350 -1.0990  0.1077
14085TIP3   OH263745   5.674   6.280  12.303  0.1289  0.3653 -0.3291
14085TIP3    H163746   5.622   6.212  12.260  0.0631 -0.0365  0.3727
14085TIP3    H263747   5.624   6.361  12.289 -0.1532  0.1544 -0.5492
14086TIP3   OH263748   4.837   3.765   5.386  0.0513 -0.1250 -0.2978
14086TIP3    H163749   4.912   3.728   5.341  0.9651  0.3481  0.8234
14086TIP3    H263750   4.761   3.735   5.335  0.9571 -1.0201 -1.1341
14087TIP3   OH263751   1.032   3.129   3.527 -0.0435 -0.1353 -0.1688
14087TIP3    H163752   1.084   3.055   3.555  0.3359  0.0348 -0.4261
14087TIP3    H263753   1.092   3.203   3.527 -0.4484  0.2026  0.2129
14088TIP3   OH263754   3.455   1.404   2.772  0.3404  0.4590  0.2588
14088TIP3    H163755   3.461   1.482   2.715  0.0575 -0.3669 -0.9261
14088TIP3    H263756   3.388   1.427   2.836 -0.3409  0.8886 -0.5856
14089TIP3   OH263757   3.356   4.459   3.153 -0.0077  0.5446 -0.3674
14089TIP3    H163758   3.361   4.415   3.238 -0.3339 -0.3816 -0.8259
14089TIP3    H263759   3.270   4.435   3.118  0.9080 -0.6673 -1.8288
14090TIP3   OH263760   3.588   0.564   5.987 -0.5155  0.1780  0.4274
14090TIP3    H163761   3.524   0.607   5.931 -1.1534 -1.5448 -0.2083
14090TIP3    H263762   3.535   0.513   6.048  0.2346 -1.4288 -0.2353
14091TIP3   OH263763   4.610   4.635  12.845  0.2440  0.4618  0.4832
14091TIP3    H163764   4.675   4.565  12.835  0.8764  0.7448  2.2803
14091TIP3    H263765   4.642   4.686  12.920 -1.6305  1.0909  0.8860
14092TIP3   OH263766   3.906   0.633   0.527 -0.4554 -0.0850  0.4156
14092TIP3    H163767   3.838   0.700   0.534  1.0079  1.6556 -1.3362
14092TIP3    H263768   3.984   0.674   0.565  0.1982 -1.1907  0.2789
14093TIP3   OH263769   1.454   0.875   1.713 -0.5499 -0.5921 -0.0653
14093TIP3    H163770   1.476   0.929   1.636 -0.1521 -1.3481 -0.4849
14093TIP3    H263771   1.379   0.920   1.752 -0.1494  0.3386 -0.3445
14094TIP3   OH263772   4.192   1.875  16.127 -0.3238 -0.0207  0.2380
14094TIP3    H163773   4.139   1.915  16.058 -0.8025 -0.9506  0.0518
14094TIP3    H263774   4.282   1.899  16.106 -0.3955 -0.8718 -1.1102
14095TIP3   OH263775   3.781   4.154   3.172 -0.3522 -0.2595 -0.5812
14095TIP3    H163776   3.732   4.236   3.166  1.2171  0.5683 -2.7735
14095TIP3    H263777   3.852   4.164   3.108  1.8083 -1.9875  1.4480
14096TIP3   OH263778   6.602   3.451   4.659  0.3048 -0.0759  0.6744
14096TIP3    H163779   6.524   3.496   4.627 -0.0395 -1.5300 -0.6041
14096TIP3    H263780   6.579   3.359   4.657  2.6571 -0.6686 -1.5010
14097TIP3   OH263781   5.641   4.128  10.610  0.6136  0.2172  0.8017
14097TIP3    H163782   5.590   4.120  10.691  0.1401 -0.9273  0.4111
14097TIP3    H263783   5.582   4.096  10.542  1.1257  0.8695  0.0463
14098TIP3   OH263784   0.181   6.132  14.250 -0.2078 -0.1046  0.0177
14098TIP3    H163785   0.102   6.151  14.201  0.0481 -0.5624 -0.5680
14098TIP3    H263786   0.191   6.037  14.246 -0.2294 -0.1623  1.0212
14099TIP3   OH263787   4.484   4.912  15.106  0.0378 -0.4181  0.0598
14099TIP3    H163788   4.460   4.936  15.016  3.4509  0.5386 -0.6549
14099TIP3    H263789   4.557   4.851  15.096 -0.2717 -1.1653  2.1784
14100TIP3   OH263790   0.883   1.386   0.306 -0.5400  0.1181 -0.2144
14100TIP3    H163791   0.946   1.437   0.255  0.8764  0.5094  1.8632
14100TIP3    H263792   0.833   1.337   0.240  0.3393  1.5929 -2.0374
14101TIP3   OH263793   2.816   3.505  14.123  0.5978  0.7368  0.1689
14101TIP3    H163794   2.864   3.522  14.042  0.3844  0.3569 -0.0388
14101TIP3    H263795   2.827   3.412  14.139 -0.0115  0.6542  0.1509
14102TIP3   OH263796   2.565   1.941   3.919 -0.0483  0.3038  0.2773
14102TIP3    H163797   2.515   2.011   3.961 -0.9580 -1.4185  2.0973
14102TIP3    H263798   2.499   1.878   3.890  0.8221 -0.1587 -0.7436
14103TIP3   OH263799   0.652   6.809   0.029 -0.3358 -0.5031 -0.2043
14103TIP3    H163800   0.639   6.865   0.105  1.4136 -0.4607  0.0733
14103TIP3    H263801   0.593   6.735   0.043 -0.4850 -0.1804  0.8756
14104TIP3   OH263802   5.675   5.853  16.514  0.0076  0.9281 -0.5630
14104TIP3    H163803   5.639   5.770  16.546 -0.0247  0.8479 -0.8114
14104TIP3    H263804   5.652   5.855  16.421  0.0208  1.2071 -0.5605
14105TIP3   OH263805   5.491   3.488  15.527 -0.4010  0.3102 -0.5059
14105TIP3    H163806   5.412   3.437  15.508  0.6437 -1.3160 -0.6503
14105TIP3    H263807   5.459   3.574  15.554 -2.2992 -1.0687  1.8187
14106TIP3   OH263808   1.381   6.517   3.859 -0.0351 -0.1275 -0.1890
14106TIP3    H163809   1.326   6.517   3.937 -1.0630  0.8978 -0.9017
14106TIP3    H263810   1.447   6.584   3.876  1.4715 -1.8599  0.9722
14107TIP3   OH263811   5.961   4.749   4.113  0.2808  0.1750 -0.2316
14107TIP3    H163812   5.903   4.797   4.054  1.2428  0.4148 -0.9894
14107TIP3    H263813   5.947   4.789   4.199 -0.4454  0.4354 -0.4708
14108TIP3   OH263814   4.818   5.911   6.457 -0.2152  0.2978  0.3760
14108TIP3    H163815   4.808   5.868   6.372  0.3199  2.1089 -0.6358
14108TIP3    H263816   4.793   6.002   6.441  0.1861  0.7315  2.0910
14109TIP3   OH263817   0.920   6.440   3.561  0.1552  0.3134  0.6097
14109TIP3    H163818   0.908   6.531   3.587  0.5761  0.4168  0.4435
14109TIP3    H263819   1.001   6.413   3.603  0.3761  0.2131  0.1248
14110TIP3   OH263820   1.326   3.948   0.058 -0.5071  0.4293  0.1002
14110TIP3    H163821   1.281   4.030   0.074 -1.2234  0.0067  0.2788
14110TIP3    H263822   1.418   3.972   0.046 -0.8411  1.3316 -0.6316
14111TIP3   OH263823   2.709   0.568  10.480  0.1342  0.0455  0.4940
14111TIP3    H163824   2.669   0.639  10.532  1.4802 -0.2221  1.9455
14111TIP3    H263825   2.799   0.563  10.513  0.1578 -2.1036  0.1634
14112TIP3   OH263826   2.583   6.108   4.469 -0.7987  0.3733 -0.1218
14112TIP3    H163827   2.546   6.032   4.425 -1.2686 -0.5642  1.8351
14112TIP3    H263828   2.677   6.103   4.451 -0.7533 -0.9991  0.4717
14113TIP3   OH263829   6.515   0.636   3.864 -0.2817  0.2862 -0.3594
14113TIP3    H163830   6.488   0.666   3.950  1.4869 -2.2956  1.1651
14113TIP3    H263831   6.579   0.701   3.835 -1.6039  1.6963 -0.2069
14114TIP3   OH263832   0.495   5.952   3.500 -0.9110  0.1363  0.2185
14114TIP3    H163833   0.443   5.873   3.485 -1.4854  0.7009 -0.7695
14114TIP3    H263834   0.465   6.014   3.434 -0.1703  1.0488  0.7253
14115TIP3   OH263835   6.329   2.354   3.179 -0.3225 -0.2101  0.2172
14115TIP3    H163836   6.413   2.364   3.134 -0.4945  1.3973  0.2180
14115TIP3    H263837   6.263   2.372   3.111 -0.5749  2.7213  1.1844
14116TIP3   OH263838   2.308   4.447  12.700  0.2585  0.4551 -0.4009
14116TIP3    H163839   2.375   4.416  12.761 -0.7736  0.6758  0.8725
14116TIP3    H263840   2.244   4.375  12.697  0.6031  0.1898 -1.7049
14117TIP3   OH263841   5.486   4.516   1.240 -0.2597  0.4473 -0.1919
14117TIP3    H163842   5.548   4.449   1.269 -0.5949  0.7353  1.2397
14117TIP3    H263843   5.528   4.599   1.265 -0.5030  0.7165 -0.6601
14118TIP3   OH263844   0.870   4.124   2.770 -0.0517  0.1634 -0.3300
14118TIP3    H163845   0.830   4.172   2.842 -0.8965 -0.2355 -0.5260
14118TIP3    H263846   0.829   4.160   2.691  0.1868 -0.0494 -0.5519
14119TIP3   OH263847   6.211   3.815   4.503 -0.4696  0.2363 -0.4682
14119TIP3    H163848   6.158   3.894   4.517  1.1148  1.7416 -2.5582
14119TIP3    H263849   6.195   3.791   4.412 -2.9471 -3.4734  0.8476
14120TIP3   OH263850   4.000   5.522  13.910 -0.6989  0.5274  0.2948
14120TIP3    H163851   3.977   5.483  13.994  0.2724 -0.0091  0.3179
14120TIP3    H263852   4.041   5.451  13.861 -0.8031  0.9711 -0.4479
14121TIP3   OH263853   2.392   4.396   3.372 -0.5387  0.1557  0.0855
14121TIP3    H163854   2.358   4.482   3.347  1.4503  1.1090  0.5165
14121TIP3    H263855   2.447   4.370   3.298  0.3721  0.1336  0.7615
14122TIP3   OH263856   0.146   5.931   6.820  0.3243  0.5826  0.4633
14122TIP3    H163857   0.137   5.853   6.874  0.8077  1.1455  1.3527
14122TIP3    H263858   0.100   6.000   6.868  0.2232  0.9375 -0.1318
14123TIP3   OH263859   4.470   4.067  16.371 -0.3775 -0.2077 -0.2150
14123TIP3    H163860   4.418   4.102  16.299 -1.8397 -0.5510  0.6383
14123TIP3    H263861   4.436   4.112  16.449  0.4457 -0.6219  0.3888
14124TIP3   OH263862   4.165   0.205  14.895  0.3850 -0.0342 -0.0649
14124TIP3    H163863   4.217   0.162  14.827 -1.3899  0.3886 -1.7371
14124TIP3    H263864   4.183   0.155  14.975  1.1790 -1.6030 -1.2110
14125TIP3   OH263865   5.401   6.328  10.946 -0.3924 -0.2837  0.3802
14125TIP3    H163866   5.350   6.252  10.975 -0.8011 -0.9479 -1.9928
14125TIP3    H263867   5.472   6.334  11.010 -0.4040 -2.6111  0.6813
14126TIP3   OH263868   6.343   4.079  12.606 -0.2834 -0.0495  0.5749
14126TIP3    H163869   6.421   4.083  12.551 -0.2007  2.5507  0.8147
14126TIP3    H263870   6.376   4.069  12.695 -0.2434  0.1582  0.5837
14127TIP3   OH263871   1.844   5.873   0.341  0.2507  0.3581 -0.2008
14127TIP3    H163872   1.836   5.946   0.402 -0.0220 -0.3977  0.6877
14127TIP3    H263873   1.930   5.885   0.301  0.0661  1.3513 -0.3142
14128TIP3   OH263874   6.728   1.834  11.595  0.3394 -0.3131  0.1700
14128TIP3    H163875   6.812   1.831  11.550 -0.8365  2.3372 -2.3574
14128TIP3    H263876   6.723   1.922  11.632 -2.4421  0.5680 -2.0934
14129TIP3   OH263877   3.883   2.499  12.120 -0.0954 -0.0909  0.2085
14129TIP3    H163878   3.840   2.512  12.205 -0.7636  0.9360 -0.2845
14129TIP3    H263879   3.966   2.545  12.128 -0.2565  0.1956  0.2233
14130TIP3   OH263880   5.688   1.857  16.891  0.4350 -0.9447  0.2289
14130TIP3    H163881   5.739   1.812  16.823 -0.1531 -0.4920 -0.5206
14130TIP3    H263882   5.603   1.813  16.890  0.4336 -0.9476  0.6788
14131TIP3   OH263883   3.415   4.376  17.239  0.0273  0.0462  0.1234
14131TIP3    H163884   3.371   4.297  17.271 -0.3594 -0.5009 -1.7221
14131TIP3    H263885   3.357   4.448  17.266 -1.3065 -0.5620 -1.0355
14132TIP3   OH263886   5.746   4.458   3.241 -0.1790 -0.0057 -0.7000
14132TIP3    H163887   5.840   4.442   3.232  0.5254  2.6408  1.2894
14132TIP3    H263888   5.705   4.374   3.219  2.6390 -1.2855 -1.3015
14133TIP3   OH263889   1.995   1.214   6.230 -0.4600  0.2821 -0.0172
14133TIP3    H163890   2.068   1.186   6.285  0.0135 -0.0279 -0.7936
14133TIP3    H263891   1.924   1.153   6.251 -0.0577 -0.2700 -0.2713
14134TIP3   OH263892   6.579   4.330   2.608  0.3540  0.0844 -0.6416
14134TIP3    H163893   6.484   4.333   2.598  0.3019 -0.9390 -0.5172
14134TIP3    H263894   6.596   4.377   2.690 -0.1893 -1.0415  0.1376
14135TIP3   OH263895   3.672   4.040   4.594  0.1125  0.1828 -0.0862
14135TIP3    H163896   3.754   4.047   4.546 -0.3806  0.3883 -0.9019
14135TIP3    H263897   3.642   3.951   4.578  1.3808 -0.7020  2.1908
14136TIP3   OH263898   6.693   1.381   6.078 -0.3394  0.1161 -0.6570
14136TIP3    H163899   6.714   1.371   6.171  0.6786  1.8265 -0.6744
14136TIP3    H263900   6.599   1.368   6.073 -0.3088 -0.6404  0.5203
14137TIP3   OH263901   0.528   2.133   4.956 -0.3287  0.2082  0.4016
14137TIP3    H163902   0.463   2.120   4.887  0.5497  1.1502 -0.6293
14137TIP3    H263903   0.602   2.077   4.930 -0.1112  0.3446  0.7254
14138TIP3   OH263904   2.530   5.716  17.271  0.0059  0.4408  0.1230
14138TIP3    H163905   2.546   5.686  17.360 -0.2037 -1.8451 -0.5592
14138TIP3    H263906   2.616   5.741  17.238 -0.1067  2.5697  1.3785
14139TIP3   OH263907   3.830   1.787   2.432  0.0341 -0.2911 -0.0235
14139TIP3    H163908   3.775   1.850   2.478 -1.2225 -0.4563 -1.2490
14139TIP3    H263909   3.839   1.823   2.344  1.0683 -0.7745 -0.1244
14140TIP3   OH263910   5.148   2.025   6.443  0.6945  0.1764 -0.4699
14140TIP3    H163911   5.236   2.031   6.481  0.2377 -0.9121  0.7703
14140TIP3    H263912   5.093   2.073   6.504 -0.0728 -1.7169  0.3574
14141TIP3   OH263913   5.231   1.507   0.753  0.0970 -0.1603  0.1170
14141TIP3    H163914   5.137   1.502   0.736 -0.4764  1.9494  2.2966
14141TIP3    H263915   5.242   1.460   0.836  0.2248  3.0793  2.0344
14142TIP3   OH263916   3.820   0.223   0.159  0.6035 -0.1068  0.4077
14142TIP3    H163917   3.823   0.220   0.064 -1.7660 -0.1551  0.3132
14142TIP3    H263918   3.746   0.280   0.180 -1.3242 -3.1009  2.1711
14143TIP3   OH263919   2.066   3.025   2.361  0.2695 -0.6440  0.2207
14143TIP3    H163920   2.084   2.954   2.422 -0.3666 -1.8806 -1.0009
14143TIP3    H263921   2.139   3.022   2.299  1.4391  1.2405  1.4586
14144TIP3   OH263922   1.681   4.462  10.958  0.4579  0.3248 -0.5203
14144TIP3    H163923   1.648   4.407  10.887  0.4502 -0.3916  0.0272
14144TIP3    H263924   1.710   4.399  11.024 -1.4439  1.0082  0.9913
14145TIP3   OH263925   4.009   4.002  15.787  0.1182 -0.1975 -0.3966
14145TIP3    H163926   4.034   4.093  15.771  1.3273 -0.6133 -0.9289
14145TIP3    H263927   4.073   3.970  15.851  1.2759 -1.4052 -2.0972
14146TIP3   OH263928   5.530   5.501  14.002 -0.0006 -0.4826  0.2343
14146TIP3    H163929   5.559   5.458  14.082 -1.4837 -2.7778 -0.4210
14146TIP3    H263930   5.434   5.497  14.006 -0.0808 -0.9287 -1.8236
14147TIP3   OH263931   0.981   1.721   4.215 -0.4184 -0.1907 -0.1507
14147TIP3    H163932   0.903   1.770   4.241  1.3861  1.9844  1.3864
14147TIP3    H263933   0.974   1.638   4.263 -2.3372 -0.5164 -0.9478
14148TIP3   OH263934   4.400   6.445   0.005  0.1660  0.0932 -0.1412
14148TIP3    H163935   4.354   6.433   0.087 -0.1831 -2.9959 -0.7112
14148TIP3    H263936   4.344   6.503  -0.046 -1.3126 -0.7101  0.5309
14149TIP3   OH263937   5.015   6.563  12.559  0.2346 -0.1904  0.3613
14149TIP3    H163938   5.073   6.589  12.630 -0.8716 -1.4278  1.7702
14149TIP3    H263939   5.062   6.494  12.513  0.9632  0.6275 -0.1288
14150TIP3   OH263940   4.766   0.493  11.011 -0.5915 -0.1356 -0.6554
14150TIP3    H163941   4.689   0.464  11.060  0.4121 -0.5887  0.7091
14150TIP3    H263942   4.809   0.554  11.070  1.0219 -1.2261 -0.6776
14151TIP3   OH263943   6.413   2.744   0.782 -0.2936  0.5082 -0.1050
14151TIP3    H163944   6.356   2.734   0.858 -1.2936  0.6755 -0.8237
14151TIP3    H263945   6.446   2.834   0.788 -0.3528  0.5139  0.1375
14152TIP3   OH263946   3.034   1.779  11.190 -0.0463 -0.0156  0.4319
14152TIP3    H163947   3.064   1.792  11.100  1.0651 -2.6872  0.3651
14152TIP3    H263948   3.098   1.826  11.243 -0.2102  0.8394 -0.1149
14153TIP3   OH263949   6.718   0.799  15.236  0.0620 -0.0421  0.5043
14153TIP3    H163950   6.805   0.831  15.257  0.0667 -0.1840  0.7089
14153TIP3    H263951   6.725   0.767  15.146  0.0355  0.5952  0.2735
14154TIP3   OH263952   1.686   5.174   1.148 -0.5823 -0.1516  0.3170
14154TIP3    H163953   1.732   5.183   1.065 -1.2877 -1.5008 -0.2314
14154TIP3    H263954   1.710   5.252   1.197 -0.2558  0.7158 -1.1990
14155TIP3   OH263955   4.735   0.794  12.440 -0.4744 -0.9212 -0.5082
14155TIP3    H163956   4.716   0.808  12.348 -1.0749  1.6814 -0.0137
14155TIP3    H263957   4.699   0.708  12.459 -0.3433 -1.4884 -2.6837
14156TIP3   OH263958   1.816   4.395   6.391 -0.4014 -0.5488 -0.0281
14156TIP3    H163959   1.882   4.342   6.347 -0.7179 -1.2884  0.3780
14156TIP3    H263960   1.854   4.483   6.393  0.0179 -0.7021 -0.9276
14157TIP3   OH263961   6.583   2.738  15.523  0.5597 -0.0288  0.3080
14157TIP3    H163962   6.617   2.780  15.444  1.9256  0.0485  0.9108
14157TIP3    H263963   6.495   2.772  15.533  0.9668  1.2137 -0.2818
14158TIP3   OH263964   0.623   2.243  14.660 -0.9225 -0.2592 -0.4633
14158TIP3    H163965   0.607   2.290  14.579 -2.9127 -2.2096 -1.2796
14158TIP3    H263966   0.536   2.234  14.700 -0.2915 -1.3306  0.7232
14159TIP3   OH263967   0.785   6.241  14.975 -0.0389  0.3247 -0.1751
14159TIP3    H163968   0.787   6.148  14.954 -1.1158  0.1944  0.2997
14159TIP3    H263969   0.848   6.250  15.047 -0.9745 -0.2704  0.7172
14160TIP3   OH263970   3.578   6.189   5.247  0.7047  0.4325  0.6005
14160TIP3    H163971   3.555   6.276   5.216 -0.0996  0.2744  0.7336
14160TIP3    H263972   3.494   6.142   5.249  1.0159 -0.1011  1.2744
14161TIP3   OH263973   6.514   0.994   1.262 -0.4317  0.1318 -0.2543
14161TIP3    H163974   6.423   1.005   1.233 -0.6959 -1.7103 -0.1501
14161TIP3    H263975   6.535   0.903   1.244  1.5152  0.6116 -0.5451
14162TIP3   OH263976   3.162   5.338   0.811  0.0324  0.5566 -0.6563
14162TIP3    H163977   3.164   5.275   0.740 -0.4706  0.0592 -0.2314
14162TIP3    H263978   3.239   5.317   0.864 -0.5618 -0.2223 -0.0784
14163TIP3   OH263979   4.922   6.386   1.248  0.5230 -0.3125 -0.0112
14163TIP3    H163980   5.007   6.398   1.205  0.8008  1.3864  0.9355
14163TIP3    H263981   4.889   6.475   1.259 -0.5160 -0.8571  1.3392
14164TIP3   OH263982   5.603   0.340  15.059 -0.4251 -0.5186  0.2443
14164TIP3    H163983   5.654   0.409  15.016  0.1276  0.4077  2.3440
14164TIP3    H263984   5.657   0.261  15.052  0.4671  0.0345  0.8057
14165TIP3   OH263985   2.203   4.017  12.142 -0.2316 -0.2836  0.1189
14165TIP3    H163986   2.128   3.959  12.130 -1.0462  0.8289 -0.1346
14165TIP3    H263987   2.266   3.963  12.191 -1.6532 -0.8273  1.3973
14166TIP3   OH263988   6.215   3.467  12.248 -0.1233  0.2088  0.4548
14166TIP3    H163989   6.181   3.538  12.303  1.9142  0.8410  0.9474
14166TIP3    H263990   6.300   3.499  12.218  1.1752 -2.3055  1.2951
14167TIP3   OH263991   1.531   3.438  13.070  0.0240  0.0440 -0.3371
14167TIP3    H163992   1.564   3.349  13.067 -1.0385 -0.4481  1.5835
14167TIP3    H263993   1.595   3.490  13.021 -0.2342 -1.9988 -2.9660
14168TIP3   OH263994   2.498   3.815   1.922 -0.7468 -0.5294 -0.7319
14168TIP3    H163995   2.535   3.845   1.838 -1.7583 -1.5784 -1.5778
14168TIP3    H263996   2.445   3.739   1.898 -1.0899 -0.8049  0.8728
14169TIP3   OH263997   3.067   2.345   0.705  0.3012 -0.2610  0.2900
14169TIP3    H163998   3.117   2.287   0.648  0.2575 -1.2972  1.2731
14169TIP3    H263999   3.133   2.381   0.765  0.1144 -0.4263  0.5977
14170TIP3   OH264000   4.560   2.105   1.432 -0.5880  0.0025  0.0176
14170TIP3    H164001   4.644   2.062   1.451 -1.8238 -2.7927 -0.5214
14170TIP3    H264002   4.524   2.126   1.518  0.7460  1.4397  0.2455
14171TIP3   OH264003   4.549   2.027   1.142  0.4088  0.5609  0.0205
14171TIP3    H164004   4.525   2.103   1.089 -0.0954 -0.1370 -0.7574
14171TIP3    H264005   4.550   2.060   1.232 -1.3144  1.1454 -0.1455
14172TIP3   OH264006   5.395   1.544  15.855  0.4602 -0.2515  0.2753
14172TIP3    H164007   5.376   1.579  15.942  0.1785  2.3159 -0.7766
14172TIP3    H264008   5.490   1.554  15.845  0.7700 -2.2189  0.9493
14173TIP3   OH264009   6.563   4.170  15.688  0.0203  0.6402  0.0639
14173TIP3    H164010   6.534   4.134  15.605 -0.1269 -0.3338  0.5205
14173TIP3    H264011   6.499   4.238  15.709 -1.6071 -1.0239  0.7386
14174TIP3   OH264012   2.993   4.342   3.314  0.2837 -0.9344 -0.0128
14174TIP3    H164013   3.010   4.435   3.297  0.3039 -1.0245 -0.5028
14174TIP3    H264014   2.938   4.342   3.393 -1.0896 -0.4082 -0.9386
14175TIP3   OH264015   4.238   0.482  14.877  0.3861  0.4482 -0.4470
14175TIP3    H164016   4.262   0.524  14.959 -1.0057  0.5562 -0.0822
14175TIP3    H264017   4.193   0.402  14.903 -0.3343  0.6338 -1.0906
14176TIP3   OH264018   3.212   6.801   5.423 -0.3510  0.2700 -0.8611
14176TIP3    H164019   3.220   6.888   5.463  1.1757 -1.3973  2.6921
14176TIP3    H264020   3.118   6.780   5.431 -0.0688 -0.0667  2.1279
14177TIP3   OH264021   6.649   3.820   3.182  0.2662  0.4186  0.3619
14177TIP3    H164022   6.684   3.783   3.264 -0.5849 -0.8830  0.1640
14177TIP3    H264023   6.720   3.808   3.119  1.1576  1.9854  1.0367
14178TIP3   OH264024   2.345   1.291  12.588  0.3234 -0.0077 -0.2162
14178TIP3    H164025   2.405   1.235  12.539  1.8565  1.5563 -0.1751
14178TIP3    H264026   2.387   1.304  12.673  0.5026  2.0438 -0.6017
14179TIP3   OH264027   3.599   6.748  11.411 -0.0303  0.5221  0.2715
14179TIP3    H164028   3.652   6.671  11.433 -0.8775 -0.1709 -0.0497
14179TIP3    H264029   3.547   6.764  11.490 -1.9228 -0.9993 -0.6024
14180TIP3   OH264030   0.164   1.654   4.660  0.2147  0.2647  0.3046
14180TIP3    H164031   0.104   1.709   4.609  1.2918  0.6027 -0.6145
14180TIP3    H264032   0.248   1.661   4.615  0.4415 -1.9503  0.3299
14181TIP3   OH264033   0.421   2.521  11.605  0.8054  0.2966  0.0046
14181TIP3    H164034   0.479   2.597  11.611  1.4792 -0.1338 -0.9012
14181TIP3    H264035   0.455   2.460  11.671  0.3458  0.7193  0.6380
14182TIP3   OH264036   4.706   2.362   4.175 -0.8457  0.1139  0.1392
14182TIP3    H164037   4.787   2.386   4.220 -0.0889 -0.1565 -1.0440
14182TIP3    H264038   4.732   2.350   4.083 -2.3852  0.8306 -0.4112
14183TIP3   OH264039   6.000   1.400   6.356  0.3992 -0.1761 -0.0771
14183TIP3    H164040   6.035   1.363   6.436 -1.2048 -0.1749  0.6377
14183TIP3    H264041   5.994   1.326   6.295 -0.5404 -0.6266  0.5600
14184TIP3   OH264042   4.845   3.450   3.754  0.2435 -0.1188 -0.4864
14184TIP3    H164043   4.888   3.368   3.729 -1.6331 -0.6590 -1.9845
14184TIP3    H264044   4.803   3.430   3.838 -0.9256 -0.9669 -1.2567
14185TIP3   OH264045   5.154   4.198  13.872  0.2718 -0.1224  0.2808
14185TIP3    H164046   5.059   4.201  13.881  0.1586 -0.8653 -0.5443
14185TIP3    H264047   5.168   4.155  13.788  1.3382 -0.3454  0.5682
14186TIP3   OH264048   6.223   0.537  15.319  0.4364  0.0221  0.1856
14186TIP3    H164049   6.293   0.506  15.262 -0.0122 -0.8237  0.0894
14186TIP3    H264050   6.225   0.479  15.394  0.5386  0.6717  0.6884
14187TIP3   OH264051   2.291   1.878  11.161  0.0771  0.3984  0.7897
14187TIP3    H164052   2.263   1.897  11.250  2.0537  1.6291  1.1900
14187TIP3    H264053   2.321   1.787  11.163  1.5068  0.8708  1.7689
14188TIP3   OH264054   6.651   2.153  11.977 -0.0486  0.2916 -0.5180
14188TIP3    H164055   6.744   2.152  12.001 -0.3529  0.8695  0.7218
14188TIP3    H264056   6.648   2.207  11.898  0.4261  1.8848  0.5260
14189TIP3   OH264057   2.202   6.158  16.180  0.0230 -0.5106 -0.3969
14189TIP3    H164058   2.107   6.146  16.174  0.1631 -1.4775 -0.7633
14189TIP3    H264059   2.232   6.088  16.238  0.5460 -0.3687 -0.4933
14190TIP3   OH264060   0.083   1.493  13.606 -0.4922 -0.3778 -0.0322
14190TIP3    H164061   0.002   1.447  13.630 -0.2991  0.2192  1.8064
14190TIP3    H264062   0.073   1.580  13.645 -0.0620  0.5591 -1.9558
14191TIP3   OH264063   0.487   4.304   5.132  0.2389 -0.4371 -0.0285
14191TIP3    H164064   0.471   4.235   5.068  3.0808  0.6716 -2.0510
14191TIP3    H264065   0.508   4.257   5.213 -1.8615 -1.8555 -0.2675
14192TIP3   OH264066   0.205   4.704   4.711  0.5225 -0.2961  0.1523
14192TIP3    H164067   0.219   4.657   4.794  1.2594 -0.8991 -0.3082
14192TIP3    H264068   0.123   4.670   4.678  0.4448 -0.3713  0.4165
14193TIP3   OH264069   2.821   4.944   6.312 -0.5416  0.1237  0.4826
14193TIP3    H164070   2.882   4.989   6.370  2.1371 -0.6437 -1.6252
14193TIP3    H264071   2.811   5.002   6.237 -2.9419  0.5224  1.0810
14194TIP3   OH264072   3.469   0.243   5.077  0.0991  0.0189 -0.2405
14194TIP3    H164073   3.437   0.295   5.151 -0.9109  0.6018 -1.0709
14194TIP3    H264074   3.444   0.294   5.000  2.0343 -0.0854 -0.9598
14195TIP3   OH264075   6.023   6.241  14.168 -0.6423 -0.2890 -0.3138
14195TIP3    H164076   5.944   6.250  14.115 -0.3361  2.7618 -0.3172
14195TIP3    H264077   6.084   6.193  14.112 -1.3575  0.2449 -1.5622
14196TIP3   OH264078   2.839   2.156  14.934  0.6294  0.0430 -0.6171
14196TIP3    H164079   2.866   2.102  14.860  0.7360  1.7610 -1.8467
14196TIP3    H264080   2.904   2.225  14.939 -1.1120  1.7392 -0.8842
14197TIP3   OH264081   1.075   6.728   2.256  0.1904 -0.3393  0.3869
14197TIP3    H164082   1.008   6.660   2.258  1.0638 -1.3739 -2.9892
14197TIP3    H264083   1.158   6.680   2.255  0.9032  0.8560  0.4808
14198TIP3   OH264084   0.145   5.265  11.658 -0.0576  0.6310 -0.4654
14198TIP3    H164085   0.117   5.322  11.587  0.2055  0.1618 -0.9459
14198TIP3    H264086   0.226   5.225  11.627 -0.0847  0.2191 -0.0153
14199TIP3   OH264087   2.826   1.766   0.714 -0.0488  0.3044  0.7000
14199TIP3    H164088   2.749   1.711   0.704 -0.8303  1.0834  2.1749
14199TIP3    H264089   2.835   1.812   0.631 -1.6311  0.7767  0.7830
14200TIP3   OH264090   0.061   3.561   0.677 -0.1993 -0.5149  0.1873
14200TIP3    H164091   0.049   3.550   0.583 -0.7126 -0.0212  0.1953
14200TIP3    H264092  -0.020   3.528   0.715 -1.0882  1.7358  0.3110
14201TIP3   OH264093   2.863   1.265  17.192 -0.1304 -0.1908 -0.1144
14201TIP3    H164094   2.826   1.337  17.143  0.1077 -1.9791 -3.0492
14201TIP3    H264095   2.823   1.187  17.154  1.8367 -1.7666  0.9514
14202TIP3   OH264096   3.302   6.305   2.283 -0.1729 -0.1032  0.0126
14202TIP3    H164097   3.240   6.363   2.239  1.4650  0.3268 -1.8053
14202TIP3    H264098   3.278   6.217   2.254  0.2317  0.0891 -0.9237
14203TIP3   OH264099   1.874   4.321   0.229  0.4039  0.0553  0.0446
14203TIP3    H164100   1.855   4.409   0.261  1.7619  0.0819  0.8223
14203TIP3    H264101   1.911   4.334   0.142 -1.9069  0.0709 -0.9787
14204TIP3   OH264102   2.979   5.526  12.003 -0.1871 -0.6113  0.4126
14204TIP3    H164103   2.971   5.621  12.003  1.4647 -0.3911 -2.4699
14204TIP3    H264104   2.966   5.500  12.094  1.7888  2.5914  1.6765
14205TIP3   OH264105   2.413   3.296   1.065  0.3143 -0.0411  0.9366
14205TIP3    H164106   2.428   3.355   0.991  0.7161 -0.0292  1.0301
14205TIP3    H264107   2.478   3.226   1.055  1.0994  0.5344  1.8817
14206TIP3   OH264108   2.285   3.448   0.051  0.2289 -0.2671  0.0760
14206TIP3    H164109   2.280   3.491   0.137 -0.3222  0.3786 -0.2730
14206TIP3    H264110   2.354   3.495   0.005  1.8480 -1.8565  0.8426
14207TIP3   OH264111   1.436   5.115  13.013 -0.2162 -0.8620 -0.1450
14207TIP3    H164112   1.356   5.124  13.066  0.2828  0.9898  0.3225
14207TIP3    H264113   1.414   5.049  12.948 -1.7451 -1.2305  0.7112
14208TIP3   OH264114   2.584   4.898  12.114  0.1663  0.6193 -0.2002
14208TIP3    H164115   2.562   4.871  12.203  1.0527 -0.7751 -0.3714
14208TIP3    H264116   2.542   4.833  12.058  0.7889  0.6596 -0.7257
14209TIP3   OH264117   0.838   6.539  14.955  0.4505  0.4907 -0.6446
14209TIP3    H164118   0.929   6.538  14.985 -0.1156  1.3632  1.1878
14209TIP3    H264119   0.805   6.452  14.976  0.4054  0.6988  0.1385
14210TIP3   OH264120   4.692   5.847  15.162  0.1587  0.4349  0.1617
14210TIP3    H164121   4.693   5.938  15.191  0.7669  0.7560 -0.8041
14210TIP3    H264122   4.784   5.819  15.170 -0.0423 -0.1163  0.5364
14211TIP3   OH264123   2.458   6.122   0.908  0.7291  0.1731 -0.4145
14211TIP3    H164124   2.527   6.056   0.903 -0.7742 -1.4194 -0.6284
14211TIP3    H264125   2.482   6.186   0.842  1.1267 -1.2204 -1.6513
14212TIP3   OH264126   2.697   3.286  12.258  0.4378 -0.5162 -0.4103
14212TIP3    H164127   2.669   3.196  12.270  0.2680 -0.5861 -1.2674
14212TIP3    H264128   2.701   3.297  12.163 -0.9873  0.8091 -0.3454
14213TIP3   OH264129   0.350   6.041   0.413 -0.7332  0.1487  0.0807
14213TIP3    H164130   0.284   6.061   0.347  0.5942  0.3519 -1.2020
14213TIP3    H264131   0.393   5.962   0.381 -1.2376 -0.7790  1.5978
14214TIP3   OH264132   4.032   0.348  15.510 -0.2168  0.4139  0.3404
14214TIP3    H164133   4.101   0.396  15.556 -0.5783  0.2602  1.0577
14214TIP3    H264134   4.024   0.266  15.559  2.0168 -1.4276 -2.2383
14215TIP3   OH264135   3.794   3.948   1.650  0.3103  0.5221 -0.1666
14215TIP3    H164136   3.714   3.897   1.663 -0.2405  0.8413 -2.0316
14215TIP3    H264137   3.854   3.888   1.606 -0.8542  1.8168 -3.7148
14216TIP3   OH264138   5.621   1.773  13.886 -0.1489  0.0719 -0.4073
14216TIP3    H164139   5.611   1.817  13.970  0.6529 -0.1011 -0.2073
14216TIP3    H264140   5.704   1.806  13.852  0.4892 -1.2991 -0.2327
14217TIP3   OH264141   3.435   6.535   0.904  0.3070 -0.2987  0.3686
14217TIP3    H164142   3.415   6.511   0.814  1.3012  0.4587 -0.0592
14217TIP3    H264143   3.401   6.624   0.913  0.8425 -0.1058  0.5225
14218TIP3   OH264144   5.772   6.372  15.316  0.2347 -0.5565 -0.0308
14218TIP3    H164145   5.772   6.368  15.221 -1.4976 -0.8915 -0.0375
14218TIP3    H264146   5.692   6.421  15.338  0.3544 -0.9153  1.2538
14219TIP3   OH264147   1.505   6.615  15.498  0.1901  0.9079 -0.2204
14219TIP3    H164148   1.592   6.643  15.468  0.5506  0.5601  0.4665
14219TIP3    H264149   1.490   6.665  15.578 -0.2246  0.9336 -0.3153
14220TIP3   OH264150   0.871   6.568   3.113 -0.3598  0.5716 -0.5144
14220TIP3    H164151   0.786   6.556   3.155  0.0066 -0.6628 -0.1199
14220TIP3    H264152   0.875   6.662   3.092 -2.7993  0.2551 -2.6239
14221TIP3   OH264153   4.320   2.566  16.685 -0.1220 -0.0711  0.2815
14221TIP3    H164154   4.312   2.492  16.625 -0.4536  1.1666 -1.2335
14221TIP3    H264155   4.410   2.596  16.673 -0.8705  1.6553 -1.4233
14222TIP3   OH264156   2.105   2.259  12.186 -0.0980  0.4266  0.0138
14222TIP3    H164157   2.065   2.196  12.127  2.1471 -0.7913 -0.2486
14222TIP3    H264158   2.198   2.259  12.163  0.4902  1.3890  2.2201
14223TIP3   OH264159   3.869   3.092   4.589 -0.1057  0.0040  0.2075
14223TIP3    H164160   3.877   3.006   4.548  2.1941  1.7009 -3.0401
14223TIP3    H264161   3.794   3.133   4.545  0.6201  0.7732 -0.3137
14224TIP3   OH264162   2.960   2.508  11.366 -0.1216 -0.5968  0.0571
14224TIP3    H164163   2.883   2.524  11.312 -0.6916 -2.6809  0.1979
14224TIP3    H264164   2.954   2.574  11.436 -0.7242  0.4907 -1.0002
14225TIP3   OH264165   5.581   6.395  10.778  0.2262 -0.0717  0.3520
14225TIP3    H164166   5.650   6.424  10.838  1.2051 -0.8134 -0.3931
14225TIP3    H264167   5.511   6.363  10.835  1.3928 -1.3345  1.0959
14226TIP3   OH264168   6.112   3.753  13.296 -0.0563 -0.1487  0.2887
14226TIP3    H164169   6.136   3.690  13.227 -1.6794 -1.5910  1.0106
14226TIP3    H264170   6.114   3.838  13.252 -0.2865 -0.9644 -1.3494
14227TIP3   OH264171   0.166   3.312  15.706 -0.5408 -0.2127 -0.1888
14227TIP3    H164172   0.234   3.376  15.729 -0.5272 -1.0767  2.3469
14227TIP3    H264173   0.170   3.306  15.611  0.9576  1.9188 -0.2890
14228TIP3   OH264174   1.660   1.934   5.566  0.5011  0.2332  0.1192
14228TIP3    H164175   1.723   1.908   5.499  3.5650  2.4440  2.0060
14228TIP3    H264176   1.679   1.877   5.641 -0.9495 -0.2882  0.0971
14229TIP3   OH264177   2.997   0.731   4.285  0.1352  0.4367 -0.3697
14229TIP3    H164178   3.046   0.806   4.253  0.4234  0.2812 -0.2898
14229TIP3    H264179   3.009   0.732   4.380 -1.3328  1.3280 -0.1800
14230TIP3   OH264180   3.090   4.741   0.850 -0.2733  0.0620 -0.6722
14230TIP3    H164181   3.009   4.729   0.899  0.5865 -1.2839  0.4380
14230TIP3    H264182   3.141   4.662   0.867  1.3281  0.9397 -1.2733
14231TIP3   OH264183   6.792   4.661  16.613  0.3536  0.2697 -0.2618
14231TIP3    H164184   6.697   4.648  16.617  0.3864  0.4385  1.1637
14231TIP3    H264185   6.803   4.755  16.600  0.3146  0.1047 -1.5840
14232TIP3   OH264186   6.583   5.012   2.299  0.0556 -0.3117 -0.4051
14232TIP3    H164187   6.492   5.037   2.315  0.5630  1.1931  0.2109
14232TIP3    H264188   6.633   5.065   2.361  1.2189 -2.4837  0.5642
14233TIP3   OH264189   4.022   4.209  14.144 -0.3624 -0.4579 -0.8615
14233TIP3    H164190   4.082   4.165  14.204  2.0527  0.7527 -2.3119
14233TIP3    H264191   3.987   4.282  14.196  1.2477  0.2260 -0.6948
14234TIP3   OH264192   6.031   4.053  12.788 -0.1958 -0.7603 -0.1709
14234TIP3    H164193   6.116   4.074  12.827 -0.6705 -1.8925  1.5313
14234TIP3    H264194   6.000   4.135  12.751  0.6738  0.1457  1.0858
14235TIP3   OH264195   4.571   0.119   3.442 -0.2940 -0.3312  0.2300
14235TIP3    H164196   4.483   0.107   3.405  0.4178 -1.7933 -1.0587
14235TIP3    H264197   4.556   0.170   3.522 -2.5282 -2.0695  0.9896
14236TIP3   OH264198   4.802   0.613  12.835  0.0228  0.0093 -0.3808
14236TIP3    H164199   4.719   0.652  12.809 -0.1531 -1.5717 -2.3879
14236TIP3    H264200   4.777   0.539  12.891  0.1421  0.1979 -0.0764
14237TIP3   OH264201   5.036   5.472  11.964  0.2452  0.4890  0.2649
14237TIP3    H164202   5.105   5.480  12.029  0.8431 -1.6659 -0.0799
14237TIP3    H264203   4.965   5.528  11.997  1.6951  1.7862  1.2042
14238TIP3   OH264204   3.789   2.398  12.705 -0.1061 -0.7363  0.0980
14238TIP3    H164205   3.876   2.432  12.683 -0.5425 -1.5212 -3.1242
14238TIP3    H264206   3.803   2.344  12.783  2.1438 -0.1947  0.1043
14239TIP3   OH264207   2.582   0.354  14.767 -0.0708 -0.3476  0.3687
14239TIP3    H164208   2.651   0.395  14.819 -0.9560  0.1541  1.1813
14239TIP3    H264209   2.502   0.370  14.817 -0.8242 -0.6356 -0.7198
14240TIP3   OH264210   2.708   1.955   3.672 -0.3036  0.2381 -0.7476
14240TIP3    H164211   2.666   1.914   3.748 -2.7129  1.6525 -1.2609
14240TIP3    H264212   2.636   1.970   3.611  1.0174  2.5153 -1.7787
14241TIP3   OH264213   0.849   2.147  13.477 -1.2511 -0.6350 -0.0137
14241TIP3    H164214   0.808   2.081  13.422 -2.5452  0.5128 -0.4639
14241TIP3    H264215   0.791   2.223  13.471 -0.2645  0.2475  1.1925
14242TIP3   OH264216   3.839   3.776   5.596 -0.1389 -0.0053  0.7844
14242TIP3    H164217   3.753   3.760   5.556  0.0710  0.1402  0.2785
14242TIP3    H264218   3.849   3.871   5.594  0.9300 -0.1503 -1.0155
14243TIP3   OH264219   0.897   0.131   1.284  0.1887  0.0988  0.5156
14243TIP3    H164220   0.816   0.171   1.316  0.0997  0.1138  0.2690
14243TIP3    H264221   0.955   0.130   1.361 -0.3356 -0.6753  0.9059
14244TIP3   OH264222   3.530   6.290   1.538  0.1636 -0.4614 -0.1187
14244TIP3    H164223   3.546   6.378   1.504  0.9401 -0.7712 -0.5752
14244TIP3    H264224   3.502   6.240   1.461  0.4655 -0.8004 -0.0078
14245TIP3   OH264225   1.897   3.289  13.150 -0.6901  0.7049  0.0025
14245TIP3    H164226   1.991   3.273  13.139 -0.8946  0.7674 -2.0441
14245TIP3    H264227   1.890   3.384  13.162 -0.2616  0.3845  3.0829
14246TIP3   OH264228   2.312   3.581  13.275 -0.1531  0.3090  0.3794
14246TIP3    H164229   2.381   3.515  13.274  1.0292  1.4703  1.5811
14246TIP3    H264230   2.242   3.543  13.327  0.1306 -0.3643  0.2712
14247TIP3   OH264231   4.152   6.807  10.883  0.3767  0.0698 -0.0060
14247TIP3    H164232   4.176   6.753  10.807 -2.3830 -0.1743 -0.7350
14247TIP3    H264233   4.158   6.897  10.851  1.9480  0.1064  0.3276
14248TIP3   OH264234   2.554   1.797  15.740 -0.4349  0.2308 -0.1414
14248TIP3    H164235   2.591   1.859  15.804  0.7880 -2.6263  2.0067
14248TIP3    H264236   2.485   1.752  15.787  0.1694 -1.6014 -0.9811
14249TIP3   OH264237   0.419   2.270   4.237 -0.3283 -0.3396  0.0907
14249TIP3    H164238   0.399   2.360   4.210 -0.3901 -0.7402 -1.2165
14249TIP3    H264239   0.338   2.222   4.221 -0.4747 -0.5187  1.3269
14250TIP3   OH264240   2.237   4.000   2.744 -0.0182  0.4587 -0.3471
14250TIP3    H164241   2.295   4.058   2.793 -0.0109 -0.4368  0.7154
14250TIP3    H264242   2.161   4.054   2.722  1.0100  1.5117 -1.3505
14251TIP3   OH264243   4.324   0.180   4.049  0.3569 -0.0121  0.0576
14251TIP3    H164244   4.334   0.240   3.976 -0.5614  1.5539  1.2059
14251TIP3    H264245   4.414   0.155   4.072  0.6455 -0.5194 -1.5794
14252TIP3   OH264246   4.133   6.487   5.240 -0.0583 -0.1974  0.3495
14252TIP3    H164247   4.112   6.577   5.263  2.9829  0.7893 -0.4406
14252TIP3    H264248   4.056   6.454   5.195 -1.6867  1.5882  1.7894
14253TIP3   OH264249   1.435   3.958  16.168  0.0755 -0.3650  0.3512
14253TIP3    H164250   1.498   3.961  16.240  0.0318 -2.0783  0.4959
14253TIP3    H264251   1.352   3.935  16.210  0.3028 -2.6480 -0.3596
14254TIP3   OH264252   1.920   4.966  11.545 -0.5428  1.1161 -0.8868
14254TIP3    H164253   1.902   4.878  11.579  1.6038  1.7031  1.9844
14254TIP3    H264254   1.834   5.006  11.534 -1.4365 -0.2825  0.7628
14255TIP3   OH264255   3.873   1.174   4.412  0.0898  0.4368 -0.7004
14255TIP3    H164256   3.810   1.246   4.406  0.1104  0.4354 -0.9137
14255TIP3    H264257   3.885   1.161   4.506  0.8526  1.3957 -0.6511
14256TIP3   OH264258   5.967   3.584   3.158 -0.0434 -0.1708 -0.0702
14256TIP3    H164259   5.929   3.598   3.072  2.1108  0.3599 -0.9760
14256TIP3    H264260   6.033   3.653   3.167 -0.0349 -0.3907  1.8817
14257TIP3   OH264261   3.574   1.254  15.644  0.1622 -0.0905  0.4775
14257TIP3    H164262   3.594   1.317  15.576  2.4769 -1.5788 -0.2601
14257TIP3    H264263   3.480   1.237  15.634  0.0639  1.2550 -0.9998
14258TIP3   OH264264   5.976   6.550  15.374  0.0407  0.0523  0.0114
14258TIP3    H164265   6.024   6.544  15.291  0.8597  0.3678  0.4607
14258TIP3    H264266   5.900   6.493  15.362 -0.5739  1.1421 -1.4582
14259TIP3   OH264267   1.396   1.731   5.786  0.1856  0.2225 -0.2629
14259TIP3    H164268   1.326   1.789   5.756 -0.7568  0.2326  1.8637
14259TIP3    H264269   1.375   1.646   5.747 -0.3529  0.5052 -0.5993
14260TIP3   OH264270   1.022   3.944  16.942 -0.0921 -0.2786 -0.2171
14260TIP3    H164271   1.077   3.867  16.933 -0.8643 -0.9307  0.5898
14260TIP3    H264272   0.945   3.926  16.887  0.3512  0.5105 -1.1197
14261TIP3   OH264273   0.805   6.773   2.066  0.5807  0.0898  0.1483
14261TIP3    H164274   0.818   6.753   1.973 -0.2797 -1.1185  0.2660
14261TIP3    H264275   0.791   6.867   2.069  1.2278  0.2242 -0.8807
14262TIP3   OH264276   0.360   4.479   1.611  0.4187 -0.4892 -0.1875
14262TIP3    H164277   0.335   4.421   1.683  2.1011 -1.0236 -0.0240
14262TIP3    H264278   0.332   4.432   1.532 -1.6214  0.1952  0.0968
14263TIP3   OH264279   4.366   1.383  12.090 -0.2411 -0.3496 -0.7063
14263TIP3    H164280   4.413   1.300  12.089 -3.1556 -2.0983  0.7054
14263TIP3    H264281   4.296   1.371  12.025 -0.1483  1.3432 -1.1332
14264TIP3   OH264282   0.657   3.666  17.204 -0.5965  0.0221  0.1714
14264TIP3    H164283   0.622   3.602  17.267 -0.5016  1.2273  1.4762
14264TIP3    H264284   0.668   3.616  17.123 -0.8759 -1.5247  1.0577
14265TIP3   OH264285   0.963   2.507  16.326 -0.1802 -0.1723 -0.4924
14265TIP3    H164286   1.045   2.465  16.299  0.3676  0.8045 -0.3722
14265TIP3    H264287   0.927   2.544  16.245 -0.7786 -1.0795 -0.6416
14266TIP3   OH264288   5.199   5.891   4.979  0.0579  0.2211 -0.0563
14266TIP3    H164289   5.166   5.806   5.010  1.7958 -0.1191  0.9447
14266TIP3    H264290   5.179   5.892   4.886 -1.3245 -0.6425  0.2114
14267TIP3   OH264291   1.584   5.557  11.440  0.3521 -0.2046  0.4024
14267TIP3    H164292   1.661   5.530  11.490  0.7256  1.5833  0.8274
14267TIP3    H264293   1.511   5.547  11.501  0.5594  0.1842  0.7203
14268TIP3   OH264294   3.508   5.204   1.662  0.0039  0.3706  0.1657
14268TIP3    H164295   3.444   5.273   1.645  0.3635  0.6685 -0.0055
14268TIP3    H264296   3.487   5.171   1.749 -1.7626 -1.0458 -0.7664
14269TIP3   OH264297   4.492   0.759   1.484  0.0936 -0.2559  0.0886
14269TIP3    H164298   4.533   0.674   1.495 -0.0842 -0.2234  1.0767
14269TIP3    H264299   4.494   0.798   1.572 -0.6793  0.3653 -0.1644
14270TIP3   OH264300   0.553   2.190   1.840  0.0346 -0.1741  0.2802
14270TIP3    H164301   0.554   2.112   1.895 -1.4000  0.3429  1.0609
14270TIP3    H264302   0.625   2.245   1.873 -0.8578  0.1634  1.6937
14271TIP3   OH264303   2.758   1.951  16.672  0.8076 -0.0624  0.2890
14271TIP3    H164304   2.750   1.946  16.767 -1.8376  1.7807  0.2178
14271TIP3    H264305   2.750   1.860  16.643 -1.7336 -0.3305  1.6501
14272TIP3   OH264306   1.126   1.666  17.084  0.2067 -0.6252  0.6336
14272TIP3    H164307   1.142   1.580  17.122 -1.4290 -0.5887  1.4298
14272TIP3    H264308   1.155   1.657  16.993  0.5054 -1.8658  0.8359
14273TIP3   OH264309   1.001   0.224  14.160  0.2670 -0.2827 -0.3992
14273TIP3    H164310   0.925   0.220  14.218  0.1160 -3.0785 -0.7181
14273TIP3    H264311   0.996   0.310  14.120 -1.4364  0.4586  1.3223
14274TIP3   OH264312   5.763   0.443  16.301 -0.1394 -0.6448  0.1097
14274TIP3    H164313   5.853   0.476  16.302 -0.7351  1.0214  0.9991
14274TIP3    H264314   5.770   0.351  16.323  1.5139 -0.9307 -1.5349
14275TIP3   OH264315   4.526   2.609  15.985  0.0360 -0.3633  0.1160
14275TIP3    H164316   4.610   2.655  15.979 -0.4396  0.4426 -0.4688
14275TIP3    H264317   4.466   2.662  15.933 -0.3528 -2.0181 -1.1858
14276TIP3   OH264318   0.359   3.523   4.319 -0.4051  0.0790  0.5441
14276TIP3    H164319   0.398   3.458   4.377 -0.7402  0.0069  0.6916
14276TIP3    H264320   0.267   3.497   4.312  0.2034 -1.4348 -2.1492
14277TIP3   OH264321   0.176   2.050   0.437 -0.5533  0.7334 -0.1701
14277TIP3    H164322   0.201   1.962   0.467 -0.9222  0.4514 -0.6844
14277TIP3    H264323   0.184   2.046   0.341  0.8922  1.7104 -0.1045
14278TIP3   OH264324   0.721   3.137   3.138  0.1438 -0.2318 -0.0691
14278TIP3    H164325   0.655   3.201   3.112 -1.1722 -0.9236  1.4798
14278TIP3    H264326   0.785   3.187   3.188 -0.3983  0.0540  0.3455
14279TIP3   OH264327   5.433   6.053  11.353 -0.2540 -0.3596  0.1400
14279TIP3    H164328   5.488   6.022  11.281  1.0488  1.8818  0.1323
14279TIP3    H264329   5.465   6.004  11.429  1.2947  0.4247  0.0041
14280TIP3   OH264330   1.351   1.158  15.854 -0.3482 -0.4103  0.3299
14280TIP3    H164331   1.317   1.071  15.834 -1.5117  0.2729 -0.7365
14280TIP3    H264332   1.399   1.184  15.775 -2.1570  0.9338 -0.3753
14281TIP3   OH264333   2.113   5.364  11.841  0.2460 -0.0386  1.0260
14281TIP3    H164334   2.188   5.324  11.797  0.4968  1.6320 -0.0857
14281TIP3    H264335   2.142   5.373  11.932  0.2773 -2.1117  1.2629
14282TIP3   OH264336   3.446   4.275   4.742 -0.3221  0.6470 -0.0544
14282TIP3    H164337   3.433   4.370   4.738  1.4044  0.9421  1.3688
14282TIP3    H264338   3.458   4.255   4.835  0.2070 -0.8477 -0.4234
14283TIP3   OH264339   4.973   1.804   0.583 -0.2024  0.5111  0.0677
14283TIP3    H164340   4.979   1.873   0.649 -0.7917 -0.3247  1.0008
14283TIP3    H264341   4.981   1.850   0.500  3.3471  1.2874  0.7643
14284TIP3   OH264342   0.471   1.140   3.657  0.0925 -0.6010  0.2306
14284TIP3    H164343   0.561   1.168   3.676 -0.6309  0.9948  1.4034
14284TIP3    H264344   0.472   1.045   3.671  1.5195 -0.5554  0.5006
14285TIP3   OH264345   2.519   0.508  14.492  0.2695  0.6810  0.2778
14285TIP3    H164346   2.493   0.421  14.462  1.0621  0.8324 -0.9179
14285TIP3    H264347   2.575   0.492  14.568  1.0118  0.0902 -0.3785
14286TIP3   OH264348   3.939   4.044   4.453  0.0820  0.1287  0.0203
14286TIP3    H164349   4.014   4.065   4.509 -0.0100 -0.0624  0.2166
14286TIP3    H264350   3.903   4.128   4.428  0.5932  0.2324 -0.3791
14287TIP3   OH264351   0.046   4.236  12.089 -0.3741  0.2902  0.7249
14287TIP3    H164352   0.062   4.321  12.130  1.1374  0.7922 -0.8673
14287TIP3    H264353   0.025   4.257  11.998  0.3263 -1.0484  0.2461
14288TIP3   OH264354   0.498   4.896   2.350  0.2901 -0.1123  0.5079
14288TIP3    H164355   0.429   4.944   2.304  0.9722  1.4588  1.0834
14288TIP3    H264356   0.463   4.882   2.438  0.1190 -0.6338  0.3605
14289TIP3   OH264357   0.753   3.889   5.975 -0.2663 -0.1284 -0.1442
14289TIP3    H164358   0.835   3.890   6.025  0.0122 -1.1639 -0.5742
14289TIP3    H264359   0.753   3.805   5.931 -1.3970  0.0244 -0.4427
14290TIP3   OH264360   2.935   1.903  16.348 -0.4138 -0.1043  0.2370
14290TIP3    H164361   2.844   1.931  16.338 -0.4827 -0.1612  0.7007
14290TIP3    H264362   2.929   1.811  16.372 -0.1688 -0.7698 -2.0961
14291TIP3   OH264363   3.253   4.634   0.517 -0.7681 -0.1146  0.4222
14291TIP3    H164364   3.341   4.668   0.533 -0.3724  0.6734 -3.1142
14291TIP3    H264365   3.195   4.706   0.541 -0.5718 -0.8807  3.4571
14292TIP3   OH264366   4.738   0.974   4.152  0.2634  0.5642  0.1496
14292TIP3    H164367   4.810   0.918   4.182 -0.6828  0.2265  1.8721
14292TIP3    H264368   4.781   1.048   4.110  1.5716 -0.6398 -0.6919
14293TIP3   OH264369   3.422   6.370  12.757  0.3934  1.2597 -0.0912
14293TIP3    H164370   3.444   6.281  12.783  1.8110  1.2968 -1.1394
14293TIP3    H264371   3.494   6.424  12.790 -0.8687  2.1437  1.2688
14294TIP3   OH264372   6.736   4.828   2.623  0.4697  0.3535  0.0140
14294TIP3    H164373   6.726   4.754   2.684 -1.6511  0.2450 -0.3969
14294TIP3    H264374   6.815   4.873   2.652 -0.4708  0.2799  2.8594
14295TIP3   OH264375   4.493   0.778  11.540  0.4738 -0.2037  0.2703
14295TIP3    H164376   4.568   0.726  11.508  0.2552  0.1198 -0.7932
14295TIP3    H264377   4.499   0.772  11.635  2.4820  0.6953  0.2387
14296TIP3   OH264378   5.111   4.120  13.605  0.1703  0.3250 -0.1852
14296TIP3    H164379   5.029   4.147  13.566 -0.0892 -1.4665 -0.9574
14296TIP3    H264380   5.173   4.115  13.531  0.6400  0.4538  0.1936
14297TIP3   OH264381   3.044   4.801   4.934  0.2683  0.2546  0.2375
14297TIP3    H164382   2.992   4.728   4.967 -0.4220  0.7884  0.3190
14297TIP3    H264383   3.089   4.835   5.012 -0.4674  0.7764  0.4444
14298TIP3   OH264384   0.103   0.631  15.417 -0.1745 -0.1526  0.0358
14298TIP3    H164385   0.012   0.652  15.396 -0.1755  0.0470  0.2456
14298TIP3    H264386   0.099   0.541  15.450 -0.3798  0.0581  0.6054
14299TIP3   OH264387   0.724   5.510   5.880 -0.8962 -0.1499 -0.3179
14299TIP3    H164388   0.736   5.558   5.798 -0.0926 -1.6162 -1.0937
14299TIP3    H264389   0.789   5.546   5.940  0.8034 -1.3399 -1.4004
14300TIP3   OH264390   2.963   4.412   2.308  0.0364 -0.5341 -0.2014
14300TIP3    H164391   2.987   4.319   2.310 -0.8559 -0.8017 -1.6692
14300TIP3    H264392   2.968   4.439   2.400  1.9845 -1.5840  0.0391
14301TIP3   OH264393   1.024   5.639  15.899 -0.5171  0.1841 -0.2337
14301TIP3    H164394   1.105   5.589  15.906 -0.2722  0.6308  0.1691
14301TIP3    H264395   0.963   5.580  15.854  0.1024 -0.0659 -0.7607
14302TIP3   OH264396   5.742   5.358   3.064  0.5569 -0.2155  0.3408
14302TIP3    H164397   5.816   5.386   3.010 -0.0749  1.8752  0.5108
14302TIP3    H264398   5.779   5.348   3.152  1.2669 -2.1814 -0.1499
14303TIP3   OH264399   5.119   0.896  15.914 -0.0220 -0.4327  0.0909
14303TIP3    H164400   5.135   0.831  15.982  0.2453 -0.8776 -0.3926
14303TIP3    H264401   5.202   0.900  15.866  0.8982  2.2587  1.7854
14304TIP3   OH264402   6.403   5.764   5.444 -0.7351  0.3988  0.4875
14304TIP3    H164403   6.455   5.734   5.519  0.3281  2.9867  0.8437
14304TIP3    H264404   6.313   5.743   5.468 -0.2520 -0.3010  1.7686
14305TIP3   OH264405   6.292   2.041  12.566  0.0986 -0.1555  0.6634
14305TIP3    H164406   6.304   1.947  12.581 -0.0164 -0.4470 -1.0365
14305TIP3    H264407   6.211   2.062  12.613  0.4251 -0.7731  1.5194
14306TIP3   OH264408   3.935   0.201   5.848 -0.0276  0.5253  0.8916
14306TIP3    H164409   3.950   0.138   5.918  0.7138 -0.2810  0.0225
14306TIP3    H264410   3.895   0.276   5.891 -0.1577 -0.2154  2.0710
14307TIP3   OH264411   0.796   1.134  16.645  0.0370  0.0184 -0.0296
14307TIP3    H164412   0.712   1.133  16.598  0.1669 -0.3781 -0.2667
14307TIP3    H264413   0.835   1.218  16.623 -1.0001  0.8737  1.3510
14308TIP3   OH264414   6.216   2.310   0.403 -0.2042 -0.3313 -0.0043
14308TIP3    H164415   6.254   2.248   0.339 -0.1616  0.1262 -0.4264
14308TIP3    H264416   6.275   2.306   0.478  1.3867  1.2714 -1.1262
14309TIP3   OH264417   1.946   0.203   5.617 -0.1096 -0.9880  0.2886
14309TIP3    H164418   1.863   0.155   5.620 -0.5309 -0.2943 -0.2215
14309TIP3    H264419   1.955   0.229   5.526  1.5492 -2.5818 -0.0310
14310TIP3   OH264420   5.814   0.728  11.027 -0.1396 -0.3372  0.0073
14310TIP3    H164421   5.742   0.689  10.978 -1.4715 -0.4616  1.9828
14310TIP3    H264422   5.893   0.686  10.992 -1.1419 -1.1550 -1.2991
14311TIP3   OH264423   1.197   0.653   5.147 -0.1266  0.5774 -0.4912
14311TIP3    H164424   1.245   0.707   5.084 -0.7369  1.4273 -0.2307
14311TIP3    H264425   1.254   0.578   5.162  0.4979  0.8964 -1.2518
14312TIP3   OH264426   5.831   3.904  13.223  0.3823 -0.3568  0.2821
14312TIP3    H164427   5.765   3.917  13.291 -1.8679  0.0603 -1.8904
14312TIP3    H264428   5.877   3.824  13.248 -0.4742 -0.2614  2.2174
14313TIP3   OH264429   4.137   6.799  14.682  0.1481  0.0237  0.1426
14313TIP3    H164430   4.170   6.738  14.616  0.1344 -1.1952  1.2402
14313TIP3    H264431   4.042   6.793  14.675  0.1375  0.5511 -0.2943
14314TIP3   OH264432   2.127   6.564   5.768  0.5316  0.4154  0.3160
14314TIP3    H164433   2.196   6.631   5.761 -0.9637  1.9110 -0.4233
14314TIP3    H264434   2.137   6.512   5.688  0.8030  0.6202  0.2134
14315TIP3   OH264435   1.594   3.822  16.856  0.3669 -0.7482  0.1393
14315TIP3    H164436   1.656   3.791  16.790  0.1673 -0.3617 -0.2317
14315TIP3    H264437   1.559   3.904  16.820 -0.5317 -1.0765  0.2373
14316TIP3   OH264438   0.578   3.243  14.652 -0.0626 -0.3514  0.4107
14316TIP3    H164439   0.666   3.279  14.657 -0.5041  0.5483  2.2945
14316TIP3    H264440   0.536   3.272  14.733 -1.4825 -2.3459  0.4358
14317TIP3   OH264441   2.089   3.243   4.725  0.5332  0.3817  0.3726
14317TIP3    H164442   2.156   3.289   4.777  1.0118  1.6835 -1.3549
14317TIP3    H264443   2.012   3.298   4.731  0.3669  0.1556  0.3115
14318TIP3   OH264444   0.426   1.548  16.846 -0.2913 -0.3576  0.2781
14318TIP3    H164445   0.512   1.581  16.871 -0.1776 -0.7362  0.3979
14318TIP3    H264446   0.444   1.460  16.810 -0.6213 -0.4212  0.2646
14319TIP3   OH264447   0.501   0.296   6.550  0.0901  0.3007 -0.4437
14319TIP3    H164448   0.484   0.289   6.644  0.0046  0.6265 -0.4359
14319TIP3    H264449   0.594   0.276   6.542  0.5318  2.1181 -0.0734
14320TIP3   OH264450   5.815   6.730   5.290  0.4774 -0.1722 -0.6236
14320TIP3    H164451   5.868   6.704   5.214  0.9018  1.4171 -0.8922
14320TIP3    H264452   5.801   6.649   5.338  3.7033 -0.5496 -0.2165
14321TIP3   OH264453   1.589   4.195  11.256 -0.1749  0.0278 -0.3877
14321TIP3    H164454   1.646   4.127  11.293  0.4769  0.9185  0.2643
14321TIP3    H264455   1.555   4.156  11.175  1.8697 -0.2795 -1.1146
14322TIP3   OH264456   4.732   3.204   1.740 -0.3267  0.1840  0.6272
14322TIP3    H164457   4.715   3.200   1.646  1.4341 -0.3012  0.3184
14322TIP3    H264458   4.655   3.161   1.780 -1.3486  0.9011 -0.5362
14323TIP3   OH264459   1.257   5.060  12.459  0.1094  0.2071  0.1118
14323TIP3    H164460   1.345   5.038  12.490  0.3144  0.5044 -0.2586
14323TIP3    H264461   1.228   4.981  12.413 -0.3499 -0.3800  1.3750
14324TIP3   OH264462   6.463   3.522  15.536  0.0192  0.1200 -0.1310
14324TIP3    H164463   6.399   3.474  15.483  2.8836 -3.0191 -0.9542
14324TIP3    H264464   6.457   3.482  15.622  0.4207  0.2561 -0.0406
14325TIP3   OH264465   5.514   2.386  13.830  0.5991  0.0342 -0.2558
14325TIP3    H164466   5.468   2.423  13.754  0.0003 -1.3724 -0.5885
14325TIP3    H264467   5.467   2.420  13.906  0.4386  0.4486 -0.5368
14326TIP3   OH264468   6.747   1.884  11.040 -0.1008 -0.0308 -0.0739
14326TIP3    H164469   6.703   1.968  11.054 -2.1250 -1.1442  0.3010
14326TIP3    H264470   6.764   1.851  11.128 -1.4764 -1.1350 -0.2179
14327TIP3   OH264471   4.832   1.998   2.510  0.6001 -0.0011 -0.0960
14327TIP3    H164472   4.907   2.020   2.455  0.1034  0.8418 -0.4360
14327TIP3    H264473   4.757   2.038   2.466 -0.2708 -2.0415 -0.5330
14328TIP3   OH264474   0.819   1.778  13.113 -0.2270 -0.4218  0.3082
14328TIP3    H164475   0.766   1.708  13.076  0.5066 -0.8582  0.0793
14328TIP3    H264476   0.908   1.745  13.111  0.2793  0.9388 -0.8299
14329TIP3   OH264477   3.596   0.616  14.352 -0.6811  0.0520 -0.3821
14329TIP3    H164478   3.501   0.628  14.356 -0.7781 -0.8631  0.0605
14329TIP3    H264479   3.628   0.693  14.304 -1.8266 -0.6624 -2.3441
14330TIP3   OH264480   1.171   1.274   6.165 -0.1235  0.3677 -0.2549
14330TIP3    H164481   1.188   1.368   6.164 -1.3920  0.6050 -2.2682
14330TIP3    H264482   1.250   1.236   6.201  1.4757  2.0086 -1.9187
14331TIP3   OH264483   0.746   6.800  13.717 -0.0028 -0.5428 -0.1825
14331TIP3    H164484   0.657   6.829  13.697 -0.4856 -1.0993  1.1106
14331TIP3    H264485   0.799   6.880  13.714 -0.3014 -0.3958 -2.1886
14332TIP3   OH264486   2.718   1.719  17.259 -0.1961  0.1149  0.1079
14332TIP3    H164487   2.722   1.691  17.351  0.3409 -1.6995 -0.4449
14332TIP3    H264488   2.639   1.679  17.225  0.3761 -0.4282 -0.6013
14333TIP3   OH264489   5.152   6.775   2.760 -0.0685  0.9368 -0.3707
14333TIP3    H164490   5.225   6.787   2.699  0.2149 -0.1164 -0.2436
14333TIP3    H264491   5.160   6.848   2.821  2.6359 -0.7627  1.3952
14334TIP3   OH264492   3.438   3.842   3.718 -0.1682  0.3173  0.0970
14334TIP3    H164493   3.527   3.824   3.747 -0.4944  0.5208  1.2266
14334TIP3    H264494   3.411   3.920   3.767 -0.9185  0.3458 -0.3432
14335TIP3   OH264495   2.777   1.643  12.363 -0.1449 -0.1329  0.0070
14335TIP3    H164496   2.719   1.594  12.305  1.2016  1.6593 -3.0065
14335TIP3    H264497   2.837   1.577  12.398 -0.4907 -1.1530 -1.2824
14336TIP3   OH264498   5.298   3.204   5.372  0.9586  0.4101  0.2878
14336TIP3    H164499   5.231   3.221   5.306  0.0683 -0.6333  0.9062
14336TIP3    H264500   5.340   3.289   5.386 -0.0972  1.0357 -0.2545
14337TIP3   OH264501   4.682   3.279  11.240 -0.1520 -0.2402 -0.0697
14337TIP3    H164502   4.710   3.191  11.215 -0.3989  0.3855 -2.8182
14337TIP3    H264503   4.734   3.337  11.183  0.1917  1.3974  1.8699
14338TIP3   OH264504   4.218   6.482  12.691  0.8570  0.1206 -0.1404
14338TIP3    H164505   4.295   6.530  12.723 -0.9439  2.5467  0.6690
14338TIP3    H264506   4.183   6.438  12.768 -0.0966  1.1929  0.0459
14339TIP3   OH264507   5.851   0.988  16.669  0.0532 -0.2016  0.0205
14339TIP3    H164508   5.822   0.910  16.715 -0.2436  0.7674  1.4948
14339TIP3    H264509   5.771   1.039  16.654  0.5267  0.8837  1.0950
14340TIP3   OH264510   1.042   3.401  14.498 -0.5102 -0.6389  0.2374
14340TIP3    H164511   1.047   3.340  14.424 -1.4521  0.3865 -0.6896
14340TIP3    H264512   0.948   3.411  14.514 -0.5324  3.1497 -1.7868
14341TIP3   OH264513   2.305   3.634  11.683  0.3159 -0.2149  0.4335
14341TIP3    H164514   2.311   3.554  11.735  0.9906  0.1595  0.9546
14341TIP3    H264515   2.255   3.610  11.606  1.7291 -1.5077 -0.0972
14342TIP3   OH264516   4.997   3.161   4.938 -0.0290 -0.2404 -0.2692
14342TIP3    H164517   5.002   3.162   4.843  1.1066 -2.1397 -0.2613
14342TIP3    H264518   4.904   3.148   4.958 -0.4021  1.1311 -1.0914
14343TIP3   OH264519   0.368   0.364  16.554  0.6080 -0.1808  0.2456
14343TIP3    H164520   0.437   0.305  16.584  0.0585 -0.8958  0.1266
14343TIP3    H264521   0.353   0.339  16.463  0.7704  0.5344  0.0188
14344TIP3   OH264522   0.334   4.952  15.715  0.2104  0.0062 -0.9811
14344TIP3    H164523   0.241   4.974  15.714  0.1021 -0.4235 -0.4466
14344TIP3    H264524   0.344   4.891  15.788  1.3858  2.1023  0.6463
14345TIP3   OH264525   1.899   0.169   4.736 -0.1496  0.5423  0.8528
14345TIP3    H164526   1.859   0.113   4.669  0.9388  1.3853 -0.5218
14345TIP3    H264527   1.825   0.208   4.782 -0.9254 -1.3874  1.2974
14346TIP3   OH264528   3.199   6.184  14.447 -0.9067  0.4497  0.2190
14346TIP3    H164529   3.239   6.149  14.527 -0.8167 -3.6010 -1.4655
14346TIP3    H264530   3.271   6.229  14.403 -0.3448  0.6192  1.2806
14347TIP3   OH264531   0.423   1.298   3.190  0.5155  0.2676 -0.9304
14347TIP3    H164532   0.408   1.206   3.171  0.9238  0.3270 -1.5367
14347TIP3    H264533   0.408   1.306   3.285  0.5529 -0.4265 -0.8660
14348TIP3   OH264534   4.086   2.814  16.791 -0.1636  0.0672  0.4188
14348TIP3    H164535   4.068   2.736  16.844  1.1917 -0.2949  0.3718
14348TIP3    H264536   4.053   2.886  16.844 -0.6133 -0.4615  0.8720
14349TIP3   OH264537   2.600   3.294  16.442  0.4618  0.2027  0.5153
14349TIP3    H164538   2.632   3.288  16.533 -1.5123 -1.7441  1.1379
14349TIP3    H264539   2.521   3.239  16.441  1.7639 -1.7737 -2.9704
14350TIP3   OH264540   5.912   1.206  11.193 -0.3355 -0.4321 -0.7812
14350TIP3    H164541   5.818   1.192  11.186 -0.8273  2.3786 -0.5040
14350TIP3    H264542   5.948   1.119  11.207 -2.8736 -1.5784 -1.0370
14351TIP3   OH264543   0.504   5.297  15.300 -0.0369 -0.3257  0.8558
14351TIP3    H164544   0.456   5.304  15.217  0.6178  0.0809  0.5099
14351TIP3    H264545   0.435   5.294  15.367 -0.5527  0.2649  0.3584
14352TIP3   OH264546   3.586   2.473  14.740 -0.5480  0.0013  0.3829
14352TIP3    H164547   3.529   2.416  14.688  0.2459 -1.7248  1.3559
14352TIP3    H264548   3.668   2.476  14.692 -0.7842  0.8161  0.0269
14353TIP3   OH264549   1.746   4.017   4.078 -0.3767 -0.4534 -0.1507
14353TIP3    H164550   1.738   4.101   4.033  1.3311 -0.2493 -0.1137
14353TIP3    H264551   1.776   3.956   4.010  0.2307 -0.6003  0.2455
14354TIP3   OH264552   1.816   3.086  13.350  0.1244  0.0173  0.0904
14354TIP3    H164553   1.844   3.124  13.267  1.1244 -1.0788 -0.0750
14354TIP3    H264554   1.754   3.150  13.386 -1.1160  0.0038 -1.9687
14355TIP3   OH264555   1.777   6.333   4.419 -0.1782 -0.1285 -0.1796
14355TIP3    H164556   1.818   6.263   4.469  0.8686 -0.2300 -1.1542
14355TIP3    H264557   1.821   6.331   4.334  0.9509  2.6504  0.2677
14356TIP3   OH264558   5.063   0.467   5.064  0.1548 -0.2828 -0.0010
14356TIP3    H164559   5.102   0.439   4.981  0.2075  1.0860 -0.4528
14356TIP3    H264560   5.120   0.538   5.095 -0.3706 -0.1801  0.7511
14357TIP3   OH264561   3.712   2.732   4.109  0.2352  0.4690 -0.3689
14357TIP3    H164562   3.643   2.720   4.174  1.4948  1.5759  1.2280
14357TIP3    H264563   3.698   2.663   4.045 -2.3397  0.6797 -0.0643
14358TIP3   OH264564   5.929   2.945   1.327  0.0699 -0.1683  0.3560
14358TIP3    H164565   5.877   2.934   1.247  1.0720 -1.8377 -0.0710
14358TIP3    H264566   5.879   2.899   1.394 -0.4971  0.7786  0.6031
14359TIP3   OH264567   0.226   0.537   2.253  0.1371 -0.3280 -0.0281
14359TIP3    H164568   0.133   0.547   2.273  0.1075  2.8309 -1.4919
14359TIP3    H264569   0.270   0.557   2.336 -0.4004  1.1272 -0.0742
14360TIP3   OH264570   2.958   1.424   0.404  0.0997 -0.2108  0.1318
14360TIP3    H164571   3.012   1.387   0.474 -1.4997 -3.1936 -0.1048
14360TIP3    H264572   2.869   1.416   0.436 -0.4266  1.6500 -0.8181
14361TIP3   OH264573   0.093   3.769  13.277  0.0269 -0.5030  0.0476
14361TIP3    H164574   0.134   3.754  13.363 -1.7154 -2.6104  0.5498
14361TIP3    H264575   0.166   3.759  13.215  0.9993 -0.5593  1.1660
14362TIP3   OH264576   4.668   3.729  11.087  0.2307 -0.1257 -0.1736
14362TIP3    H164577   4.677   3.659  11.022 -1.1652  0.0019 -0.5258
14362TIP3    H264578   4.574   3.736  11.102  0.5552 -0.6280  2.4109
14363TIP3   OH264579   1.403   1.371   0.072 -0.6553 -0.0719 -0.4175
14363TIP3    H164580   1.344   1.306   0.111  0.8817 -2.1220 -1.4025
14363TIP3    H264581   1.346   1.429   0.021 -1.7745 -2.4084 -1.8925
14364TIP3   OH264582   6.601   4.702   2.858  0.2146 -0.1319  0.1022
14364TIP3    H164583   6.565   4.790   2.866 -0.0045 -0.1963 -0.1480
14364TIP3    H264584   6.525   4.645   2.869 -0.0108 -0.2382 -1.8397
14365TIP3   OH264585   4.090   2.228  17.102  0.2665  0.2016  0.1166
14365TIP3    H164586   4.058   2.264  17.020  0.5502 -0.4209 -0.2651
14365TIP3    H264587   4.159   2.167  17.077 -0.5820 -1.0155  0.7366
14366TIP3   OH264588   0.381   5.185  14.905 -0.2869  0.0786 -0.3112
14366TIP3    H164589   0.372   5.094  14.935  0.7435 -0.5220 -1.7584
14366TIP3    H264590   0.336   5.237  14.971  0.9797 -1.3080  1.6926
14367TIP3   OH264591   2.749   4.511  15.744 -0.3393  0.5000 -0.0614
14367TIP3    H164592   2.694   4.579  15.706  1.4070  1.6507 -0.6253
14367TIP3    H264593   2.797   4.556  15.813 -1.5865 -0.9717  1.7891
14368TIP3   OH264594   0.161   2.940   3.797 -0.3677  0.0480 -0.3094
14368TIP3    H164595   0.230   2.875   3.784 -1.2242 -0.9766  0.1793
14368TIP3    H264596   0.137   2.932   3.889 -0.0716  1.4765 -0.1010
14369TIP3   OH264597   0.960   4.934   1.859  0.9089  0.2670 -0.3470
14369TIP3    H164598   0.988   4.843   1.847  2.2582  0.7889 -1.3533
14369TIP3    H264599   0.890   4.946   1.795  0.0618 -0.3346  0.4576
14370TIP3   OH264600   4.408   5.323   4.722 -0.2890 -0.5119 -0.0581
14370TIP3    H164601   4.317   5.345   4.700 -0.6165 -2.4651 -0.8051
14370TIP3    H264602   4.401   5.263   4.796  0.6034  2.2315  2.2950
14371TIP3   OH264603   3.979   5.399   0.895  0.7563  0.2735 -0.4896
14371TIP3    H164604   3.947   5.456   0.965  0.9036  1.3227 -1.2476
14371TIP3    H264605   4.025   5.459   0.835  0.7062 -0.6111 -1.4310
14372TIP3   OH264606   4.710   5.293  13.243  0.1366 -0.7867 -0.1458
14372TIP3    H164607   4.712   5.317  13.336  0.7543 -1.9136  0.1340
14372TIP3    H264608   4.767   5.217  13.236 -0.1342 -0.8885 -1.4063
14373TIP3   OH264609   0.936   0.117   5.391 -0.1868  0.0163 -0.2073
14373TIP3    H164610   0.849   0.119   5.351  0.0431 -1.4130 -0.8186
14373TIP3    H264611   0.923   0.151   5.480 -1.4943 -0.8033 -0.0721
14374TIP3   OH264612   4.465   2.547  12.075  0.0931  0.5826 -0.2173
14374TIP3    H164613   4.543   2.578  12.029  0.8490 -1.3291 -0.2718
14374TIP3    H264614   4.484   2.563  12.167  1.0120 -0.8504 -0.1495
14375TIP3   OH264615   6.071   4.067  15.438 -0.1626 -0.1832 -0.8484
14375TIP3    H164616   6.033   3.984  15.411 -1.5714 -0.1572  1.0253
14375TIP3    H264617   6.060   4.070  15.533  1.4106  1.3780 -0.6803
14376TIP3   OH264618   4.893   6.652   1.202  0.4468 -0.1293 -0.0128
14376TIP3    H164619   4.815   6.690   1.162  0.2393  1.8926  2.1377
14376TIP3    H264620   4.965   6.679   1.146  0.0652  1.8831  0.4104
14377TIP3   OH264621   2.517   6.492  13.570 -0.7125 -0.3833 -0.2289
14377TIP3    H164622   2.460   6.543  13.513 -0.1620  0.0956 -0.3638
14377TIP3    H264623   2.461   6.424  13.606 -1.1186 -0.5444 -1.1581
14378TIP3   OH264624   3.987   3.914  16.503  0.9763  0.0133  0.1243
14378TIP3    H164625   3.956   3.965  16.428  1.6959  0.1891 -0.0613
14378TIP3    H264626   4.053   3.970  16.545  1.1193 -0.3915  0.4523
14379TIP3   OH264627   4.819   6.060  14.900 -0.1829 -0.2054  0.1388
14379TIP3    H164628   4.887   6.126  14.884 -0.1514 -0.3701 -0.3822
14379TIP3    H264629   4.862   5.976  14.884 -0.2308 -0.3572  0.7760
14380TIP3   OH264630   2.341   0.432   0.506 -0.4102 -1.2464 -0.2240
14380TIP3    H164631   2.334   0.510   0.451  1.4816 -1.6032 -0.9996
14380TIP3    H264632   2.372   0.363   0.447  1.2347 -1.7438  1.1875
14381TIP3   OH264633   4.157   2.000  15.772  0.6311 -0.5141  0.1695
14381TIP3    H164634   4.073   1.974  15.810 -0.3136  0.4780 -1.1982
14381TIP3    H264635   4.208   2.031  15.847 -0.3893 -0.6847  0.9450
14382TIP3   OH264636   4.500   5.994  15.614  0.1577  0.5755 -0.1296
14382TIP3    H164637   4.460   6.002  15.528 -0.6477 -2.1464 -0.0530
14382TIP3    H264638   4.594   5.998  15.598  0.0104  0.0462 -1.1363
14383TIP3   OH264639   0.841   1.741  14.764 -0.2068  0.2299 -0.1230
14383TIP3    H164640   0.840   1.695  14.681  0.1093 -0.0279  0.0126
14383TIP3    H264641   0.848   1.672  14.830  0.2341  0.4648  0.0807
14384TIP3   OH264642   2.955   1.260   2.423  0.2500  0.4536 -0.0522
14384TIP3    H164643   2.867   1.260   2.386  0.1085 -1.9167  0.2185
14384TIP3    H264644   2.976   1.352   2.436 -2.1906  1.0396 -0.1358
14385TIP3   OH264645   1.980   5.151   4.825 -0.1045  0.0733 -0.5325
14385TIP3    H164646   1.941   5.235   4.848  1.7628  0.5581  0.9420
14385TIP3    H264647   2.073   5.161   4.843  0.4979 -1.5950 -2.4451
14386TIP3   OH264648   0.395   6.794   3.064 -0.6018 -0.0761  0.4355
14386TIP3    H164649   0.424   6.774   2.975  1.7940  1.5242  0.8011
14386TIP3    H264650   0.344   6.718   3.091 -2.2087 -0.1554 -2.6633
14387TIP3   OH264651   5.418   1.777  16.357 -0.2532  0.2958 -0.0919
14387TIP3    H164652   5.458   1.698  16.395 -0.5427 -0.1370 -0.6822
14387TIP3    H264653   5.463   1.789  16.274  0.4670  1.3189  0.4399
14388TIP3   OH264654   6.093   0.422   4.035 -0.0308 -0.0073 -0.2264
14388TIP3    H164655   6.030   0.424   3.962 -0.9751  1.8149  0.6055
14388TIP3    H264656   6.110   0.328   4.049 -2.8555 -0.5745 -0.2285
14389TIP3   OH264657   1.042   1.816   2.961 -0.5822 -0.4722  0.0424
14389TIP3    H164658   1.103   1.742   2.966 -1.2625 -0.9560  1.8425
14389TIP3    H264659   1.077   1.880   3.023 -0.5370  0.2931 -0.7755
14390TIP3   OH264660   6.335   1.644   3.026  0.0265  0.1012  0.1323
14390TIP3    H164661   6.344   1.735   3.053  0.4698 -0.6562  2.7046
14390TIP3    H264662   6.411   1.628   2.970 -0.1269  1.3431 -0.4372
14391TIP3   OH264663   5.470   4.044   6.832 -0.3734  0.4265 -0.4498
14391TIP3    H164664   5.485   4.017   6.742  0.2019  1.1248 -0.5638
14391TIP3    H264665   5.527   4.119   6.845 -1.0480  0.8308  0.2481
14392TIP3   OH264666   1.828   5.409  12.173  0.0303  0.1368  0.6571
14392TIP3    H164667   1.857   5.353  12.245 -0.3907 -1.5318 -0.4534
14392TIP3    H264668   1.886   5.485  12.177  2.0779 -1.3840  0.8320
14393TIP3   OH264669   5.240   4.227  12.785 -0.3474 -0.0894  0.0989
14393TIP3    H164670   5.281   4.157  12.836 -1.7046  0.2875  1.7724
14393TIP3    H264671   5.269   4.308  12.828 -1.6631  0.2210  0.4305
14394TIP3   OH264672   6.625   0.597   5.485  0.2516 -0.1301  0.3144
14394TIP3    H164673   6.608   0.631   5.573 -0.9073  2.4307 -0.8527
14394TIP3    H264674   6.580   0.512   5.483 -3.7564  1.8754  0.7317
14395TIP3   OH264675   6.447   4.434  11.076  0.0999 -0.3951  0.5611
14395TIP3    H164676   6.528   4.452  11.124 -0.6356  0.0879  1.6379
14395TIP3    H264677   6.472   4.438  10.984  0.4465  3.9083  0.7739
14396TIP3   OH264678   2.401   0.367  14.278  0.0906  0.1047 -0.3446
14396TIP3    H164679   2.451   0.287  14.295  1.2057  0.3570 -2.3000
14396TIP3    H264680   2.326   0.361  14.337  2.4795 -0.1771  2.8193
14397TIP3   OH264681   4.837   0.688   0.987 -0.0076  0.4249 -0.0055
14397TIP3    H164682   4.832   0.781   1.010  0.9465  0.2810  0.7830
14397TIP3    H264683   4.843   0.688   0.891  1.3332  1.2466  0.0627
14398TIP3   OH264684   6.061   2.239   5.907 -0.0719 -0.3239 -0.3780
14398TIP3    H164685   6.001   2.210   5.838 -0.7001  1.4450 -0.6185
14398TIP3    H264686   6.055   2.172   5.975 -2.6981  0.0657 -0.1785
14399TIP3   OH264687   5.170   0.289  12.747 -0.0723 -0.1770  0.3384
14399TIP3    H164688   5.110   0.363  12.751  0.5213  0.2431  1.6313
14399TIP3    H264689   5.118   0.215  12.777 -0.0899  0.0884  0.9657
14400TIP3   OH264690   3.561   4.156  15.251  0.2479  0.3934 -0.2424
14400TIP3    H164691   3.610   4.221  15.201  1.9633 -0.2230  0.5883
14400TIP3    H264692   3.548   4.196  15.337  1.7924 -0.5511  0.4493
14401TIP3   OH264693   4.922   3.750   4.657  0.0887  0.2019  0.5279
14401TIP3    H164694   4.871   3.682   4.700 -0.8383  1.5081  1.5604
14401TIP3    H264695   4.890   3.832   4.696  1.0432  1.2359 -0.8037
14402TIP3   OH264696   4.747   5.271   0.018  0.0617 -0.2073 -0.4580
14402TIP3    H164697   4.725   5.361   0.039  0.0738 -0.5403  1.0304
14402TIP3    H264698   4.801   5.241   0.091  0.9477 -1.0834 -1.4573
14403TIP3   OH264699   1.496   3.092  16.626 -0.3197 -0.0205  0.3229
14403TIP3    H164700   1.529   3.136  16.548  0.8173 -1.3614  0.0359
14403TIP3    H264701   1.534   3.005  16.623 -3.2360 -1.3672  0.4195
14404TIP3   OH264702   5.196   6.021  15.607  0.5270 -0.0318 -0.1254
14404TIP3    H164703   5.217   5.967  15.530 -2.5814 -0.6135 -0.6105
14404TIP3    H264704   5.224   5.968  15.681  0.4929 -0.9196 -0.7381
14405TIP3   OH264705   3.627   5.242  10.963 -0.6807  0.3937 -0.2546
14405TIP3    H164706   3.584   5.327  10.957  0.0984  0.7141 -1.7315
14405TIP3    H264707   3.670   5.231  10.878 -0.2715 -1.2062  0.1372
14406TIP3   OH264708   2.107   5.727   4.292 -0.7121  0.3480 -0.9135
14406TIP3    H164709   2.022   5.706   4.333 -0.2666  1.2176  0.5003
14406TIP3    H264710   2.172   5.693   4.353 -0.0283  1.9135 -0.7372
14407TIP3   OH264711   0.075   4.960  15.899 -0.1209  0.3577  0.0207
14407TIP3    H164712   0.008   5.029  15.901 -0.4636  0.0699 -1.5233
14407TIP3    H264713   0.053   4.904  15.974 -2.0205 -0.1116 -0.8685
14408TIP3   OH264714   4.990   5.540   4.740  0.5107 -0.1316  0.1766
14408TIP3    H164715   4.899   5.551   4.712  0.7931  0.6865 -0.4352
14408TIP3    H264716   5.042   5.567   4.664  1.2629 -2.0308 -0.0117
14409TIP3   OH264717   1.233   2.514   0.802  0.5204  0.3606 -0.4196
14409TIP3    H164718   1.172   2.585   0.825 -0.0849 -0.7315  1.4361
14409TIP3    H264719   1.242   2.463   0.882  2.7622 -0.3513 -1.0944
14410TIP3   OH264720   1.265   3.466   2.797  0.5410 -1.0295 -0.0834
14410TIP3    H164721   1.221   3.424   2.871 -1.7858  1.5348  0.1015
14410TIP3    H264722   1.351   3.489   2.830  0.5502 -2.4179  0.9130
14411TIP3   OH264723   1.327   3.913   0.749 -0.5900  0.1744  0.0193
14411TIP3    H164724   1.257   3.961   0.794  0.1357  1.6511 -0.4044
14411TIP3    H264725   1.299   3.911   0.657 -0.8965 -0.7333  0.1263
14412TIP3   OH264726   3.032   2.981  12.689  0.0427  0.1586 -0.3723
14412TIP3    H164727   2.945   3.019  12.698 -0.0039 -0.2679  1.1955
14412TIP3    H264728   3.019   2.902  12.637 -0.6054 -0.2243  0.3609
14413TIP3   OH264729   3.548   3.390  12.533  0.2475 -0.2833 -0.2487
14413TIP3    H164730   3.530   3.335  12.457  0.3961 -1.1360  0.3196
14413TIP3    H264731   3.574   3.474  12.497 -0.0607 -0.5663 -1.1350
14414TIP3   OH264732   0.162   3.671  12.488  0.4953 -0.5069  0.1806
14414TIP3    H164733   0.247   3.706  12.513 -1.1900  1.6036  3.1632
14414TIP3    H264734   0.134   3.619  12.563 -1.2652 -0.4366 -0.3955
14415TIP3   OH264735   4.815   6.582  12.362 -0.4854  0.0683  0.0618
14415TIP3    H164736   4.872   6.563  12.437 -2.2135  0.0856  1.4177
14415TIP3    H264737   4.836   6.672  12.338  0.4834 -0.1248  0.1739
14416TIP3   OH264738   3.437   3.482  11.145  0.0366 -0.0909  0.3344
14416TIP3    H164739   3.399   3.394  11.141 -0.9046  0.3488 -0.4291
14416TIP3    H264740   3.522   3.473  11.103 -1.5179  0.1092 -2.9892
14417TIP3   OH264741   0.036   6.354   5.897  0.0779  0.2727  0.1956
14417TIP3    H164742   0.012   6.436   5.855  0.1842  1.2576  1.9884
14417TIP3    H264743  -0.009   6.286   5.846  0.0674  1.4290 -1.3575
14418TIP3   OH264744   2.796   1.632  14.107  0.1508  0.0456 -0.3556
14418TIP3    H164745   2.883   1.621  14.145  0.0810 -0.4422 -0.3342
14418TIP3    H264746   2.812   1.662  14.018  0.3383  0.0678 -0.3149
14419TIP3   OH264747   0.332   1.360  12.880  0.1537 -0.9831  0.1185
14419TIP3    H164748   0.264   1.426  12.895  0.5098 -0.4322 -0.6833
14419TIP3    H264749   0.368   1.380  12.794  1.0628 -1.5193  0.3577
14420TIP3   OH264750   0.909   5.608   6.091  0.3445 -0.1667  0.9410
14420TIP3    H164751   0.887   5.542   6.157  0.2555 -0.4298  0.6538
14420TIP3    H264752   0.929   5.687   6.141 -0.9539 -0.0138  1.2211
14421TIP3   OH264753   0.298   3.307  16.608 -0.8166  0.1162 -0.8117
14421TIP3    H164754   0.228   3.270  16.553 -0.7373 -0.6210 -0.4313
14421TIP3    H264755   0.368   3.242  16.603  0.6399  1.7658 -2.7887
14422TIP3   OH264756   2.114   4.368   2.934 -0.2874 -0.4166 -0.4660
14422TIP3    H164757   2.202   4.390   2.904 -0.4460 -0.8097 -1.2641
14422TIP3    H264758   2.127   4.317   3.013  0.1783  0.0831 -0.2226
14423TIP3   OH264759   2.269   2.641   2.843  0.1665  0.0725  0.1895
14423TIP3    H164760   2.184   2.682   2.854 -0.2528 -0.7906  0.2265
14423TIP3    H264761   2.249   2.550   2.821  1.0735 -0.0764 -0.0461
14424TIP3   OH264762   0.929   6.033   3.251  0.3007 -0.0825  0.2631
14424TIP3    H164763   0.910   6.124   3.275  0.4012 -0.3959  1.5511
14424TIP3    H264764   0.865   5.982   3.301  0.9589 -0.7913  0.3799
14425TIP3   OH264765   5.768   5.644   4.575 -0.6772 -0.2445 -0.3696
14425TIP3    H164766   5.826   5.692   4.634 -0.3745  0.7432 -1.4548
14425TIP3    H264767   5.700   5.707   4.552 -2.6625 -1.6237  1.5080
14426TIP3   OH264768   3.695   3.289  17.039 -0.2570  0.0757 -0.3897
14426TIP3    H164769   3.618   3.233  17.039 -1.0797  1.1604 -1.8273
14426TIP3    H264770   3.730   3.281  16.950 -0.3073  1.7000 -0.5757
14427TIP3   OH264771   5.594   4.873  12.397  0.1648 -0.1436  0.3992
14427TIP3    H164772   5.607   4.886  12.303  0.4863  0.0972  0.4729
14427TIP3    H264773   5.500   4.887  12.411  0.0593 -0.5120  0.0625
14428TIP3   OH264774   2.250   3.464  12.720 -1.0737 -0.2387 -0.4369
14428TIP3    H164775   2.169   3.512  12.735 -2.6348 -1.8309 -3.4447
14428TIP3    H264776   2.312   3.530  12.690 -1.5828  0.7924  0.7365
14429TIP3   OH264777   2.492   4.381  16.807 -0.0522  0.2977 -0.0270
14429TIP3    H164778   2.545   4.450  16.846  2.1590 -1.6523  0.5508
14429TIP3    H264779   2.513   4.383  16.714 -0.1593  0.5386 -0.0474
14430TIP3   OH264780   0.925   5.405  14.242 -0.1328  0.4657 -0.1288
14430TIP3    H164781   0.868   5.467  14.197 -1.2174 -1.4518 -1.5039
14430TIP3    H264782   0.866   5.334  14.270  1.0417  0.0918  1.5144
14431TIP3   OH264783   6.208   6.646   0.106 -0.4240 -0.0874  0.3742
14431TIP3    H164784   6.216   6.732   0.064 -1.7695  0.3269  0.9395
14431TIP3    H264785   6.275   6.593   0.063 -0.5021  0.8559 -0.9637
14432TIP3   OH264786   5.984   1.710   2.212 -0.0699  0.7029  0.0400
14432TIP3    H164787   6.015   1.631   2.256 -1.2352  1.2371  1.8934
14432TIP3    H264788   5.897   1.686   2.178  0.9013  0.2291 -2.2331
14433TIP3   OH264789   6.536   1.493  16.822  0.2788  0.2738  0.7591
14433TIP3    H164790   6.547   1.578  16.778 -0.3218  1.2539  2.4494
14433TIP3    H264791   6.473   1.446  16.768 -0.6857  1.5787  0.7338
14434TIP3   OH264792   1.556   6.421   2.405 -0.6255 -0.5956 -0.1209
14434TIP3    H164793   1.567   6.329   2.427  0.4737 -0.9927 -2.2025
14434TIP3    H264794   1.512   6.420   2.320  2.2156  0.7233 -1.6799
14435TIP3   OH264795   4.239   6.330   3.193  0.2541 -0.2089  0.4452
14435TIP3    H164796   4.300   6.388   3.148 -2.0353  1.2135 -0.8952
14435TIP3    H264797   4.275   6.322   3.282  2.4839  0.4097 -0.3758
14436TIP3   OH264798   5.249   5.873  12.830  0.6718 -0.4302  0.0656
14436TIP3    H164799   5.321   5.837  12.778  0.8601  1.1316 -0.7638
14436TIP3    H264800   5.177   5.810  12.818  1.6052 -1.5228  0.1690
14437TIP3   OH264801   5.807   6.140   3.446 -0.3616  0.1056  0.2536
14437TIP3    H164802   5.811   6.157   3.352  0.1934 -0.9620  0.0799
14437TIP3    H264803   5.765   6.218   3.483  0.9272  1.2721 -0.6787
14438TIP3   OH264804   4.238   1.740  14.939 -0.1220  0.3039 -0.4903
14438TIP3    H164805   4.202   1.822  14.974  1.1615  0.6311  0.1121
14438TIP3    H264806   4.330   1.761  14.922  0.1471 -0.9446 -0.5706
14439TIP3   OH264807   2.969   0.187  12.931 -0.4515  0.0310 -0.0702
14439TIP3    H164808   2.983   0.247  13.004 -1.9824  0.2632  0.0357
14439TIP3    H264809   3.055   0.180  12.890 -0.1272  1.8331  0.2579
14440TIP3   OH264810   6.473   6.588   4.608  0.7809 -0.6886 -0.4094
14440TIP3    H164811   6.420   6.518   4.571  0.9868 -0.2309 -1.6111
14440TIP3    H264812   6.560   6.574   4.572  0.7084  0.4634 -1.0632
14441TIP3   OH264813   1.031   5.480   5.814  0.0635  0.3985  0.0918
14441TIP3    H164814   0.972   5.522   5.877  0.3698  1.3754 -0.2524
14441TIP3    H264815   1.029   5.539   5.739 -0.1694 -0.6806 -0.7437
14442TIP3   OH264816   2.581   5.790  14.654  0.1030 -0.0026  0.4264
14442TIP3    H164817   2.572   5.818  14.745 -1.5874  2.5214 -0.4678
14442TIP3    H264818   2.658   5.836  14.622 -1.3709  1.9274 -0.4073
14443TIP3   OH264819   0.116   5.014   4.339 -0.1514 -0.4538  0.8737
14443TIP3    H164820   0.058   5.033   4.412  1.2194  1.3945  1.5210
14443TIP3    H264821   0.154   4.928   4.360 -2.4593 -1.6075  0.5198
14444TIP3   OH264822   1.538   2.650   0.054  0.7002 -0.0479 -0.9703
14444TIP3    H164823   1.463   2.592   0.045 -0.4927  1.8277 -3.7741
14444TIP3    H264824   1.604   2.614  -0.006  0.6720  0.3929 -1.2684
14445TIP3   OH264825   0.542   1.513   0.888 -0.2925  0.1753  0.8173
14445TIP3    H164826   0.575   1.601   0.907 -1.4441  0.4684  1.4850
14445TIP3    H264827   0.553   1.464   0.970  0.3868 -0.3235  0.4365
14446TIP3   OH264828   1.585   3.424   2.550  0.0264  0.5844  0.2771
14446TIP3    H164829   1.583   3.513   2.587 -1.9747  0.7223 -0.0917
14446TIP3    H264830   1.576   3.366   2.625 -0.9564  0.7764  0.3174
14447TIP3   OH264831   5.788   4.878   6.185  0.8219  0.2570  0.1728
14447TIP3    H164832   5.798   4.883   6.090  0.1099  0.1265  0.0922
14447TIP3    H264833   5.780   4.785   6.204 -0.1549  0.3523  0.2474
14448TIP3   OH264834   1.473   2.474   6.433 -0.4062  0.1693  0.3733
14448TIP3    H164835   1.437   2.393   6.397 -1.0972  0.5410  0.2279
14448TIP3    H264836   1.567   2.468   6.416 -0.6403  0.0500 -0.9221
14449TIP3   OH264837   2.612   2.706  15.284 -0.3837 -0.2012 -0.4250
14449TIP3    H164838   2.539   2.667  15.237  0.1852 -1.1392 -0.5395
14449TIP3    H264839   2.598   2.682  15.375  0.2508 -1.1555 -0.5662
14450TIP3   OH264840   1.226   1.393   5.845  0.2248  0.3203 -0.6455
14450TIP3    H164841   1.196   1.451   5.775  0.0134  0.3451 -0.5348
14450TIP3    H264842   1.145   1.356   5.882  0.4186 -1.3373 -1.8139
14451TIP3   OH264843   1.832   0.749   4.610 -0.2957 -0.1963 -0.2241
14451TIP3    H164844   1.855   0.659   4.635  1.3514  0.2585 -0.0113
14451TIP3    H264845   1.775   0.740   4.534 -1.4198 -1.4664  0.7467
14452TIP3   OH264846   2.861   5.038  16.936 -0.0213 -0.4762 -0.5000
14452TIP3    H164847   2.868   4.944  16.955 -1.0571 -0.2097  1.2361
14452TIP3    H264848   2.940   5.058  16.887  0.9847 -1.9279  0.4985
14453TIP3   OH264849   0.238   4.440  11.055 -0.6137  0.0659  0.2488
14453TIP3    H164850   0.273   4.377  11.118  0.5050 -0.6052 -1.0242
14453TIP3    H264851   0.315   4.481  11.016 -1.2190 -0.8907 -2.0541
14454TIP3   OH264852   1.626   4.114   1.279 -0.3313  0.6557  0.1466
14454TIP3    H164853   1.584   4.195   1.309  1.0219  0.5033  2.6547
14454TIP3    H264854   1.713   4.141   1.251 -0.4129  0.2788 -0.4817
14455TIP3   OH264855   6.714   2.279  11.730 -0.3235  0.9832 -0.3185
14455TIP3    H164856   6.782   2.299  11.666  0.8503 -1.3558  0.1520
14455TIP3    H264857   6.635   2.265  11.677 -0.0430  1.9610 -1.0075
14456TIP3   OH264858   6.570   1.601   6.737  0.1741 -0.7870  0.3026
14456TIP3    H164859   6.562   1.533   6.670 -0.0715  0.9279 -1.4835
14456TIP3    H264860   6.662   1.600   6.761  0.5486 -0.5625 -1.0483
14457TIP3   OH264861   5.742   5.178   2.488  0.0301  0.1660 -0.3110
14457TIP3    H164862   5.649   5.177   2.510  0.3216  1.9019  1.1617
14457TIP3    H264863   5.786   5.150   2.568  0.8139 -0.0257 -0.7983
14458TIP3   OH264864   6.677   1.584   2.382 -0.4204 -0.6790  0.3396
14458TIP3    H164865   6.773   1.584   2.378 -0.3851  1.8828 -0.2822
14458TIP3    H264866   6.649   1.545   2.299  0.1643  1.7352 -1.0730
14459TIP3   OH264867   2.029   0.185   1.883  0.1251  0.1361 -0.0967
14459TIP3    H164868   2.049   0.266   1.929 -0.8023  0.9353 -1.0865
14459TIP3    H264869   2.087   0.120   1.923  0.2434  1.0831  1.3201
14460TIP3   OH264870   1.201   0.460  10.484  0.3838 -0.6182 -0.0782
14460TIP3    H164871   1.252   0.537  10.459  0.9583 -0.7704  0.5932
14460TIP3    H264872   1.115   0.495  10.509  0.3715 -0.2876 -0.5734
14461TIP3   OH264873   2.501   4.780  15.666  0.0562 -0.3398  0.9257
14461TIP3    H164874   2.545   4.767  15.750 -0.4263  1.1498  1.4168
14461TIP3    H264875   2.412   4.807  15.689 -0.2242 -0.4033 -0.0607
14462TIP3   OH264876   0.164   6.373  16.349 -0.0491  0.2081 -0.2846
14462TIP3    H164877   0.258   6.390  16.340  0.3321 -0.1846  2.4793
14462TIP3    H264878   0.127   6.459  16.369 -0.2777  0.3597 -1.3549
14463TIP3   OH264879   1.810   1.046  13.344 -0.2547  0.2458  0.1747
14463TIP3    H164880   1.852   0.980  13.289 -1.9029 -2.1388  1.6964
14463TIP3    H264881   1.717   1.026  13.339 -0.7988  2.5409  0.5816
14464TIP3   OH264882   6.759   1.410  14.813  0.0427 -0.4655 -0.2713
14464TIP3    H164883   6.680   1.417  14.867 -0.3481  0.9790 -0.9984
14464TIP3    H264884   6.742   1.469  14.740  2.3189  0.7778  0.1828
14465TIP3   OH264885   0.490   3.319   0.660  0.1786  0.3192  0.5406
14465TIP3    H164886   0.511   3.283   0.574 -0.9722  1.0066 -0.0516
14465TIP3    H264887   0.440   3.249   0.703 -0.4853  0.4990  0.0848
14466TIP3   OH264888   0.298   5.987  11.989 -0.0240 -0.1215 -0.6549
14466TIP3    H164889   0.326   5.902  11.955 -0.5466  0.2328 -2.0020
14466TIP3    H264890   0.263   5.968  12.075  1.5367 -1.0090 -0.1928
14467TIP3   OH264891   0.217   6.517   0.797  0.0667 -0.9189  0.2852
14467TIP3    H164892   0.188   6.608   0.790  0.3011 -0.8242  0.5440
14467TIP3    H264893   0.194   6.478   0.712  0.8657 -0.3525 -0.2063
14468TIP3   OH264894   0.472   1.180  12.520 -0.1855 -0.0151 -0.4394
14468TIP3    H164895   0.471   1.264  12.564  0.1252 -0.7561  1.0145
14468TIP3    H264896   0.383   1.168  12.487  0.0731  1.3997 -1.7040
14469TIP3   OH264897   3.798   0.334  11.633  0.5595  0.3465 -0.1463
14469TIP3    H164898   3.746   0.259  11.663  0.9841 -0.5027 -1.4558
14469TIP3    H264899   3.865   0.344  11.700 -0.4156  0.5170  0.8079
14470TIP3   OH264900   5.617   1.620  11.904  0.1621  0.1113  0.0977
14470TIP3    H164901   5.663   1.699  11.931 -0.6405 -0.1566  2.3336
14470TIP3    H264902   5.539   1.618  11.959 -1.3622 -0.6686 -2.0056
14471TIP3   OH264903   4.107   0.949   5.139 -0.3869 -0.6993 -0.0337
14471TIP3    H164904   4.187   0.957   5.087 -1.8007  0.5666 -2.0914
14471TIP3    H264905   4.048   1.015   5.103 -2.2743 -1.4011  1.6435
14472TIP3   OH264906   0.556   6.411   4.550  0.0766  0.4131  0.1939
14472TIP3    H164907   0.473   6.400   4.503 -0.1697  0.0352  0.7098
14472TIP3    H264908   0.594   6.491   4.513  0.4593 -0.5466 -1.4741
14473TIP3   OH264909   4.346   1.160   1.904 -0.4786 -0.5905 -0.2694
14473TIP3    H164910   4.317   1.244   1.939  2.2453  0.6726 -0.8426
14473TIP3    H264911   4.398   1.183   1.827  0.3796 -2.8052 -0.3984
14474TIP3   OH264912   6.777   5.029   0.158 -0.1291  0.0410 -0.5880
14474TIP3    H164913   6.814   4.971   0.092 -1.8129 -0.8557 -0.7786
14474TIP3    H264914   6.807   5.117   0.133  0.5657 -0.4865 -1.6136
14475TIP3   OH264915   0.716   1.538  11.425  0.3976  0.4717 -0.0874
14475TIP3    H164916   0.715   1.445  11.402 -0.1790  0.8962 -1.8742
14475TIP3    H264917   0.730   1.583  11.342 -2.5705  2.1026  0.2075
14476TIP3   OH264918   5.096   0.431  14.154  0.2376  0.8465 -0.8536
14476TIP3    H164919   5.146   0.448  14.074  0.2214  0.3536 -0.9647
14476TIP3    H264920   5.007   0.415  14.124  0.7500 -1.9512 -0.9596
14477TIP3   OH264921   2.006   2.281  11.513 -0.5268 -0.1945 -0.1370
14477TIP3    H164922   1.949   2.302  11.587 -0.5758  0.4983 -0.3693
14477TIP3    H264923   2.040   2.194  11.533  0.0909  0.3169  1.0910
14478TIP3   OH264924   6.190   1.569  16.344  0.0328  0.0177 -0.8019
14478TIP3    H164925   6.232   1.654  16.350 -0.0718  0.1002 -1.2370
14478TIP3    H264926   6.108   1.580  16.394  0.3632 -0.0495 -0.2327
14479TIP3   OH264927   1.965   6.358  14.716  0.1300 -0.2796  0.0776
14479TIP3    H164928   1.890   6.370  14.658  1.1282  1.9487 -0.7978
14479TIP3    H264929   1.947   6.416  14.790  0.1092 -1.1450  0.7523
14480TIP3   OH264930   6.038   3.206   5.292  0.6911  0.2022 -0.2785
14480TIP3    H164931   6.024   3.124   5.243 -1.2758 -0.6261  1.6158
14480TIP3    H264932   6.115   3.189   5.346  2.3923  0.8445 -2.4367
14481TIP3   OH264933   0.966   2.069   5.880  0.3530 -0.4039 -0.3420
14481TIP3    H164934   0.931   2.151   5.914  3.8691  0.7683  0.6900
14481TIP3    H264935   0.949   2.005   5.949 -1.3357 -0.3077 -0.6495
14482TIP3   OH264936   2.990   5.119   0.923  0.6867  0.7488 -0.3037
14482TIP3    H164937   3.033   5.034   0.929  0.1188  0.5473  1.2103
14482TIP3    H264938   2.904   5.100   0.887 -0.5797  0.2208  2.7961
14483TIP3   OH264939   2.417   1.052  14.854 -0.6274 -0.1107  0.0672
14483TIP3    H164940   2.453   1.030  14.768  1.2077 -0.6478  0.9513
14483TIP3    H264941   2.365   0.976  14.879 -0.0192 -0.5344  0.0435
14484TIP3   OH264942   1.656   2.502  14.795 -1.6683 -0.2036 -0.7437
14484TIP3    H164943   1.689   2.588  14.770 -1.5319 -0.4924 -1.5739
14484TIP3    H264944   1.676   2.446  14.721  0.4218 -1.5185  0.7479
14485TIP3   OH264945   3.745   4.772   1.802 -0.1046  0.1359  0.2554
14485TIP3    H164946   3.798   4.699   1.834  0.8320  0.4599 -0.5435
14485TIP3    H264947   3.664   4.731   1.770  0.0721 -0.4566  0.5648
14486TIP3   OH264948   3.914   1.297   1.351 -0.2698 -0.1272  0.5497
14486TIP3    H164949   3.842   1.291   1.288  2.0606  2.5520 -2.5673
14486TIP3    H264950   3.992   1.272   1.301  1.4621  0.6282  2.7706
14487TIP3   OH264951   1.583   1.142   1.683  0.2064  0.3154  0.2485
14487TIP3    H164952   1.632   1.087   1.744 -0.5989 -0.4054  0.2558
14487TIP3    H264953   1.581   1.092   1.601 -0.3933  0.3971  0.2095
14488TIP3   OH264954   0.399   0.392   0.284 -0.2611 -0.2333  0.0911
14488TIP3    H164955   0.442   0.461   0.336 -0.8400 -0.5619  1.0199
14488TIP3    H264956   0.321   0.369   0.335  0.3041 -2.0814  0.1421
14489TIP3   OH264957   3.348   1.044   2.371  0.6325  0.4955 -0.3587
14489TIP3    H164958   3.440   1.046   2.395  0.7967  0.2942 -0.9623
14489TIP3    H264959   3.304   1.010   2.449  1.1075  0.2812 -0.1828
14490TIP3   OH264960   5.579   1.706  15.161 -0.6031 -0.3290 -0.4194
14490TIP3    H164961   5.627   1.630  15.195 -0.3726  0.7996  1.7898
14490TIP3    H264962   5.487   1.684  15.176 -0.5690 -0.4319 -0.3571
14491TIP3   OH264963   5.851   1.129   0.209 -0.1333  0.4555  0.0131
14491TIP3    H164964   5.843   1.135   0.114  0.4495 -5.1977 -0.5646
14491TIP3    H264965   5.765   1.101   0.239 -0.3439  2.3090  1.2288
14492TIP3   OH264966   5.093   1.178   5.077  0.4749 -0.7797  0.4903
14492TIP3    H164967   5.176   1.202   5.036  1.4118 -1.9176  1.6678
14492TIP3    H264968   5.049   1.124   5.011  0.3543  0.3835 -0.3991
14493TIP3   OH264969   0.370   6.328  13.307  0.1700 -0.4176 -0.3087
14493TIP3    H164970   0.310   6.281  13.248  1.2339 -3.5261  0.9615
14493TIP3    H264971   0.330   6.318  13.394  0.3193  1.2578 -0.0396
14494TIP3   OH264972   4.518   1.501   5.701 -0.2692 -0.3080 -0.2095
14494TIP3    H164973   4.609   1.518   5.724  0.1004 -1.3865 -0.8188
14494TIP3    H264974   4.490   1.433   5.762 -0.3474 -0.6891 -0.6643
14495TIP3   OH264975   3.118   1.045   5.638 -0.3750 -0.3782  0.7739
14495TIP3    H164976   3.149   1.095   5.714 -0.4103  0.5809  0.1732
14495TIP3    H264977   3.117   1.109   5.567 -1.1519 -1.0625  0.1614
14496TIP3   OH264978   3.762   6.070  15.072  0.1416 -0.1742  0.1716
14496TIP3    H164979   3.826   6.134  15.042  2.2551 -1.4039  1.9181
14496TIP3    H264980   3.779   6.061  15.166 -1.9366 -1.2661  0.4652
14497TIP3   OH264981   3.195   0.504   5.787  0.6797  0.1718  0.1325
14497TIP3    H164982   3.217   0.487   5.879 -0.0918 -0.0421  0.2828
14497TIP3    H264983   3.174   0.597   5.785  2.1643  0.5138 -0.1329
14498TIP3   OH264984   6.698   0.998  15.840 -0.0332 -0.3422 -0.0397
14498TIP3    H164985   6.609   1.035  15.836  0.3382  0.5622 -0.0784
14498TIP3    H264986   6.702   0.936  15.768  0.8566  2.9343 -2.9295
14499TIP3   OH264987   0.939   0.870   1.436 -0.6630  0.3115  0.0884
14499TIP3    H164988   0.847   0.885   1.414 -0.1610 -2.1570 -4.2328
14499TIP3    H264989   0.986   0.940   1.391 -0.1707 -0.5128 -0.6939
14500TIP3   OH264990   2.190   4.457  11.423 -0.0467 -0.3275  0.1401
14500TIP3    H164991   2.196   4.533  11.481  1.1455  1.2651 -1.9532
14500TIP3    H264992   2.101   4.424  11.435 -1.1155  2.3624 -0.0316
14501TIP3   OH264993   5.092   4.460  14.482  0.5648  0.1123  0.5084
14501TIP3    H164994   5.019   4.441  14.540  1.1074  1.6701  1.7439
14501TIP3    H264995   5.127   4.374  14.458 -0.6762 -0.5897  1.1845
14502TIP3   OH264996   2.129   1.579   1.908  0.2159  0.3638  0.7624
14502TIP3    H164997   2.086   1.625   1.836 -1.8046 -1.8722  0.4886
14502TIP3    H264998   2.208   1.631   1.924 -0.2109  1.9638 -1.8054
14503TIP3   OH264999   3.599   5.398   6.061  0.0038  0.5820  0.6316
14503TIP3    H165000   3.526   5.362   6.010 -0.0069  0.9993  0.3456
14503TIP3    H265001   3.559   5.429   6.142  0.0247 -0.1124  0.9067
14504TIP3   OH265002   1.022   4.884  11.139 -0.5244 -0.1030  0.2138
14504TIP3    H165003   1.102   4.831  11.140 -0.3996  0.0972  1.3788
14504TIP3    H265004   0.951   4.820  11.134 -0.3354 -0.3251  0.3356
14505TIP3   OH265005   1.454   4.397  15.401 -0.7553  0.0473  0.0731
14505TIP3    H165006   1.543   4.428  15.385 -0.1462 -1.1763  1.0031
14505TIP3    H265007   1.413   4.468  15.451 -0.6365  1.0555 -1.2341
14506TIP3   OH265008   1.593   2.137  16.646  0.3868 -0.5595  0.2437
14506TIP3    H165009   1.564   2.079  16.575  1.4212 -0.2659 -0.4182
14506TIP3    H265010   1.515   2.190  16.666  0.2469 -0.2541 -1.0617
14507TIP3   OH265011   4.565   3.690   5.675 -0.3552  0.2538  0.7659
14507TIP3    H165012   4.535   3.766   5.625  0.8779 -0.1539 -0.6083
14507TIP3    H265013   4.657   3.710   5.695 -0.1226 -0.7210  0.6845
14508TIP3   OH265014   1.045   1.281  16.881  0.2093 -0.1975 -0.2320
14508TIP3    H165015   1.102   1.357  16.888  0.4415 -0.3968  0.0421
14508TIP3    H265016   1.085   1.226  16.814  0.7367 -0.6814  0.4752
14509TIP3   OH265017   0.922   2.847   5.051 -0.1327  0.0631  0.4342
14509TIP3    H165018   0.887   2.916   5.107 -1.7543 -2.2984  2.4347
14509TIP3    H265019   0.871   2.854   4.970  1.2155  2.5534 -0.2451
14510TIP3   OH265020   2.718   3.668   4.822 -0.0912 -0.1703  0.1961
14510TIP3    H165021   2.710   3.585   4.869 -0.4538 -0.8484 -1.0476
14510TIP3    H265022   2.628   3.691   4.799 -0.0216  0.7243  0.7872
14511TIP3   OH265023   2.718   0.377   0.595  0.3572 -0.1039 -0.3049
14511TIP3    H165024   2.654   0.360   0.663  0.3491  1.6600  0.1468
14511TIP3    H265025   2.802   0.381   0.641  0.3642  0.9957 -0.4110
14512TIP3   OH265026   3.309   3.582  14.241 -0.7314  0.2167  0.1114
14512TIP3    H165027   3.392   3.629  14.234 -0.5270  0.0668  1.4597
14512TIP3    H265028   3.308   3.547  14.330 -0.6512 -2.7470 -0.9858
14513TIP3   OH265029   6.645   3.489   0.858 -0.4971 -0.1426  0.3999
14513TIP3    H165030   6.587   3.452   0.924 -1.5092  1.0661  0.2239
14513TIP3    H265031   6.587   3.506   0.783  0.4159 -0.4805 -0.3967
14514TIP3   OH265032   5.534   4.619  12.754 -0.3077 -0.1009 -0.2225
14514TIP3    H165033   5.558   4.650  12.842  0.0644 -0.0189 -0.3538
14514TIP3    H265034   5.616   4.620  12.705 -0.2772 -1.3971 -0.1994
14515TIP3   OH265035   4.417   1.870   3.027  0.1829 -0.5705 -0.2881
14515TIP3    H165036   4.476   1.894   2.955  1.1700 -2.0988 -0.0142
14515TIP3    H265037   4.390   1.953   3.065  0.4240  0.2198 -1.8166
14516TIP3   OH265038   0.075   5.251  16.347  0.7550  0.1700  0.3007
14516TIP3    H165039   0.022   5.308  16.292  0.5059 -0.2426  0.1086
14516TIP3    H265040   0.027   5.246  16.429  2.2107  2.5127  1.3297
14517TIP3   OH265041   1.475   2.812   2.101 -0.9454  0.4619 -0.0821
14517TIP3    H165042   1.563   2.803   2.064 -1.1287  0.4197 -0.5056
14517TIP3    H265043   1.490   2.813   2.196 -0.4387  0.9471 -0.1600
14518TIP3   OH265044   5.975   0.355  14.279  0.2861 -0.0611  0.2086
14518TIP3    H165045   6.057   0.353  14.330  0.9368  0.4764 -0.8030
14518TIP3    H265046   6.001   0.391  14.194 -0.6913 -1.4996 -0.7114
14519TIP3   OH265047   1.384   1.544  14.384 -0.3337 -0.5554 -0.0442
14519TIP3    H165048   1.434   1.493  14.321 -2.4033 -0.1229 -2.1270
14519TIP3    H265049   1.363   1.482  14.454  3.6266 -0.5522  1.2201
14520TIP3   OH265050   3.697   3.970  16.118 -0.3695 -0.2832 -0.3363
14520TIP3    H165051   3.742   3.994  16.037 -1.1539 -1.8541 -1.2781
14520TIP3    H265052   3.635   4.042  16.133 -0.8065 -0.3597 -1.6203
14521TIP3   OH265053   3.900   2.239   1.687  0.1920  0.0461 -0.4451
14521TIP3    H165054   3.933   2.300   1.621 -0.9519 -0.1081 -1.1812
14521TIP3    H265055   3.833   2.188   1.641  1.8410 -2.4934 -0.1361
14522TIP3   OH265056   5.311   1.983  14.070  0.0863  0.1464  0.1489
14522TIP3    H165057   5.261   1.988  13.988 -0.8954  0.3547  0.7525
14522TIP3    H265058   5.300   2.069  14.110  0.4518 -0.0023  0.5698
14523TIP3   OH265059   2.401   4.324  12.376  0.1116 -0.2851 -0.1623
14523TIP3    H165060   2.327   4.269  12.400  0.2088 -0.3941 -0.1105
14523TIP3    H265061   2.468   4.305  12.442  1.0752 -2.0118 -1.5955
14524TIP3   OH265062   5.997   3.969   6.104  0.1077 -0.1375 -0.2066
14524TIP3    H165063   5.997   3.909   6.178 -1.0121  1.1111  0.8329
14524TIP3    H265064   5.991   4.056   6.144 -4.1886  0.4427 -1.8284
14525TIP3   OH265065   5.138   2.769  12.447 -0.3558  0.2999  0.9024
14525TIP3    H165066   5.166   2.856  12.420 -0.1171  0.2568  1.0115
14525TIP3    H265067   5.044   2.777  12.464 -0.3720  0.4883  0.7228
14526TIP3   OH265068   6.565   4.419  13.175 -0.4582  0.1095  0.2349
14526TIP3    H165069   6.520   4.409  13.259 -0.3246  1.0652  0.4264
14526TIP3    H265070   6.643   4.469  13.196 -0.7975  0.9875 -0.5813
14527TIP3   OH265071   5.596   6.063  16.727  0.2229  0.2859  0.6053
14527TIP3    H165072   5.505   6.083  16.705 -0.0679 -0.5060  1.0743
14527TIP3    H265073   5.628   6.012  16.652  0.0980  0.0347  0.7255
14528TIP3   OH265074   3.315   5.436   3.319  0.0933  0.2426 -0.0130
14528TIP3    H165075   3.256   5.508   3.298 -1.5313 -1.0102  0.2324
14528TIP3    H265076   3.372   5.471   3.389  1.2203  2.2175 -1.8649
14529TIP3   OH265077   6.467   2.165  11.601  0.0141  0.4666  0.1617
14529TIP3    H165078   6.444   2.073  11.617  3.8596 -0.7683 -0.9391
14529TIP3    H265079   6.490   2.168  11.509  0.0505  2.5557  0.2172
14530TIP3   OH265080   4.778   1.595  15.864 -0.1435  0.0358  0.5740
14530TIP3    H165081   4.767   1.500  15.869 -1.6186  0.0051 -2.0367
14530TIP3    H265082   4.689   1.630  15.864  0.3028  1.2439 -0.5995
14531TIP3   OH265083   0.454   5.212   2.188  0.6391 -0.1002  0.0644
14531TIP3    H165084   0.400   5.138   2.161 -1.0674  0.6792  1.2971
14531TIP3    H265085   0.416   5.242   2.270  1.5830  1.8721 -0.1863
14532TIP3   OH265086   4.719   0.431  14.095  0.3807 -0.0118 -0.6910
14532TIP3    H165087   4.661   0.506  14.079 -0.4331 -0.6314 -0.7002
14532TIP3    H265088   4.671   0.356  14.060  0.2571 -0.8368  1.1867
14533TIP3   OH265089   0.450   3.824  15.820 -0.1026  0.3258 -0.5225
14533TIP3    H165090   0.535   3.785  15.804  0.2538  0.6586  0.5304
14533TIP3    H265091   0.469   3.913  15.850 -0.8050  0.3240 -0.0464
14534TIP3   OH265092   6.121   1.132   1.884 -0.1264  0.3817 -0.3608
14534TIP3    H165093   6.195   1.188   1.859  0.2990  0.4460  0.9884
14534TIP3    H265094   6.119   1.064   1.817  0.3408  1.1145 -1.1378
14535TIP3   OH265095   5.559   2.294  11.026 -0.0707  0.1987 -0.4411
14535TIP3    H165096   5.600   2.257  11.104  0.4632 -0.5567 -1.0648
14535TIP3    H265097   5.623   2.279  10.956  0.3212  2.6485 -0.6458
14536TIP3   OH265098   3.141   0.816  14.553 -0.5102  0.3450 -0.3644
14536TIP3    H165099   3.173   0.764  14.626  1.4926  1.6076 -0.3122
14536TIP3    H265100   3.075   0.761  14.511  0.5680 -1.6477  0.5218
14537TIP3   OH265101   5.873   1.991   0.030  0.2767 -0.1018  0.1447
14537TIP3    H165102   5.960   1.966  -0.000  0.1255 -2.3449  1.4501
14537TIP3    H265103   5.883   2.082   0.060  1.3583  0.7660 -2.7399
14538TIP3   OH265104   1.087   2.843   1.363 -0.0586  0.3388 -0.0499
14538TIP3    H165105   1.098   2.823   1.270  1.5298  1.4063 -0.0995
14538TIP3    H265106   1.109   2.762   1.408 -1.7019 -0.4623 -0.6151
14539TIP3   OH265107   4.572   2.560   5.272 -0.0707  0.4567 -0.5987
14539TIP3    H165108   4.531   2.476   5.251  1.0128  0.6186 -3.4738
14539TIP3    H265109   4.659   2.555   5.234  1.6021  1.2643  2.9317
14540TIP3   OH265110   4.217   2.516   2.206  0.1781 -0.1877  0.7925
14540TIP3    H165111   4.296   2.544   2.159  0.4452 -1.2622  0.5926
14540TIP3    H265112   4.169   2.463   2.143 -0.5456  0.1739  1.0278
14541TIP3   OH265113   0.062   1.529  11.883  0.3862  0.3843 -0.4496
14541TIP3    H165114   0.060   1.501  11.975  0.7652  0.4100 -0.4290
14541TIP3    H265115  -0.029   1.539  11.858  0.2458 -0.7094 -0.4075
14542TIP3   OH265116   4.428   6.794  16.968 -0.5382  0.5976 -0.1896
14542TIP3    H165117   4.459   6.751  16.889  0.8598  0.6665  0.3209
14542TIP3    H265118   4.333   6.778  16.968 -0.5359  0.4854 -1.7921
14543TIP3   OH265119   5.710   1.735  16.244 -0.7556 -0.4619 -0.3844
14543TIP3    H165120   5.774   1.690  16.189 -1.3229  0.1164 -1.5169
14543TIP3    H265121   5.720   1.827  16.223 -0.5760 -0.1648  0.9169
14544TIP3   OH265122   5.072   6.423  13.091 -0.5137 -0.4540 -0.2937
14544TIP3    H165123   5.043   6.368  13.018 -0.6088  0.3763 -0.8913
14544TIP3    H265124   4.992   6.444  13.139 -0.7311  0.6674 -1.1246
14545TIP3   OH265125   1.312   5.561   5.323  0.0204 -0.2576  0.2306
14545TIP3    H165126   1.387   5.504   5.339  0.9222  1.3068  1.6368
14545TIP3    H265127   1.349   5.638   5.281 -0.7250  0.7300  1.3685
14546TIP3   OH265128   2.561   2.978   1.086 -0.0288 -0.4460  0.2846
14546TIP3    H165129   2.466   2.980   1.098 -0.1307  1.7443 -0.7622
14546TIP3    H265130   2.573   2.931   1.003 -0.3380  1.1207 -0.6729
14547TIP3   OH265131   3.913   3.851  10.726 -0.6986 -0.0505  0.4868
14547TIP3    H165132   3.861   3.931  10.726 -0.5128  0.0807 -1.1858
14547TIP3    H265133   3.999   3.878  10.756 -1.8018 -0.4600  4.3641
14548TIP3   OH265134   0.680   3.819  14.147  0.9985  0.7798  0.1326
14548TIP3    H165135   0.603   3.873  14.168  1.6642  1.3652  1.0892
14548TIP3    H265136   0.643   3.737  14.112 -0.0499  1.1260  0.4161
14549TIP3   OH265137   3.578   1.938  10.948  0.0821 -0.7124 -0.7248
14549TIP3    H165138   3.659   1.959  10.995 -1.1401  0.1564  1.0325
14549TIP3    H265139   3.599   1.858  10.899  2.5389  0.4871 -1.7199
14550TIP3   OH265140   1.270   3.355   5.658  0.0886 -0.0769 -0.5328
14550TIP3    H165141   1.326   3.285   5.690  1.1325  0.6111 -0.8182
14550TIP3    H265142   1.322   3.399   5.591  0.5559  2.6623  1.4934
14551TIP3   OH265143   4.918   4.296   2.441 -0.0147 -0.1572  0.1430
14551TIP3    H165144   5.006   4.258   2.439 -0.2807 -0.7135 -1.7909
14551TIP3    H265145   4.920   4.366   2.377 -1.1110 -0.4532 -0.2242
14552TIP3   OH265146   2.117   0.591   1.515 -0.1163  0.3420  0.0387
14552TIP3    H165147   2.128   0.511   1.566  2.7141  1.4913  1.3664
14552TIP3    H265148   2.059   0.646   1.569 -0.1531  0.0868  0.2605
14553TIP3   OH265149   5.246   5.812   3.176 -0.6276 -0.0113 -0.4633
14553TIP3    H165150   5.163   5.765   3.174  0.0920 -1.2476 -4.0644
14553TIP3    H265151   5.233   5.888   3.119  0.4495  0.3142 -0.3020
14554TIP3   OH265152   3.814   6.526  15.731 -0.2410  0.1997 -0.6725
14554TIP3    H165153   3.841   6.439  15.701  0.1775  0.1564 -0.1826
14554TIP3    H265154   3.726   6.512  15.767 -0.6291  0.1968 -1.6000
14555TIP3   OH265155   1.318   1.901   5.499  0.0542  0.1974  0.3515
14555TIP3    H165156   1.402   1.943   5.520  0.7237 -1.1569  0.4280
14555TIP3    H265157   1.255   1.945   5.556  0.3544  2.5751 -1.0771
14556TIP3   OH265158   4.485   4.759  10.583 -0.2059  0.0121  0.6962
14556TIP3    H165159   4.552   4.721  10.525 -0.1075 -0.0660  0.8616
14556TIP3    H265160   4.451   4.834  10.534 -0.4153 -0.3029  0.3602
14557TIP3   OH265161   1.133   1.700  13.387 -0.1148 -0.3204  0.2175
14557TIP3    H165162   1.049   1.724  13.425  0.4889  1.8467  0.2453
14557TIP3    H265163   1.186   1.780  13.394  1.1793 -0.9644 -1.9017
14558TIP3   OH265164   3.871   0.458   4.393 -0.5687  0.1219  0.1174
14558TIP3    H165165   3.786   0.416   4.385 -0.0249 -1.1112  0.5822
14558TIP3    H265166   3.873   0.490   4.483 -0.9513  1.0722 -0.2133
14559TIP3   OH265167   1.535   1.048   1.959  0.4849 -0.4681 -0.3287
14559TIP3    H165168   1.455   1.033   2.011  1.3754 -1.8169  0.6927
14559TIP3    H265169   1.527   1.138   1.928  0.1154  0.5644  2.5484
14560TIP3   OH265170   2.064   0.408  13.210 -0.0064  0.2193 -0.3032
14560TIP3    H165171   2.138   0.368  13.257  0.7228  1.7624 -0.1223
14560TIP3    H265172   2.097   0.493  13.180 -0.7331 -0.3462 -2.8582
14561TIP3   OH265173   4.958   5.442  15.017  0.1494  0.1644 -0.7708
14561TIP3    H165174   4.881   5.480  14.974  0.5309  2.5226  0.5505
14561TIP3    H265175   4.935   5.440  15.110  0.7418 -1.4682 -0.6444
14562TIP3   OH265176   4.226   0.546   5.710  0.0975  0.0121 -0.6670
14562TIP3    H165177   4.172   0.537   5.632 -0.2599 -0.7136 -0.3332
14562TIP3    H265178   4.218   0.638   5.734 -1.7983 -0.3227 -0.0168
14563TIP3   OH265179   3.322   6.153  13.056 -0.5190  0.0672 -0.4762
14563TIP3    H165180   3.405   6.134  13.011 -0.7553 -0.6975 -0.6075
14563TIP3    H265181   3.346   6.163  13.148 -0.1158  1.0353 -0.6808
14564TIP3   OH265182   3.158   2.061  12.683 -0.1392  0.1523 -0.1123
14564TIP3    H165183   3.068   2.058  12.715 -0.5321  0.1767 -1.1799
14564TIP3    H265184   3.173   1.973  12.647 -0.1306  0.4998 -0.9632
14565TIP3   OH265185   2.255   2.498  12.664  0.5908 -0.1086 -0.0742
14565TIP3    H165186   2.247   2.431  12.596 -0.0571 -0.3596  0.2414
14565TIP3    H265187   2.225   2.579  12.621  0.4769 -0.2052 -0.1800
14566TIP3   OH265188   3.563   5.715  15.094 -0.1538 -0.1097 -0.2135
14566TIP3    H165189   3.512   5.736  15.172 -1.2618 -2.3732 -0.2904
14566TIP3    H265190   3.521   5.764  15.023  0.2253  1.1363  0.4079
14567TIP3   OH265191   2.946   0.810   3.196 -0.1201  0.1757 -0.4467
14567TIP3    H165192   2.987   0.757   3.263 -0.5467 -1.2266 -1.2654
14567TIP3    H265193   3.016   0.828   3.133 -0.1238  0.0804 -0.4776
14568TIP3   OH265194   4.216   3.833  14.885  0.0736  0.4551  0.5045
14568TIP3    H165195   4.177   3.917  14.908 -2.2001 -0.0136 -1.3452
14568TIP3    H265196   4.148   3.788  14.835  1.7721 -1.8931  0.1879
14569TIP3   OH265197   5.348   2.896  12.810 -0.0604 -0.1004  0.1001
14569TIP3    H165198   5.388   2.951  12.743 -0.0042 -1.7506 -1.2679
14569TIP3    H265199   5.417   2.836  12.836 -0.5132 -0.4288  0.5455
14570TIP3   OH265200   3.444   3.246  16.128  0.4060 -0.4662  0.0323
14570TIP3    H165201   3.429   3.265  16.221 -0.6388 -0.9710 -0.0217
14570TIP3    H265202   3.507   3.175  16.128  0.1225 -0.7221  0.3730
14571TIP3   OH265203   4.266   5.003   0.401 -0.2960  0.1970 -0.6116
14571TIP3    H165204   4.323   5.053   0.459 -0.8410  0.0582  0.0459
14571TIP3    H265205   4.319   4.987   0.323 -0.1754  1.9786 -0.9191
14572TIP3   OH265206   5.674   0.007   5.980 -0.1610 -0.5324  0.1469
14572TIP3    H165207   5.597   0.036   6.029  0.6580 -0.6904  1.5808
14572TIP3    H265208   5.746   0.056   6.019  0.4052 -0.0224 -1.5102
14573TIP3   OH265209   3.363   3.828   4.554 -0.1966  0.0717  0.2815
14573TIP3    H165210   3.267   3.828   4.544 -0.2196 -1.3026  0.4559
14573TIP3    H265211   3.392   3.747   4.512  0.6127 -0.9693  2.7461
14574TIP3   OH265212   1.277   0.719  15.372  0.3118  0.3193 -0.6045
14574TIP3    H165213   1.197   0.765  15.347  0.3875  2.2359  2.4944
14574TIP3    H265214   1.334   0.787  15.406  0.7276 -1.9039  3.3860
14575TIP3   OH265215   3.937   5.995   3.933  1.0206  0.2537 -0.5496
14575TIP3    H165216   3.876   5.955   3.995  0.1388 -0.1174 -1.6422
14575TIP3    H265217   4.018   6.007   3.983 -0.0226  1.0236  1.0011
14576TIP3   OH265218   4.421   2.353   2.357  0.1349 -0.3792  0.1656
14576TIP3    H165219   4.367   2.374   2.281  0.5841 -0.1272 -0.0873
14576TIP3    H265220   4.403   2.424   2.419  0.0006 -0.4210  0.1756
14577TIP3   OH265221   4.820   6.780  13.989 -0.1453  0.3011  1.1932
14577TIP3    H165222   4.846   6.812  13.902  4.7490 -3.0118  1.2625
14577TIP3    H265223   4.791   6.691  13.973 -0.4724  0.1274  2.7834
14578TIP3   OH265224   3.604   4.456   4.977 -0.4198 -0.1327  0.2157
14578TIP3    H165225   3.544   4.521   5.011  0.8968  1.5206 -0.5408
14578TIP3    H265226   3.632   4.491   4.892  1.9409 -0.6310  0.7464
14579TIP3   OH265227   0.995   6.519   1.100 -0.0286 -0.3083 -0.5177
14579TIP3    H165228   0.984   6.612   1.081  0.5764 -0.3496 -1.0779
14579TIP3    H265229   0.966   6.475   1.020  0.2592 -0.5742 -0.4753
14580TIP3   OH265230   6.385   6.819  11.522 -0.0459 -0.0976  0.3513
14580TIP3    H165231   6.475   6.798  11.497  0.6410  0.6846  2.0973
14580TIP3    H265232   6.357   6.745  11.576 -1.0308 -1.1049 -1.4940
14581TIP3   OH265233   3.129   3.963  13.912  0.2249 -0.6124 -0.3186
14581TIP3    H165234   3.208   3.981  13.861 -0.0125  1.1808 -0.0834
14581TIP3    H265235   3.140   3.873  13.942  1.4952 -0.8740 -1.5046
14582TIP3   OH265236   0.546   5.563  14.191 -0.3410  0.4422  0.3801
14582TIP3    H165237   0.543   5.469  14.170 -0.8599  0.6397 -0.4260
14582TIP3    H265238   0.611   5.599  14.131 -0.0528  0.5867  0.7715
14583TIP3   OH265239   3.563   1.567   2.196 -0.0218 -0.0268 -0.2784
14583TIP3    H165240   3.509   1.557   2.117 -1.7578 -1.1798  1.0195
14583TIP3    H265241   3.653   1.567   2.163 -0.7596  0.9540 -2.3975
14584TIP3   OH265242   6.204   3.541  15.826 -0.1434 -0.2318  0.5143
14584TIP3    H165243   6.181   3.633  15.809  0.1103 -0.1489  0.6170
14584TIP3    H265244   6.300   3.540  15.825 -0.1107 -0.1052  2.6095
14585TIP3   OH265245   0.940   4.960  13.362  0.7231 -0.1396 -0.0521
14585TIP3    H165246   0.877   4.904  13.407 -0.3705  1.9536  1.1074
14585TIP3    H265247   1.019   4.955  13.416  0.0908  0.7057  0.9746
14586TIP3   OH265248   1.262   5.499   2.775  0.0122 -0.0412  0.1642
14586TIP3    H165249   1.206   5.473   2.848  1.2275  0.2265  1.2254
14586TIP3    H265250   1.310   5.575   2.808  1.4421 -0.6419 -0.4919
14587TIP3   OH265251   0.145   5.949   3.170 -0.0919  0.1562  0.5097
14587TIP3    H165252   0.118   5.920   3.083  0.2600  0.4031  0.3166
14587TIP3    H265253   0.241   5.951   3.166 -0.1108  1.4613  0.4709
14588TIP3   OH265254   4.108   0.869   3.488 -0.3236  0.0205 -0.5418
14588TIP3    H165255   4.047   0.799   3.462 -0.9908  1.0408 -1.7378
14588TIP3    H265256   4.070   0.905   3.568  1.3030 -2.5712  1.5342
14589TIP3   OH265257   2.780   3.081   4.556 -0.2020 -0.7599 -0.2966
14589TIP3    H165258   2.872   3.058   4.569  0.9499  1.8773 -3.0561
14589TIP3    H265259   2.762   3.149   4.621  0.1312 -0.5067 -0.4680
14590TIP3   OH265260   6.665   0.944   1.813  0.3285 -0.4606 -0.0117
14590TIP3    H165261   6.700   0.945   1.724 -3.5818  1.4019 -1.6379
14590TIP3    H265262   6.730   0.994   1.864  1.2181  0.9070 -2.3970
14591TIP3   OH265263   4.827   4.686   1.316 -0.3874  0.1360 -0.0016
14591TIP3    H165264   4.894   4.755   1.320 -1.6110  1.3143  0.7647
14591TIP3    H265265   4.745   4.734   1.308 -1.3641 -1.2048  1.7329
14592TIP3   OH265266   4.382   3.661   3.035  0.5445  0.7103 -0.1950
14592TIP3    H165267   4.390   3.576   2.990  0.9658  1.9417 -2.5044
14592TIP3    H265268   4.420   3.646   3.121 -0.4331 -1.7594 -0.1412
14593TIP3   OH265269   2.671   4.418   3.071 -0.3387 -0.4172  0.0898
14593TIP3    H165270   2.681   4.503   3.114  3.7311 -1.6133  1.7631
14593TIP3    H265271   2.601   4.374   3.120 -1.1424  1.1983  0.4331
14594TIP3   OH265272   6.322   1.207  16.201 -0.3159  0.4229 -0.2818
14594TIP3    H165273   6.369   1.285  16.232 -0.8044  0.7448 -0.3473
14594TIP3    H265274   6.230   1.235  16.196 -0.3015  0.2514 -1.6323
14595TIP3   OH265275   5.921   6.538  14.070  0.5883  0.5660  0.7106
14595TIP3    H165276   5.911   6.506  14.159  1.5916  1.2194  1.0751
14595TIP3    H265277   5.954   6.463  14.021  0.7943  0.4217  1.0674
14596TIP3   OH265278   5.210   6.664   1.752  0.2224  0.0311 -0.2687
14596TIP3    H165279   5.211   6.607   1.675  0.8955  0.3493 -0.5024
14596TIP3    H265280   5.208   6.753   1.716  1.1181  0.1937  0.0747
14597TIP3   OH265281   1.787   1.074  15.638 -0.3081  0.1263  0.9659
14597TIP3    H165282   1.804   1.075  15.543 -1.5248  0.1502  0.7388
14597TIP3    H265283   1.851   1.013  15.673  0.4831  0.4929  0.1923
14598TIP3   OH265284   3.741   1.648  15.794  0.0950  0.1537 -0.2031
14598TIP3    H165285   3.649   1.634  15.818  0.2599  0.1780  0.4385
14598TIP3    H265286   3.744   1.626  15.701 -0.4963 -0.1496 -0.1572
14599TIP3   OH265287   5.606   3.197   5.491  0.0285 -0.3577 -0.2188
14599TIP3    H165288   5.533   3.259   5.491 -0.1675 -0.5816  0.8169
14599TIP3    H265289   5.681   3.248   5.520  0.3643 -0.0578 -1.5493
14600TIP3   OH265290   3.063   4.836   4.367  0.0679  0.9427 -0.5306
14600TIP3    H165291   3.015   4.773   4.421 -0.9681 -0.4197 -2.9519
14600TIP3    H265292   3.155   4.815   4.382 -0.1920  0.7838  0.9190
14601TIP3   OH265293   6.201   0.725   1.047 -0.0206  0.1655 -0.3443
14601TIP3    H165294   6.222   0.631   1.044 -1.1013 -0.0445 -1.6407
14601TIP3    H265295   6.118   0.732   1.001 -1.0024  1.4955  1.5722
14602TIP3   OH265296   2.559   1.837  12.279 -0.0150  0.0742  0.3951
14602TIP3    H165297   2.591   1.751  12.305 -0.7705 -0.0883  0.8009
14602TIP3    H265298   2.606   1.857  12.198 -1.3442 -1.6485 -0.8448
14603TIP3   OH265299   3.195   4.543   1.533  0.4857  0.3441 -0.9690
14603TIP3    H165300   3.220   4.527   1.624  2.6246 -0.2303 -1.6454
14603TIP3    H265301   3.149   4.464   1.507  1.0044 -0.0195 -0.7823
14604TIP3   OH265302   4.580   3.066   6.578  0.1546  0.1057  0.5948
14604TIP3    H165303   4.598   3.010   6.654 -0.8622  0.9254  1.4411
14604TIP3    H265304   4.585   3.006   6.503 -0.5469 -1.0489  1.4517
14605TIP3   OH265305   1.794   4.962   4.785 -0.2777 -0.3395  0.5885
14605TIP3    H165306   1.871   5.016   4.801 -0.8944  0.3257  1.3889
14605TIP3    H265307   1.721   5.025   4.783 -0.5351 -0.6638 -2.5053
14606TIP3   OH265308   2.077   6.242   0.147  0.2345 -0.1825  0.3842
14606TIP3    H165309   2.097   6.265   0.238 -0.4574  0.8610  0.2825
14606TIP3    H265310   2.022   6.314   0.116  1.0302 -0.1874 -1.0712
14607TIP3   OH265311   3.270   5.041  13.492 -0.0778  0.5140 -0.1711
14607TIP3    H165312   3.187   5.051  13.447 -0.1852  2.4292  0.4187
14607TIP3    H265313   3.309   5.128  13.491  0.9727  0.0905  1.3795
14608TIP3   OH265314   0.314   0.082  13.067 -0.2142  0.2234  0.2731
14608TIP3    H165315   0.282   0.063  12.978  1.0746 -1.5218  0.1437
14608TIP3    H265316   0.274   0.166  13.089  0.7343  1.5218 -2.6114
14609TIP3   OH265317   6.465   0.536   7.053 -0.8231 -0.0101  0.2850
14609TIP3    H165318   6.381   0.581   7.050 -0.8469 -0.0085  0.9998
14609TIP3    H265319   6.449   0.460   7.109 -0.5383 -0.4080 -0.1651
14610TIP3   OH265320   2.299   0.238   2.492  0.1985  0.8463  0.0102
14610TIP3    H165321   2.320   0.313   2.436 -1.0255  0.8752 -0.4185
14610TIP3    H265322   2.229   0.192   2.446  0.4614 -0.1761  0.6152
14611TIP3   OH265323   3.710   5.034  13.003  0.0919 -0.4328 -0.4354
14611TIP3    H165324   3.639   5.053  13.063 -1.2142 -1.0320 -1.7506
14611TIP3    H265325   3.783   5.007  13.059 -0.6291  0.4169  0.9333
14612TIP3   OH265326   2.922   5.543   0.151  0.2802  0.7313 -0.2408
14612TIP3    H165327   3.007   5.557   0.192  0.2456 -0.0469  0.1034
14612TIP3    H265328   2.933   5.464   0.098 -0.3437  0.3914  0.1335
14613TIP3   OH265329   4.183   0.196  12.195 -0.1039 -0.1943  0.2726
14613TIP3    H165330   4.245   0.127  12.168 -1.0004 -1.0368  0.3387
14613TIP3    H265331   4.144   0.163  12.276 -0.8835  0.1879  0.0529
14614TIP3   OH265332   1.288   6.113   3.690  0.0453  0.5562 -0.8996
14614TIP3    H165333   1.217   6.080   3.634  0.1002  2.1723 -1.9642
14614TIP3    H265334   1.361   6.053   3.674 -0.6137 -0.2528 -0.9213
14615TIP3   OH265335   2.290   6.542  17.157 -0.7562  0.6102  0.3005
14615TIP3    H165336   2.338   6.470  17.116  1.9041  1.7722  1.3160
14615TIP3    H265337   2.298   6.614  17.095 -0.8602  0.9330  0.6649
14616TIP3   OH265338   1.823   5.754   1.931 -0.0154 -0.2677  0.2604
14616TIP3    H165339   1.881   5.695   1.979 -0.3831 -1.0885 -0.2780
14616TIP3    H265340   1.870   5.837   1.926  0.6966 -0.6479  0.6475
14617TIP3   OH265341   6.679   5.375  12.080 -0.1742  0.5709 -1.2246
14617TIP3    H165342   6.672   5.371  12.176  1.7994  0.7073 -1.0606
14617TIP3    H265343   6.662   5.466  12.058  0.7755  0.8264 -0.8867
14618TIP3   OH265344   2.611   3.670  14.214 -0.3767  0.5116 -0.1466
14618TIP3    H165345   2.649   3.704  14.295  0.2484 -2.5997  0.9504
14618TIP3    H265346   2.672   3.600  14.187 -2.2405 -0.6050 -1.5646
14619TIP3   OH265347   4.659   2.812   3.240 -0.0139  0.0212  0.3403
14619TIP3    H165348   4.635   2.902   3.261  0.1698  0.1400  0.0293
14619TIP3    H265349   4.666   2.769   3.326  0.0783  0.3446  0.4957
14620TIP3   OH265350   4.621   3.649  15.366  0.4318  0.2471 -0.9465
14620TIP3    H165351   4.561   3.577  15.384  2.1056 -0.6657  1.2070
14620TIP3    H265352   4.565   3.725  15.354 -1.1962 -0.7627  0.1024
14621TIP3   OH265353   6.664   6.363  11.705 -0.3281 -0.3414  0.2955
14621TIP3    H165354   6.633   6.328  11.621  0.6373 -1.2394  0.3053
14621TIP3    H265355   6.618   6.446  11.714  0.0156  0.0610 -1.4328
14622TIP3   OH265356   3.191   2.831   4.674 -0.2183  0.2591  0.2372
14622TIP3    H165357   3.245   2.875   4.608 -1.4271 -0.3222 -1.1798
14622TIP3    H265358   3.134   2.773   4.623 -2.9447  1.6508  1.5800
14623TIP3   OH265359   0.879   3.632  13.626 -0.4269 -0.2875  0.9590
14623TIP3    H165360   0.854   3.715  13.586  0.6478 -0.0390  0.7912
14623TIP3    H265361   0.974   3.629  13.618 -0.4175 -1.3291  1.3682
14624TIP3   OH265362   4.403   3.241   3.875 -0.0472  0.5218  0.5053
14624TIP3    H165363   4.375   3.309   3.935  0.8655  2.2257 -0.9475
14624TIP3    H265364   4.330   3.232   3.813  0.8992  2.0943 -0.8767
14625TIP3   OH265365   6.667   4.586   3.604 -0.0060  0.1726 -0.3590
14625TIP3    H165366   6.683   4.681   3.599  1.1935  0.0043  0.1484
14625TIP3    H265367   6.720   4.557   3.678  0.6878 -1.1184 -1.3378
14626TIP3   OH265368   0.588   2.100   0.415 -0.0163  0.3392 -0.2503
14626TIP3    H165369   0.549   2.090   0.328  0.6928 -1.5832 -0.3798
14626TIP3    H265370   0.610   2.011   0.442  2.2794  1.1595  0.7454
14627TIP3   OH265371   4.317   6.758  11.110  0.3378 -0.0863  0.9005
14627TIP3    H165372   4.234   6.767  11.064  0.2525  0.3442  1.1323
14627TIP3    H265373   4.362   6.687  11.065  1.6637  2.4448 -1.9740
14628TIP3   OH265374   4.383   5.166   4.931 -0.4123 -0.0058  0.4394
14628TIP3    H165375   4.438   5.200   5.001 -0.1226 -2.3225  1.3805
14628TIP3    H265376   4.293   5.188   4.958 -0.1911  0.7424  0.5896
14629TIP3   OH265377   0.231   0.815  16.801 -0.1747 -0.5667 -0.1085
14629TIP3    H165378   0.219   0.722  16.820  1.1748 -0.5096  1.1770
14629TIP3    H265379   0.218   0.822  16.707 -1.9671 -1.7709  0.0247
14630TIP3   OH265380   1.022   3.302  10.085  0.5894 -0.2748 -0.2694
14630TIP3    H165381   0.962   3.376  10.079  0.7442 -0.1526 -0.3359
14630TIP3    H265382   0.966   3.225  10.093  0.4191  0.1006  2.8614
14631TIP3   OH265383   0.621   1.196  14.443  0.1808  0.2760 -0.1561
14631TIP3    H165384   0.548   1.213  14.383  0.7737 -4.1597 -2.4189
14631TIP3    H265385   0.699   1.205  14.388  1.0285  0.5679  1.0879
14632TIP3   OH265386   3.093   0.163   1.514  0.1826 -0.1373  0.6905
14632TIP3    H165387   3.015   0.201   1.475  0.1628  0.7338  1.5708
14632TIP3    H265388   3.083   0.069   1.500 -0.1271  0.0971 -0.8225
14633TIP3   OH265389   3.146   6.038  12.857 -0.4318 -0.1436 -0.9364
14633TIP3    H165390   3.158   5.951  12.820  1.5296  0.5203 -1.9497
14633TIP3    H265391   3.208   6.042  12.930 -0.6077  0.3486 -0.8088
14634TIP3   OH265392   0.071   5.520   1.124  0.6567 -0.9728 -0.7972
14634TIP3    H165393  -0.009   5.470   1.144  1.1712 -1.0197  1.3149
14634TIP3    H265394   0.059   5.549   1.034 -1.2487 -1.9321 -0.8912
14635TIP3   OH265395   5.413   3.733  14.718  0.6878 -0.2532 -0.1518
14635TIP3    H165396   5.467   3.799  14.676 -1.6282  1.0985 -1.1299
14635TIP3    H265397   5.463   3.706  14.795  1.7549  2.6106  0.2470
14636TIP3   OH265398   2.519   1.626  16.005 -0.2349  0.0643 -0.4061
14636TIP3    H165399   2.429   1.656  15.992 -0.7494 -1.8614 -1.4705
14636TIP3    H265400   2.513   1.555  16.068  0.7962  1.1835  0.9860
14637TIP3   OH265401   1.463   3.724  15.713 -0.1346 -0.5774  0.3021
14637TIP3    H165402   1.414   3.803  15.737  0.6241 -0.1074  0.3118
14637TIP3    H265403   1.549   3.757  15.687 -0.3518 -1.2321 -1.3064
14638TIP3   OH265404   5.163   3.723   0.787 -0.5233  0.7607 -0.0473
14638TIP3    H165405   5.234   3.704   0.726 -1.1982 -1.1513 -0.2843
14638TIP3    H265406   5.110   3.789   0.742 -0.7447 -0.2682 -1.3460
14639TIP3   OH265407   5.991   6.740  12.348  0.1226 -0.1427  0.0478
14639TIP3    H165408   6.084   6.721  12.361  0.4323  1.0060 -0.4054
14639TIP3    H265409   5.987   6.836  12.342 -1.0295 -0.2121 -0.4087
14640TIP3   OH265410   6.238   4.049  12.359 -0.8841 -0.5216 -0.1895
14640TIP3    H165411   6.246   4.052  12.454  0.7738 -2.1506 -0.2517
14640TIP3    H265412   6.315   4.001  12.329 -0.0188  2.1955 -2.5759
14641TIP3   OH265413   5.914   5.967   0.652 -0.1470  0.3178  0.0072
14641TIP3    H165414   5.873   6.015   0.724  0.4116  1.5404 -0.4769
14641TIP3    H265415   5.893   5.875   0.669 -0.9921  0.7071  1.0978
14642TIP3   OH265416   5.402   3.414  15.877  0.0229 -0.2002  0.0582
14642TIP3    H165417   5.352   3.433  15.956 -0.8723  0.5309 -0.6610
14642TIP3    H265418   5.361   3.336  15.840 -2.9029  2.3185 -2.3526
14643TIP3   OH265419   4.697   5.484  13.847  0.1020  0.0022  0.2324
14643TIP3    H165420   4.732   5.438  13.771 -0.5627 -0.2524  0.0768
14643TIP3    H265421   4.762   5.470  13.916  0.1442 -0.7519  0.0437
14644TIP3   OH265422   6.385   0.946  13.600  0.1219 -0.0676  0.3290
14644TIP3    H165423   6.459   0.892  13.626 -0.9851 -1.9103 -0.2499
14644TIP3    H265424   6.330   0.888  13.546 -1.3406  1.4812  0.0957
14645TIP3   OH265425   6.099   2.022  16.343 -0.6724 -0.2276  0.8029
14645TIP3    H165426   6.099   1.935  16.303  1.5244  0.0975  0.0214
14645TIP3    H265427   6.021   2.064  16.307  0.7927 -0.2438 -2.5620
14646TIP3   OH265428   4.413   6.675  12.529 -0.2062 -0.0298 -0.2418
14646TIP3    H165429   4.494   6.647  12.572  0.6345 -0.1315 -1.8800
14646TIP3    H265430   4.372   6.734  12.592  0.1218 -1.5602  1.4632
14647TIP3   OH265431   3.780   2.673  16.462 -0.3454 -0.2981  0.0229
14647TIP3    H165432   3.836   2.660  16.538  0.6508  2.5391 -0.1625
14647TIP3    H265433   3.694   2.643  16.490  0.7868 -2.8231  0.9745
14648TIP3   OH265434   0.456   3.317  11.133  0.0693 -0.2109 -0.2451
14648TIP3    H165435   0.411   3.277  11.059 -0.8238  0.2163  0.0534
14648TIP3    H265436   0.495   3.243  11.180  0.3792 -0.5078 -0.9587
14649TIP3   OH265437   4.866   3.838  15.212 -0.0381 -0.3400 -1.0580
14649TIP3    H165438   4.931   3.790  15.263 -0.9940  0.5307  1.0456
14649TIP3    H265439   4.782   3.796  15.234 -0.5563  0.5943 -1.1972
14650TIP3   OH265440   3.839   4.999  13.971 -0.0657 -0.1685  0.2843
14650TIP3    H165441   3.894   5.040  14.038 -0.0908 -0.2575  0.3599
14650TIP3    H265442   3.760   4.972  14.017  0.2888 -1.0238  0.4111
14651TIP3   OH265443   6.070   0.216  16.918  0.1725 -0.6273  0.2714
14651TIP3    H165444   6.098   0.305  16.942  0.7131 -1.0176  1.1172
14651TIP3    H265445   6.011   0.229  16.844 -0.8015  0.5585  1.2217
14652TIP3   OH265446   6.750   2.562   1.575  0.0486 -0.1279  0.3328
14652TIP3    H165447   6.784   2.473   1.566 -0.1929 -0.2867  0.9570
14652TIP3    H265448   6.800   2.613   1.512  1.9939 -0.2208  1.7589
14653TIP3   OH265449   0.977   3.426  17.177 -0.7055 -0.4530  0.0261
14653TIP3    H165450   1.016   3.491  17.236 -3.2572  2.3921 -1.2910
14653TIP3    H265451   0.903   3.391  17.227 -0.3792 -1.1259  0.0526
14654TIP3   OH265452   6.091   1.889   0.854  0.3588 -0.2536  0.0376
14654TIP3    H165453   6.045   1.829   0.912  0.1680  0.2040  0.3686
14654TIP3    H265454   6.181   1.857   0.854  0.9001  1.0932  2.4756
14655TIP3   OH265455   5.897   4.382  17.286 -0.1709 -0.3641  0.2915
14655TIP3    H165456   5.956   4.362  17.358 -0.2599 -0.6495  0.2843
14655TIP3    H265457   5.873   4.297  17.250 -0.8234 -0.2621  0.4847
14656TIP3   OH265458   3.694   4.052   2.835  0.1981  0.7480  0.6119
14656TIP3    H165459   3.725   4.142   2.843 -0.8048  1.0375  1.4785
14656TIP3    H265460   3.716   4.012   2.919 -1.0139  0.7290  0.9303
14657TIP3   OH265461   2.530   6.555   5.578 -0.4970  0.0215  0.5060
14657TIP3    H165462   2.474   6.589   5.649 -0.7916 -1.2547  0.8917
14657TIP3    H265463   2.469   6.515   5.517 -0.1700  0.4367 -0.0934
14658TIP3   OH265464   6.786   6.760   3.783 -0.5623  0.0592 -1.2338
14658TIP3    H165465   6.734   6.776   3.705 -1.9644  1.8807  0.0220
14658TIP3    H265466   6.813   6.847   3.811  2.1170 -0.7643 -1.1280
14659TIP3   OH265467   4.945   4.812   6.151  0.4117  0.1026 -0.3079
14659TIP3    H165468   4.940   4.731   6.202 -0.0438  0.4396  0.1908
14659TIP3    H265469   4.930   4.882   6.215 -0.8459  0.4959 -1.0084
14660TIP3   OH265470   2.958   3.974  10.654 -0.3680 -0.0063  0.3608
14660TIP3    H165471   2.937   4.056  10.700  0.1213 -0.4799  1.4187
14660TIP3    H265472   3.050   3.982  10.631  0.3148 -1.3072  2.6048
14661TIP3   OH265473   0.541   4.490   4.760  0.1066  0.6013 -0.4063
14661TIP3    H165474   0.573   4.418   4.815  1.3692  1.0265 -0.5702
14661TIP3    H265475   0.595   4.486   4.681 -1.0881  0.5652 -1.2434
14662TIP3   OH265476   6.519   4.712  11.232  0.0337  0.3642 -0.3046
14662TIP3    H165477   6.528   4.621  11.262  0.1441  0.3070 -0.5074
14662TIP3    H265478   6.550   4.710  11.141 -0.1594  0.5637 -0.3736
14663TIP3   OH265479   6.763   1.237  14.152 -0.4952  0.4751 -0.0939
14663TIP3    H165480   6.678   1.280  14.162 -0.8233  0.4014 -2.4553
14663TIP3    H265481   6.743   1.154  14.109  0.7474  0.3319 -0.4037
14664TIP3   OH265482   5.045   4.428   4.223  0.8242 -0.2135  0.4158
14664TIP3    H165483   5.090   4.508   4.194 -3.4729  2.3779  0.5034
14664TIP3    H265484   4.999   4.454   4.303 -3.0598 -1.8376 -1.1484
14665TIP3   OH265485   3.061   5.277  15.055  0.2864  0.6806  0.1443
14665TIP3    H165486   3.133   5.276  14.992  1.5951 -0.0450  1.6054
14665TIP3    H265487   3.099   5.242  15.136 -1.4683  1.1516  1.2165
14666TIP3   OH265488   1.145   0.702   0.624 -0.2697 -0.2427 -0.2026
14666TIP3    H165489   1.236   0.698   0.594  0.6067 -0.9042  2.4346
14666TIP3    H265490   1.151   0.732   0.715 -2.5805 -1.6689  0.4646
14667TIP3   OH265491   4.323   5.308  13.097  0.5369  0.7815 -0.1273
14667TIP3    H165492   4.305   5.274  13.009  0.1415  1.5912 -0.3608
14667TIP3    H265493   4.344   5.230  13.148  1.4003  0.3739 -1.0910
14668TIP3   OH265494   4.072   2.753  15.140  0.4537  0.0546  0.0137
14668TIP3    H165495   4.051   2.674  15.189 -1.9318 -0.4799 -1.8266
14668TIP3    H265496   4.166   2.746  15.122  0.4449 -1.8772  0.6695
14669TIP3   OH265497   0.456   1.117  11.560  0.1507  0.0889 -0.5127
14669TIP3    H165498   0.384   1.092  11.502  0.3559 -1.2510 -0.1920
14669TIP3    H265499   0.413   1.143  11.642 -0.0666  0.9685 -0.8935
14670TIP3   OH265500   1.493   0.220  11.459 -0.9668 -0.0223 -0.4815
14670TIP3    H165501   1.411   0.171  11.452 -0.1428 -1.4769 -0.0627
14670TIP3    H265502   1.552   0.161  11.506  0.1514  1.2372 -0.2837
14671TIP3   OH265503   2.999   1.596   5.687  0.4414  0.5633  0.0171
14671TIP3    H165504   2.995   1.537   5.612  0.3756  1.5408 -0.7591
14671TIP3    H265505   3.027   1.679   5.651 -1.9878  1.7074  0.6569
14672TIP3   OH265506   5.995   0.356  12.181  0.4761 -0.5223 -0.1376
14672TIP3    H165507   6.062   0.424  12.187 -0.5726  0.4514  0.7207
14672TIP3    H265508   5.983   0.326  12.271 -2.9919  2.0630  0.3833
14673TIP3   OH265509   1.183   2.118  11.742 -0.2438 -0.3221  0.0812
14673TIP3    H165510   1.172   2.057  11.669  0.5438 -0.9323  0.4579
14673TIP3    H265511   1.256   2.174  11.716 -1.1520  0.6517 -0.3854
14674TIP3   OH265512   0.755   2.968  12.733 -0.2051  0.5958  0.9188
14674TIP3    H165513   0.823   2.954  12.666 -1.2757 -0.5213  0.0364
14674TIP3    H265514   0.689   3.020  12.688 -0.0542  1.4901  1.7137
14675TIP3   OH265515   4.340   3.681  17.276  0.0119 -0.4142 -0.0733
14675TIP3    H165516   4.329   3.697  17.182 -2.4966  0.2415  0.2831
14675TIP3    H265517   4.332   3.585  17.284 -1.1865 -0.3554 -0.3969
14676TIP3   OH265518   3.802   0.881   1.410 -0.0785  0.2880  0.5940
14676TIP3    H165519   3.757   0.802   1.382  0.9518  0.2677 -1.0567
14676TIP3    H265520   3.890   0.852   1.434  0.1157  0.8475  0.5669
14677TIP3   OH265521   5.899   4.609  16.414 -0.8392  0.7901  0.0825
14677TIP3    H165522   5.977   4.644  16.456 -0.4299  0.6975 -0.5949
14677TIP3    H265523   5.902   4.515  16.432 -0.5954  0.7310 -0.2578
14678TIP3   OH265524   4.891   3.415  12.806 -0.0053 -0.5177 -0.5508
14678TIP3    H165525   4.948   3.490  12.824 -0.9603  0.1233 -0.1218
14678TIP3    H265526   4.879   3.372  12.890  2.1758 -2.3837 -1.1341
14679TIP3   OH265527   6.381   0.078  17.082  0.9835  0.0806 -0.3461
14679TIP3    H165528   6.358   0.167  17.110  0.1014 -0.3573  0.3479
14679TIP3    H265529   6.467   0.062  17.121  0.0347 -0.2945  1.6418
14680TIP3   OH265530   2.891   2.115   1.514  0.0905 -0.1349  0.4468
14680TIP3    H165531   2.826   2.179   1.541 -0.6108 -1.0670  1.0135
14680TIP3    H265532   2.931   2.086   1.596  0.5594 -0.2535  0.1773
14681TIP3   OH265533   3.076   3.211   5.157  0.3266  0.4783 -0.3737
14681TIP3    H165534   3.011   3.173   5.215 -0.2950  2.7585  0.4758
14681TIP3    H265535   3.159   3.205   5.205  0.3595 -0.4400 -0.5459
14682TIP3   OH265536   3.144   1.929   4.858 -0.4805  0.2678 -0.0361
14682TIP3    H165537   3.102   1.844   4.870  0.5114 -0.2531 -0.1649
14682TIP3    H265538   3.173   1.928   4.766 -1.7612  1.3351 -0.4537
14683TIP3   OH265539   2.126   1.206   0.400  0.0361  0.0778 -0.1162
14683TIP3    H165540   2.120   1.169   0.488 -2.1298 -0.6005 -0.5012
14683TIP3    H265541   2.164   1.136   0.347 -0.4347 -0.2037 -0.0857
14684TIP3   OH265542   2.515   6.704   1.664  0.5694 -0.3968  0.1381
14684TIP3    H165543   2.477   6.631   1.616 -1.7204  0.2143  0.9414
14684TIP3    H265544   2.510   6.678   1.756  0.3374  0.4733  0.3814
14685TIP3   OH265545   1.688   2.448   3.845 -0.0562 -0.2298  0.0095
14685TIP3    H165546   1.739   2.374   3.813  0.2598  0.0085 -0.0365
14685TIP3    H265547   1.708   2.519   3.784 -0.3142 -0.0901  0.0864
14686TIP3   OH265548   2.228   0.852   2.946  1.0626  0.0112 -0.2378
14686TIP3    H165549   2.232   0.937   2.991  1.0166 -0.2763  0.3247
14686TIP3    H265550   2.301   0.852   2.886 -0.9602  1.8729 -2.7948
14687TIP3   OH265551   0.979   5.102  15.642 -0.7646 -0.0278  0.0811
14687TIP3    H165552   1.068   5.118  15.673 -1.0296  0.3052  0.6815
14687TIP3    H265553   0.955   5.019  15.682 -1.2762  0.6286  1.1611
14688TIP3   OH265554   1.966   4.579  14.735 -0.1283  0.1042 -0.3103
14688TIP3    H165555   2.032   4.541  14.677  1.3898  0.3617  1.2015
14688TIP3    H265556   1.972   4.674  14.720 -0.7667  0.0609 -0.8202
14689TIP3   OH265557   1.963   3.532  14.937 -0.6245  0.1526 -0.1674
14689TIP3    H165558   1.969   3.532  15.032 -1.0669 -0.0426 -0.1401
14689TIP3    H265559   2.055   3.533  14.907 -0.4469 -1.7345  0.2528
14690TIP3   OH265560   4.835   4.011   4.383 -0.5416 -0.4054  0.1773
14690TIP3    H165561   4.889   4.077   4.341 -1.0221 -0.7586 -0.9971
14690TIP3    H265562   4.764   4.061   4.424  0.3676  0.0069  1.2782
14691TIP3   OH265563   0.483   0.147   1.120  0.1354 -0.0125  0.1326
14691TIP3    H165564   0.389   0.158   1.133  0.3261  0.5781  1.0780
14691TIP3    H265565   0.523   0.189   1.197  1.1219 -1.3348  0.3638
14692TIP3   OH265566   0.111   6.392   0.542 -0.2803  0.2030 -0.0727
14692TIP3    H165567   0.084   6.308   0.504 -0.0409 -0.0326  0.2769
14692TIP3    H265568   0.127   6.449   0.467  1.6063 -0.6920 -0.3752
14693TIP3   OH265569   3.399   4.112   3.894  0.7258  0.0076  0.0693
14693TIP3    H165570   3.482   4.076   3.924 -0.1137 -0.7849  1.5155
14693TIP3    H265571   3.396   4.200   3.932  1.7249  0.7667 -1.5397
14694TIP3   OH265572   1.551   5.439  11.092 -0.4545 -0.3549 -0.4938
14694TIP3    H165573   1.609   5.412  11.163 -0.2189  0.6175 -0.2996
14694TIP3    H265574   1.610   5.481  11.029 -0.9272  0.5075 -0.3616
14695TIP3   OH265575   6.444   0.849   5.980 -0.3833  0.0704 -0.1272
14695TIP3    H165576   6.420   0.932   6.021 -0.2175  0.4253 -0.7516
14695TIP3    H265577   6.363   0.798   5.982  0.2153 -0.8522  2.8742
14696TIP3   OH265578   3.085   4.005  17.038  0.2300 -0.1524 -0.1186
14696TIP3    H165579   3.015   3.998  16.973  0.8112 -3.8344 -0.4219
14696TIP3    H265580   3.157   4.046  16.991 -0.6589  0.8473 -0.6484
14697TIP3   OH265581   2.566   5.579  10.375 -0.4364 -0.2818 -0.4354
14697TIP3    H165582   2.560   5.487  10.348  3.3331 -0.0121 -2.5534
14697TIP3    H265583   2.645   5.612  10.331 -0.0626  3.1884  2.5633
14698TIP3   OH265584   1.024   6.132   1.132 -0.3639  0.0931  0.0568
14698TIP3    H165585   0.985   6.123   1.218  2.0080 -1.1002  1.0651
14698TIP3    H265586   0.954   6.111   1.071 -1.5387 -1.0120  1.7520
14699TIP3   OH265587   3.071   1.071  11.352 -0.1910 -0.0828 -0.2218
14699TIP3    H165588   3.123   0.996  11.325  0.1034  0.1649 -0.3391
14699TIP3    H265589   3.004   1.080  11.284  0.3138  0.3030 -0.6687
14700TIP3   OH265590   4.232   4.780  12.132 -0.4374  0.0652  0.0129
14700TIP3    H165591   4.212   4.773  12.039 -1.4721  0.1005  0.2319
14700TIP3    H265592   4.149   4.762  12.176  0.3592 -1.4098  0.9750
14701TIP3   OH265593   2.754   1.562   6.140 -0.0795 -0.0228 -0.1223
14701TIP3    H165594   2.823   1.617   6.176  0.0087 -0.4983  0.4441
14701TIP3    H265595   2.774   1.557   6.046 -0.1825  1.0290 -0.2036
14702TIP3   OH265596   3.872   5.363  11.007  0.4547  0.8450 -0.5185
14702TIP3    H165597   3.802   5.304  10.982 -1.2080  1.3479  2.6684
14702TIP3    H265598   3.878   5.426  10.935 -0.6568 -0.6401 -1.9359
14703TIP3   OH265599   4.097   2.476  14.450 -0.4116  0.5959  0.0494
14703TIP3    H165600   4.034   2.405  14.464  1.6798 -1.3673 -0.2079
14703TIP3    H265601   4.118   2.507  14.538 -0.3235 -0.0568  0.2668
14704TIP3   OH265602   1.901   2.555   2.419  0.3510  0.4273  0.0028
14704TIP3    H165603   1.881   2.647   2.436 -2.6811 -0.3091  0.8058
14704TIP3    H265604   1.839   2.529   2.351  3.0680 -0.3388 -2.2703
14705TIP3   OH265605   4.083   2.661  13.969 -0.0611  0.6614  0.4337
14705TIP3    H165606   4.044   2.693  14.051  1.1825  0.6565  1.0409
14705TIP3    H265607   4.071   2.733  13.908 -1.3084  0.5368  0.5056
14706TIP3   OH265608   0.589   3.966  14.795 -0.3061  0.0505 -0.1927
14706TIP3    H165609   0.664   3.948  14.739 -0.6063 -0.5492 -0.4093
14706TIP3    H265610   0.534   4.026  14.744 -1.3940 -1.7965 -1.2385
14707TIP3   OH265611   5.694   0.200   1.803  0.2705 -0.1320  0.8458
14707TIP3    H165612   5.607   0.196   1.844  0.3263  2.5739  1.2750
14707TIP3    H265613   5.686   0.142   1.727 -1.9647  0.2019  0.7754
14708TIP3   OH265614   3.652   0.744  12.701 -0.6735  0.0453 -0.0373
14708TIP3    H165615   3.597   0.744  12.780 -1.6515 -1.0645 -0.7061
14708TIP3    H265616   3.631   0.827  12.658 -0.8300  0.2314  0.3903
14709TIP3   OH265617   6.203   3.998   3.529  0.5148 -0.0390  0.3422
14709TIP3    H165618   6.179   3.988   3.437 -1.0367  1.3057  0.5796
14709TIP3    H265619   6.295   4.024   3.528  0.2255  0.9859 -0.8743
14710TIP3   OH265620   1.168   5.159   4.738  0.6995 -0.2661  0.6331
14710TIP3    H165621   1.238   5.094   4.747  1.1057 -0.3530 -2.5383
14710TIP3    H265622   1.161   5.175   4.644 -2.1920  1.2672  1.0224
14711TIP3   OH265623   6.270   4.561  15.904  0.7631 -0.1714  0.0564
14711TIP3    H165624   6.205   4.616  15.862  1.5039  0.1579 -0.6850
14711TIP3    H265625   6.252   4.569  15.997 -0.7064 -0.6637 -0.1680
14712TIP3   OH265626   6.480   1.806  16.633 -0.6192 -0.4569 -0.7545
14712TIP3    H165627   6.429   1.725  16.636 -1.1007 -0.1654 -1.0180
14712TIP3    H265628   6.429   1.864  16.577  0.1137 -0.2382 -1.2062
14713TIP3   OH265629   5.543   2.146   2.396  0.0240  0.3178  0.0873
14713TIP3    H165630   5.620   2.136   2.451 -1.1765  2.8591  2.3741
14713TIP3    H265631   5.537   2.064   2.346  2.5948 -1.0019  1.8650
14714TIP3   OH265632   5.872   0.482  12.541  0.1399 -0.1680 -0.1044
14714TIP3    H165633   5.818   0.450  12.615 -1.4919  1.8869 -0.3749
14714TIP3    H265634   5.858   0.576  12.540  0.2187 -0.1469 -3.0002
14715TIP3   OH265635   5.670   5.562  17.253 -1.0842  0.2714  0.6884
14715TIP3    H165636   5.616   5.486  17.274 -1.0327 -0.3436 -1.3201
14715TIP3    H265637   5.612   5.620  17.204 -1.2077  1.6939  2.4453
14716TIP3   OH265638   2.831   2.550  14.242 -0.3620 -0.0980  0.2479
14716TIP3    H165639   2.765   2.593  14.189  0.3394  2.0649  1.0787
14716TIP3    H265640   2.910   2.603  14.231  0.3501 -0.7643  1.8432
14717TIP3   OH265641   2.069   1.606  15.243 -0.1976  0.2959  0.1022
14717TIP3    H165642   2.109   1.636  15.161 -1.3668  0.5810 -0.3727
14717TIP3    H265643   1.985   1.568  15.216 -0.3144 -0.1582  1.1024
14718TIP3   OH265644   1.467   4.530   2.075  0.2572  0.5056  0.2903
14718TIP3    H165645   1.494   4.622   2.075  0.6528  0.3963  1.6198
14718TIP3    H265646   1.387   4.528   2.022 -0.3015  1.7784  1.0646
14719TIP3   OH265647   4.913   6.069  15.334  0.2792 -0.4217  0.0174
14719TIP3    H165648   4.994   6.101  15.294  0.0748  0.6307  0.4353
14719TIP3    H265649   4.848   6.077  15.265 -0.2864  2.3091  0.8087
14720TIP3   OH265650   1.019   4.587  14.584  0.4199  0.0585  0.6932
14720TIP3    H165651   1.017   4.496  14.556  0.8352  0.4140 -0.5076
14720TIP3    H265652   1.097   4.624  14.541 -1.9824  2.0290 -2.1721
14721TIP3   OH265653   1.871   6.563  12.202 -0.3299 -0.6679  0.3049
14721TIP3    H165654   1.853   6.525  12.116 -0.8919  0.5332 -0.1169
14721TIP3    H265655   1.964   6.588  12.198 -0.1309 -1.3796  0.3551
14722TIP3   OH265656   6.451   1.239  17.159 -0.0716 -0.2810  0.4373
14722TIP3    H165657   6.463   1.263  17.251  0.0852 -0.4452  0.4596
14722TIP3    H265658   6.535   1.259  17.118 -1.1396  2.9355 -0.3516
14723TIP3   OH265659   1.676   2.190   4.332 -0.2216 -0.4112  0.3112
14723TIP3    H165660   1.738   2.261   4.346  0.0222 -0.2374 -1.5243
14723TIP3    H265661   1.612   2.199   4.402  0.6911  0.6577  1.0073
14724TIP3   OH265662   0.571   3.942  13.818  0.2686  0.2223  0.6378
14724TIP3    H165663   0.601   3.993  13.743  2.4955 -0.5345  0.9700
14724TIP3    H265664   0.631   3.868  13.823 -1.5811 -1.2606  1.4814
14725TIP3   OH265665   2.284   5.648  15.439  0.5446  0.5651 -0.1326
14725TIP3    H165666   2.213   5.661  15.502 -2.2314 -2.1562 -2.4771
14725TIP3    H265667   2.292   5.732  15.394 -1.1289  0.9657  0.2695
14726TIP3   OH265668   4.932   5.603  12.331  0.1621  0.5837  0.4793
14726TIP3    H165669   4.877   5.533  12.295  0.2916  0.4886  0.4632
14726TIP3    H265670   4.873   5.677  12.343  0.0562  0.5204  0.3479
14727TIP3   OH265671   6.784   4.137  16.722 -0.7145  0.1410 -0.1079
14727TIP3    H165672   6.727   4.166  16.793 -0.9080  1.2823 -0.7174
14727TIP3    H265673   6.847   4.208  16.712 -0.6751 -0.0229 -1.0640
14728TIP3   OH265674   4.126   0.367  14.328  0.0413  0.2941 -0.2518
14728TIP3    H165675   4.190   0.296  14.333 -0.6303 -0.3125 -0.1937
14728TIP3    H265676   4.143   0.420  14.407 -0.1449 -0.3880  0.2478
14729TIP3   OH265677   6.151   1.555   6.768  0.0661  0.0906  0.1277
14729TIP3    H165678   6.121   1.602   6.846 -0.1039  0.9356 -0.4405
14729TIP3    H265679   6.235   1.596   6.747  0.5376 -0.7423  0.3885
14730TIP3   OH265680   4.406   1.283  14.443  0.0765 -0.1225  0.0310
14730TIP3    H165681   4.460   1.358  14.468  0.4392 -0.8187  1.3650
14730TIP3    H265682   4.319   1.320  14.427  0.0507  0.4499  1.4807
14731TIP3   OH265683   0.602   0.354  14.200 -0.4087  0.2881  0.3919
14731TIP3    H165684   0.555   0.321  14.124 -0.9029  0.6628  0.5342
14731TIP3    H265685   0.660   0.282  14.226  0.0642  0.3082 -0.5885
14732TIP3   OH265686   0.688   2.166  15.160  0.0769  0.4617 -0.6799
14732TIP3    H165687   0.749   2.125  15.098 -0.4792 -1.2441 -0.1485
14732TIP3    H265688   0.635   2.225  15.107 -0.2028 -0.7776 -1.8187
14733TIP3   OH265689   5.198   6.009   4.182 -0.3285  0.3298 -0.6941
14733TIP3    H165690   5.104   5.992   4.191  0.1202 -2.4775 -0.9136
14733TIP3    H265691   5.219   5.980   4.093  0.4007  2.8014 -1.3747
14734TIP3   OH265692   3.817   4.072   5.465  0.4048  0.2230  0.0435
14734TIP3    H165693   3.820   4.141   5.531  0.1092  1.3970 -1.1297
14734TIP3    H265694   3.734   4.087   5.419  1.2958  0.3718 -1.5486
14735TIP3   OH265695   6.587   6.811   1.318  1.1038 -0.6683  0.0993
14735TIP3    H165696   6.535   6.741   1.279 -0.0012  0.3686 -0.3482
14735TIP3    H265697   6.546   6.891   1.285  2.6958  0.1713  0.1382
14736TIP3   OH265698   0.613   4.795  11.391 -0.4772 -0.1939 -0.1117
14736TIP3    H165699   0.587   4.851  11.318 -0.8889 -1.1018 -0.6689
14736TIP3    H265700   0.569   4.712  11.374  0.6012 -0.8754  0.3939
14737TIP3   OH265701   5.481   6.765   2.988 -0.3076 -0.0096 -0.4046
14737TIP3    H165702   5.435   6.847   3.005 -0.3453 -0.3783  1.3882
14737TIP3    H265703   5.567   6.776   3.029 -0.1198 -0.6744 -0.6072
14738TIP3   OH265704   1.416   3.130  14.972  0.2883  0.1346 -0.0964
14738TIP3    H165705   1.397   3.166  14.885  0.7824  0.0750 -0.2332
14738TIP3    H265706   1.511   3.136  14.979  0.2197  0.4533  0.5798
14739TIP3   OH265707   6.588   5.196   1.001 -0.5161  0.1032 -0.1868
14739TIP3    H165708   6.546   5.121   1.042  0.9226 -0.6929 -0.1475
14739TIP3    H265709   6.679   5.170   0.990  0.2345  2.2144  0.7594
14740TIP3   OH265710   2.890   6.573  11.172 -0.0840 -0.0305 -0.4903
14740TIP3    H165711   2.975   6.569  11.129 -0.5218 -2.0811 -1.1845
14740TIP3    H265712   2.869   6.667  11.174  1.2454  0.3301 -2.1528
14741TIP3   OH265713   2.459   1.123  12.200 -0.1105 -0.3176  0.0185
14741TIP3    H165714   2.540   1.126  12.148 -1.3899 -1.9460 -2.1601
14741TIP3    H265715   2.422   1.211  12.190  1.0071  0.2124  0.4272
14742TIP3   OH265716   2.809   1.333  14.106  0.3503 -0.7222 -0.5177
14742TIP3    H165717   2.750   1.258  14.119  0.5916 -1.1386 -1.7845
14742TIP3    H265718   2.844   1.350  14.193  0.3814 -2.1636 -0.2273
14743TIP3   OH265719   1.132   4.731   3.009  0.4875 -0.1173 -0.1945
14743TIP3    H165720   1.211   4.725   2.955  1.1007  3.5261  0.1327
14743TIP3    H265721   1.078   4.797   2.965 -1.0887 -0.4883  1.1395
14744TIP3   OH265722   4.766   0.722   0.701  0.1762  0.1100 -0.3786
14744TIP3    H165723   4.769   0.723   0.606 -0.0108 -1.1054 -0.4085
14744TIP3    H265724   4.687   0.672   0.722  0.3458  0.1687  0.4171
14745TIP3   OH265725   3.850   1.295  16.073  0.1718 -0.5667 -0.1814
14745TIP3    H165726   3.906   1.359  16.029 -0.0862  0.5647  1.1130
14745TIP3    H265727   3.768   1.297  16.023 -0.4180  1.3283  0.8219
14746TIP3   OH265728   4.695   5.468  11.826  0.0811  0.2794 -0.5560
14746TIP3    H165729   4.729   5.525  11.895  0.3578 -0.9551  0.3372
14746TIP3    H265730   4.734   5.383  11.844 -5.5216 -1.9713  2.1877
14747TIP3   OH265731   5.791   3.916  12.818 -0.3180 -0.4816 -0.3571
14747TIP3    H165732   5.778   3.950  12.906 -1.6653 -0.6480 -0.4876
14747TIP3    H265733   5.878   3.947  12.793 -1.6770  3.3236 -0.6669
14748TIP3   OH265734   3.698   3.800   3.784  0.6502  0.2575  0.2298
14748TIP3    H165735   3.735   3.719   3.750  0.1213 -0.5715  1.5690
14748TIP3    H265736   3.749   3.818   3.864 -2.6032 -1.6409  2.8711
14749TIP3   OH265737   1.555   0.800  12.586 -0.1314 -0.5159 -0.5107
14749TIP3    H165738   1.472   0.841  12.612  0.5050 -0.0381  0.8182
14749TIP3    H265739   1.621   0.868  12.601  0.4744 -0.8082 -1.7985
14750TIP3   OH265740   5.499   6.064  15.979 -0.0067 -0.0561  0.2949
14750TIP3    H165741   5.468   6.093  16.065  0.5345  2.0201 -0.1891
14750TIP3    H265742   5.446   6.114  15.917  1.0472 -0.0051 -0.5674
14751TIP3   OH265743   1.968   0.803   1.590 -0.4111 -0.8168 -0.2962
14751TIP3    H165744   1.906   0.821   1.519 -2.7547  0.4345  2.0132
14751TIP3    H265745   1.914   0.791   1.668  2.1624 -1.3144  1.4777
14752TIP3   OH265746   2.460   6.499   3.176 -0.4951 -0.9691  0.1628
14752TIP3    H165747   2.472   6.555   3.253  1.7327 -0.4781 -0.5144
14752TIP3    H265748   2.547   6.490   3.139 -1.1849 -3.1228 -0.9971
14753TIP3   OH265749   2.397   1.962   1.897  0.0993  0.2039 -0.2324
14753TIP3    H165750   2.321   1.954   1.839  1.3106  1.1677 -1.9912
14753TIP3    H265751   2.429   1.873   1.908  0.1507  0.0705 -1.4490
14754TIP3   OH265752   3.122   1.779  12.493  0.1889  0.0718  0.1172
14754TIP3    H165753   3.036   1.820  12.496 -0.7914 -1.8382 -0.6770
14754TIP3    H265754   3.118   1.710  12.559  1.6481  0.9214  1.1239
14755TIP3   OH265755   0.138   0.134   0.060 -0.4286 -0.3461 -0.3508
14755TIP3    H165756   0.124   0.043   0.086  0.3641  0.0587  1.6247
14755TIP3    H265757   0.074   0.184   0.110  1.8144  0.5603  1.7484
14756TIP3   OH265758   2.978   4.285   2.828  0.3774  0.0169 -0.5578
14756TIP3    H165759   2.902   4.340   2.807 -1.1791 -2.7160 -2.2532
14756TIP3    H265760   3.042   4.304   2.759  0.1062  0.1345 -0.7751
14757TIP3   OH265761   5.326   3.430  14.006 -0.2317  0.1552  0.3849
14757TIP3    H165762   5.356   3.514  13.970  0.7194 -1.1140 -1.8614
14757TIP3    H265763   5.406   3.380  14.021 -0.8492 -0.7185  0.8013
14758TIP3   OH265764   1.289   0.335   1.292  0.2717 -0.6316 -0.8295
14758TIP3    H165765   1.250   0.313   1.208 -0.1536  1.9966 -1.3652
14758TIP3    H265766   1.214   0.352   1.349  0.5737 -0.5752 -0.4461
14759TIP3   OH265767   6.319   6.122   2.093  0.6658  0.6020  0.5916
14759TIP3    H165768   6.309   6.096   2.001 -0.9511  0.0683  0.8952
14759TIP3    H265769   6.396   6.074   2.123  0.8375  0.2894 -0.3279
14760TIP3   OH265770   4.911   3.699   5.999 -0.5217 -0.4971  0.2795
14760TIP3    H165771   4.906   3.655   5.914 -1.7567 -1.6004  0.9178
14760TIP3    H265772   4.868   3.784   5.985  0.0326 -0.3288 -0.4123
14761TIP3   OH265773   2.249   2.268   1.200  0.0417 -0.4293  0.3128
14761TIP3    H165774   2.286   2.193   1.247 -3.5939 -1.3116  1.9298
14761TIP3    H265775   2.265   2.249   1.108  1.6572 -1.8111  0.8518
14762TIP3   OH265776   4.895   4.773   5.017  0.2430  0.1496 -0.2432
14762TIP3    H165777   4.874   4.707   4.951  0.5588 -0.7865  0.5714
14762TIP3    H265778   4.989   4.766   5.030  0.1653  0.2337  0.3940
14763TIP3   OH265779   4.920   0.334  11.563  0.2657 -0.4504 -0.0564
14763TIP3    H165780   4.940   0.369  11.476  0.2495  0.0643  0.1436
14763TIP3    H265781   4.940   0.241  11.557  1.9820 -0.0902 -0.0769
14764TIP3   OH265782   6.118   6.531   1.024 -0.1177  0.3450  0.1251
14764TIP3    H165783   6.169   6.612   1.017 -0.6662  0.4557 -3.6958
14764TIP3    H265784   6.126   6.490   0.938 -2.9790 -1.7521  0.7720
14765TIP3   OH265785   0.494   6.685  13.103  0.0434 -0.3871  0.0159
14765TIP3    H165786   0.403   6.687  13.076 -0.0207 -0.7486  0.1929
14765TIP3    H265787   0.543   6.674  13.022 -0.2370 -3.1855  0.1585
14766TIP3   OH265788   5.778   1.455   0.228  0.2831  0.1462  0.1365
14766TIP3    H165789   5.800   1.507   0.305 -3.0831  0.2924  1.0803
14766TIP3    H265790   5.809   1.367   0.249  1.7180  0.7310  0.5374
14767TIP3   OH265791   5.322   0.965  14.755 -0.1809 -0.2808 -0.4943
14767TIP3    H165792   5.252   0.922  14.804  1.7115 -2.2872  0.5074
14767TIP3    H265793   5.308   0.937  14.664 -1.2408  0.1085 -0.4570
14768TIP3   OH265794   5.024   6.209  15.668 -0.4410  0.3470  0.1246
14768TIP3    H165795   5.048   6.130  15.619 -0.5948  0.9528 -0.9486
14768TIP3    H265796   4.994   6.177  15.753 -1.8979 -0.8770 -0.8179
14769TIP3   OH265797   0.237   6.242   3.100 -0.1856  0.1860  0.3544
14769TIP3    H165798   0.232   6.268   3.008 -0.7767  1.5318  0.7494
14769TIP3    H265799   0.152   6.203   3.119  0.1909 -0.7336  0.1393
14770TIP3   OH265800   6.133   5.257  16.756 -0.1857  0.6218  0.2074
14770TIP3    H165801   6.149   5.351  16.769 -0.1002  0.6215  0.1023
14770TIP3    H265802   6.221   5.219  16.752 -0.2182  0.3460  1.6970
14771TIP3   OH265803   2.229   3.122   3.847  0.4890  0.6985 -0.1702
14771TIP3    H165804   2.205   3.152   3.760 -1.7029 -0.4440 -0.0036
14771TIP3    H265805   2.185   3.037   3.856  2.1382 -0.0119  1.3768
14772TIP3   OH265806   0.623   1.092  13.744  0.2503  0.0527 -0.0270
14772TIP3    H165807   0.578   1.021  13.789  1.9310 -1.2813 -0.3753
14772TIP3    H265808   0.683   1.128  13.810  1.0803 -0.4090 -0.5149
14773TIP3   OH265809   3.904   4.000  13.570 -0.8666 -0.1449 -0.4661
14773TIP3    H165810   3.848   3.991  13.493 -0.4423  2.3862 -1.1412
14773TIP3    H265811   3.895   4.092  13.595  0.0000 -0.6329  1.7395
14774TIP3   OH265812   1.672   6.170  14.164  0.6928  0.1796  0.3462
14774TIP3    H165813   1.630   6.094  14.205  0.7853  0.8766  1.7580
14774TIP3    H265814   1.620   6.186  14.085 -1.0378  0.3500  1.4884
14775TIP3   OH265815   3.375   6.259  11.697  0.4687 -0.3155  0.4926
14775TIP3    H165816   3.419   6.180  11.729 -0.9380 -1.6304 -0.7300
14775TIP3    H265817   3.371   6.248  11.603  0.6491  1.4633  0.2530
14776TIP3   OH265818   1.712   2.644   4.955  0.1117 -0.0642 -0.4010
14776TIP3    H165819   1.757   2.565   4.986 -1.5584 -0.5589  0.7953
14776TIP3    H265820   1.696   2.627   4.862  2.9619  0.4011 -1.0291
14777TIP3   OH265821   2.133   5.341  16.055 -0.1269 -0.5121 -0.0328
14777TIP3    H165822   2.207   5.294  16.094 -0.1978 -0.3684  0.2792
14777TIP3    H265823   2.148   5.433  16.077  0.1006 -0.3641 -0.7912
14778TIP3   OH265824   3.724   4.653  15.231 -0.5292  0.1348  0.4748
14778TIP3    H165825   3.751   4.718  15.166 -0.6273 -1.2443 -0.9862
14778TIP3    H265826   3.746   4.692  15.315  0.0930  1.7374 -0.4083
14779TIP3   OH265827   1.062   3.794   3.105  0.0668 -0.2446  0.8168
14779TIP3    H165828   1.152   3.762   3.100  0.7915  1.7626  0.7465
14779TIP3    H265829   1.040   3.819   3.016  0.1933  1.2787  1.2084
14780TIP3   OH265830   2.259   1.005   1.061 -0.2460  0.3571 -0.1014
14780TIP3    H165831   2.206   0.973   1.134 -1.0726  2.5497  0.3022
14780TIP3    H265832   2.196   1.040   0.998  0.3754 -2.6936 -2.5261
14781TIP3   OH265833   5.923   1.080   6.584 -0.0978  0.2353  0.2875
14781TIP3    H165834   5.988   1.093   6.515  0.0195  1.0889  0.5541
14781TIP3    H265835   5.843   1.056   6.538  0.5573 -1.4688 -0.0121
14782TIP3   OH265836   4.424   4.082  13.540  0.2028  0.5824 -0.1287
14782TIP3    H165837   4.366   4.136  13.593  0.7118  0.3880  0.6374
14782TIP3    H265838   4.369   4.051  13.468 -0.8184 -0.1198  0.9322
14783TIP3   OH265839   1.032   5.263  16.870  0.2465  0.0153  0.0502
14783TIP3    H165840   1.010   5.330  16.806  0.4190  0.8328  0.8280
14783TIP3    H265841   0.970   5.192  16.854 -1.4427  1.3173  0.6955
14784TIP3   OH265842   5.280   3.345   0.591 -0.2351 -0.0060 -0.6065
14784TIP3    H165843   5.349   3.372   0.531  0.9733  1.0725  1.2351
14784TIP3    H265844   5.217   3.417   0.590  0.2951  0.4661  0.2028
14785TIP3   OH265845   0.593   3.582  14.021  0.0067 -0.0181 -0.8881
14785TIP3    H165846   0.572   3.490  14.009 -0.7711  0.2784 -1.8033
14785TIP3    H265847   0.510   3.628  14.010 -0.3267  0.5182  2.9983
14786TIP3   OH265848   6.361   1.230  15.233  0.3769 -0.2446  0.4561
14786TIP3    H165849   6.381   1.315  15.195 -1.9161 -0.6341 -1.7166
14786TIP3    H265850   6.433   1.174  15.204  0.2357  0.1985 -0.7681
14787TIP3   OH265851   6.091   4.802  14.012 -0.4942  0.0495  0.0222
14787TIP3    H165852   5.996   4.799  13.998 -0.3260  0.2240 -1.1999
14787TIP3    H265853   6.105   4.885  14.059 -0.8277  0.5821 -0.8090
14788TIP3   OH265854   0.242   1.282   3.512 -0.1307  0.1104 -0.1152
14788TIP3    H165855   0.316   1.256   3.568  0.4615  2.6444  0.3655
14788TIP3    H265856   0.216   1.201   3.467  1.2474 -1.3686  1.6640
14789TIP3   OH265857   4.237   4.904   5.518 -0.4430 -0.3068  0.1518
14789TIP3    H165858   4.142   4.898   5.504 -0.8761  0.5659  2.5481
14789TIP3    H265859   4.260   4.993   5.492 -0.4868 -0.1256  0.7344
14790TIP3   OH265860   5.090   4.150  12.097 -0.1260  0.1077  0.2293
14790TIP3    H165861   5.075   4.245  12.098  1.3541  0.4115 -1.5556
14790TIP3    H265862   5.086   4.123  12.188  1.0946  2.1975  0.9370
14791TIP3   OH265863   6.777   4.522  14.895 -0.3932  0.1945  0.1287
14791TIP3    H165864   6.854   4.467  14.913 -0.0641  0.4820 -0.3673
14791TIP3    H265865   6.711   4.462  14.862  0.0321  0.1207 -0.6019
14792TIP3   OH265866   0.382   6.115   3.320  0.1119 -0.7121 -0.3669
14792TIP3    H165867   0.338   6.157   3.246  0.0488 -0.8913 -0.4315
14792TIP3    H265868   0.372   6.176   3.392  0.0092 -0.6229 -0.4570
14793TIP3   OH265869   3.012   3.729   1.986 -0.3293 -0.2066  0.4619
14793TIP3    H165870   3.054   3.759   2.066  1.1495  1.4788 -0.8995
14793TIP3    H265871   3.069   3.657   1.955 -0.6718 -0.5834  0.7042
14794TIP3   OH265872   1.767   6.638  15.389 -0.2230 -0.0439  0.4425
14794TIP3    H165873   1.825   6.564  15.405  1.6698  1.5322  1.0240
14794TIP3    H265874   1.760   6.643  15.293 -0.1295 -0.7896  0.3974
14795TIP3   OH265875   4.015   3.569  12.444 -0.3143 -0.0332 -0.3424
14795TIP3    H165876   4.005   3.594  12.352  0.1911  0.0032 -0.3914
14795TIP3    H265877   3.984   3.478  12.448  0.2691 -0.2477 -0.6769
14796TIP3   OH265878   5.980   5.804   0.124  0.2146  0.5969  0.3406
14796TIP3    H165879   5.962   5.888   0.164  1.4285  0.8485  0.3848
14796TIP3    H265880   5.951   5.813   0.033  2.1348  1.7338 -0.1856
14797TIP3   OH265881   5.452   2.766  15.693 -0.4272 -0.1721  0.5626
14797TIP3    H165882   5.493   2.851  15.708  1.6890 -1.0054 -0.3484
14797TIP3    H265883   5.368   2.787  15.651  0.2675  1.4562 -0.0669
14798TIP3   OH265884   3.339   6.124  17.186 -0.2769  0.0789  0.1734
14798TIP3    H165885   3.353   6.060  17.116  0.8208 -0.7605  1.1301
14798TIP3    H265886   3.369   6.206  17.148  1.2074 -0.5380 -0.0394
14799TIP3   OH265887   6.158   6.816  13.442  0.8362 -0.4735  0.9736
14799TIP3    H165888   6.174   6.758  13.368  0.4975  0.8593 -0.1711
14799TIP3    H265889   6.190   6.901  13.413  0.1631  0.1828  2.1289
14800TIP3   OH265890   2.718   4.643   3.595  0.1848  0.0378 -0.3370
14800TIP3    H165891   2.717   4.647   3.691  1.5962  1.0047 -0.3392
14800TIP3    H265892   2.644   4.587   3.572  0.1932 -0.7053  1.3509
14801TIP3   OH265893   5.278   3.072   6.749 -0.3085  0.3015  0.2312
14801TIP3    H165894   5.255   3.002   6.809 -1.0620  1.3555  1.1994
14801TIP3    H265895   5.288   3.029   6.664 -0.2839 -1.0343  0.9004
14802TIP3   OH265896   0.625   2.600  15.498  0.7290  0.2278 -0.0951
14802TIP3    H165897   0.697   2.551  15.458 -0.0115 -0.1693 -0.9524
14802TIP3    H265898   0.562   2.612  15.428  0.0683  0.8132  0.5842
14803TIP3   OH265899   3.848   2.425   4.821  0.2832  0.2634  0.2449
14803TIP3    H165900   3.782   2.485   4.788  0.0915  0.0905  0.3147
14803TIP3    H265901   3.805   2.339   4.824  0.6823  0.0423 -0.2468
14804TIP3   OH265902   2.534   1.460   3.758  0.1214 -0.2856  0.5562
14804TIP3    H165903   2.449   1.416   3.768 -0.6042  0.6078 -1.4465
14804TIP3    H265904   2.580   1.441   3.839 -1.1793 -2.5668  0.8108
14805TIP3   OH265905   3.999   0.780   1.752 -0.1410 -0.0187  0.1981
14805TIP3    H165906   4.084   0.743   1.729 -0.7490 -0.6859 -1.0016
14805TIP3    H265907   4.000   0.784   1.848  1.6854  1.0689  0.1615
14806TIP3   OH265908   1.208   4.500   1.569  0.7763 -0.0097  0.4290
14806TIP3    H165909   1.255   4.422   1.597 -0.7230 -0.5034  1.5780
14806TIP3    H265910   1.119   4.470   1.551  0.3168  1.3369  0.4004
14807TIP3   OH265911   2.246   6.326   2.287  0.2703  0.1568 -0.0051
14807TIP3    H165912   2.293   6.255   2.330 -0.0692  0.9238  1.6528
14807TIP3    H265913   2.309   6.364   2.226  0.1603 -2.1906 -1.6629
14808TIP3   OH265914   4.729   5.683   2.773  0.1783  0.3632 -0.1321
14808TIP3    H165915   4.671   5.613   2.744  0.7396  0.7443 -2.2549
14808TIP3    H265916   4.752   5.660   2.863 -0.4797 -1.6146 -0.4631
14809TIP3   OH265917   1.268   3.744   5.082 -0.2007 -0.1628 -0.4273
14809TIP3    H165918   1.190   3.795   5.061 -0.4366 -0.2771  0.1559
14809TIP3    H265919   1.305   3.787   5.159 -0.6987 -1.1811  0.3892
14810TIP3   OH265920   2.920   1.740   3.676 -0.1385  0.7270  0.1416
14810TIP3    H165921   2.905   1.690   3.596  1.1537  0.6225 -0.0368
14810TIP3    H265922   2.879   1.825   3.659  0.5191  0.8581 -0.7927
14811TIP3   OH265923   5.201   2.197   6.221  0.2435  0.4843  0.0453
14811TIP3    H165924   5.155   2.133   6.274 -1.7215  0.6328 -1.4110
14811TIP3    H265925   5.282   2.153   6.194 -0.2069 -0.6960  0.5882
14812TIP3   OH265926   2.289   0.985   6.199 -0.3187  0.4198 -0.0013
14812TIP3    H165927   2.286   1.062   6.143  1.4629  0.5174 -0.0022
14812TIP3    H265928   2.351   0.926   6.156 -1.9892 -1.2017 -0.2246
14813TIP3   OH265929   2.965   1.435   1.017 -0.6999  0.3757 -0.2728
14813TIP3    H165930   3.038   1.443   1.079 -0.5613 -0.1039 -0.3740
14813TIP3    H265931   2.982   1.503   0.951 -0.7101  0.7156  0.0712
14814TIP3   OH265932   1.146   4.693   5.805  0.9279  0.2661  0.4084
14814TIP3    H165933   1.142   4.787   5.820  1.4691  0.2181  0.8604
14814TIP3    H265934   1.238   4.670   5.817  0.5209 -0.6043  2.0708
14815TIP3   OH265935   2.968   2.268  17.127 -0.3299  0.2591  0.2931
14815TIP3    H165936   2.886   2.250  17.080 -0.3304 -0.1169  0.4326
14815TIP3    H265937   2.940   2.307  17.210 -0.2972  1.6304 -0.3395
14816TIP3   OH265938   2.520   4.854   2.504  0.0298 -0.4974 -0.4066
14816TIP3    H165939   2.483   4.807   2.429 -0.3849 -0.2766 -0.3424
14816TIP3    H265940   2.473   4.937   2.506  1.6931  0.4975 -1.3295
14817TIP3   OH265941   0.002   3.364  16.695  0.7208  0.2368 -0.0680
14817TIP3    H165942   0.045   3.279  16.688  1.7683  0.5496  2.1069
14817TIP3    H265943   0.071   3.428  16.677  0.8318  0.7012  1.8826
14818TIP3   OH265944   5.115   1.500  11.433  0.7936  0.1068 -0.5642
14818TIP3    H165945   5.088   1.460  11.515  1.7279 -2.3213 -1.4012
14818TIP3    H265946   5.206   1.526  11.446  0.9069 -0.1739 -0.7817
14819TIP3   OH265947   0.479   3.157  13.452 -0.4449 -0.5058  0.4090
14819TIP3    H165948   0.400   3.158  13.399  0.6195  1.1969 -1.2339
14819TIP3    H265949   0.527   3.235  13.424  1.3415 -0.9703  2.0790
14820TIP3   OH265950   6.010   2.233   2.648  0.0626  0.1396  0.0119
14820TIP3    H165951   6.102   2.207   2.648 -0.1654 -0.8405  1.9924
14820TIP3    H265952   5.982   2.220   2.739 -1.4997  2.3790 -0.1107
14821TIP3   OH265953   2.723   1.876   0.467 -0.0411  0.1087 -0.6733
14821TIP3    H165954   2.721   1.833   0.382  0.3572 -0.1883 -0.5353
14821TIP3    H265955   2.635   1.913   0.478 -0.2011 -0.1595 -1.0540
14822TIP3   OH265956   2.204   5.244  17.102 -0.0946 -0.0671 -0.3685
14822TIP3    H165957   2.206   5.340  17.103  0.5964 -0.0714 -0.8349
14822TIP3    H265958   2.250   5.218  17.183  0.0900 -0.0071 -0.4557
14823TIP3   OH265959   0.043   5.984   5.138  0.1040 -0.1531 -0.2813
14823TIP3    H165960   0.100   5.993   5.215  0.0362  2.4763 -0.4834
14823TIP3    H265961  -0.045   5.979   5.174  0.1582 -0.0884 -0.1401
14824TIP3   OH265962   6.044   0.878  10.881 -0.3293 -0.6167 -0.2521
14824TIP3    H165963   5.974   0.839  10.934  0.7596 -1.0949  0.8725
14824TIP3    H265964   6.093   0.803  10.848  1.0431 -0.2618  0.9094
14825TIP3   OH265965   1.883   0.026  13.951 -0.1617 -0.1961  0.4974
14825TIP3    H165966   1.800   0.073  13.942 -0.1516 -0.0039  1.3897
14825TIP3    H265967   1.894  -0.020  13.867 -1.4486 -0.6864  0.5992
14826TIP3   OH265968   3.974   3.744  11.953  0.1924  0.3110  0.0494
14826TIP3    H165969   3.925   3.771  11.876  0.3442 -0.3513 -0.2924
14826TIP3    H265970   3.924   3.776  12.027 -0.4828  0.0945 -0.3073
14827TIP3   OH265971   3.251   5.265  14.071  0.3206  0.3679 -0.0665
14827TIP3    H165972   3.311   5.219  14.130 -0.3578  0.7914  0.9692
14827TIP3    H265973   3.254   5.214  13.990  0.8525 -0.5370  0.5050
14828TIP3   OH265974   6.256   1.127  12.152  0.5398  0.2545  0.2080
14828TIP3    H165975   6.295   1.112  12.066 -1.8620  0.5390 -0.9731
14828TIP3    H265976   6.172   1.082  12.149 -0.2481  1.5474  1.8668
14829TIP3   OH265977   6.307   5.257   6.431  0.2431 -0.0530  0.0340
14829TIP3    H165978   6.279   5.216   6.513  0.4862  2.8310  1.6456
14829TIP3    H265979   6.400   5.237   6.424  0.0523 -0.9441  0.0803
14830TIP3   OH265980   3.206   6.407  13.020  0.1811 -0.5273 -0.3935
14830TIP3    H165981   3.246   6.321  13.009  1.2879  0.1287 -1.6582
14830TIP3    H265982   3.226   6.453  12.938  0.8016  1.4030  0.8149
14831TIP3   OH265983   1.148   4.953   5.861  0.2527 -0.5376  0.0510
14831TIP3    H165984   1.082   4.937   5.929  0.8686 -0.8025  0.5879
14831TIP3    H265985   1.118   5.033   5.817 -0.6308 -0.8622  0.0410
14832TIP3   OH265986   3.047   1.238   5.292 -0.0664  0.0990 -0.2389
14832TIP3    H165987   2.972   1.264   5.238 -1.6131 -1.9942  0.8524
14832TIP3    H265988   3.020   1.156   5.333  2.9468 -0.8589 -0.0482
14833TIP3   OH265989   4.863   1.766  13.879 -0.4211 -0.0838 -0.3083
14833TIP3    H165990   4.883   1.678  13.848 -1.0955 -1.1742  2.2441
14833TIP3    H265991   4.776   1.785  13.844  0.2917  0.1479 -2.0039
14834TIP3   OH265992   5.439   2.058  14.858 -0.9470 -0.2770 -0.4399
14834TIP3    H165993   5.475   2.107  14.932 -2.6269 -0.6721  0.6766
14834TIP3    H265994   5.465   2.108  14.781 -1.1201  1.3902  0.5513
14835TIP3   OH265995   1.044   6.484   5.601  0.0202  0.0826  0.7043
14835TIP3    H165996   1.009   6.527   5.523 -2.2791 -2.0500  0.5249
14835TIP3    H265997   1.079   6.401   5.569  1.1527  0.1815  1.6258
14836TIP3   OH265998   5.198   1.932  15.275  0.1543 -0.3259 -0.7772
14836TIP3    H165999   5.266   1.938  15.342 -0.9326 -2.1187  0.5212
14836TIP3    H266000   5.244   1.904  15.196  1.1811  0.1724 -0.3591
14837TIP3   OH266001   3.188   2.459  12.856 -0.2894  0.0447  0.3402
14837TIP3    H166002   3.122   2.420  12.913  0.0398  1.3218  1.6320
14837TIP3    H266003   3.191   2.402  12.779 -0.3479 -2.0450  1.8423
14838TIP3   OH266004   2.105   6.035   4.849 -0.3095 -0.2940 -0.1253
14838TIP3    H166005   2.122   5.952   4.804  0.6973 -0.0655 -0.1767
14838TIP3    H266006   2.095   6.010   4.941 -0.1859 -0.5007 -0.1678
14839TIP3   OH266007   5.427   5.016   4.984  0.5977 -0.0319  0.4182
14839TIP3    H166008   5.350   4.973   5.019 -1.2637  4.2478  1.8766
14839TIP3    H266009   5.412   5.019   4.890  0.9081 -2.6721  0.2367
14840TIP3   OH266010   5.538   6.206  13.492 -0.3646  0.5190 -0.7054
14840TIP3    H166011   5.522   6.216  13.586  1.0576 -1.2366 -0.2624
14840TIP3    H266012   5.460   6.160  13.460 -0.9973  1.3979 -0.4651
14841TIP3   OH266013   4.982   2.848   4.977 -0.5652 -0.4281 -0.4139
14841TIP3    H166014   4.979   2.910   4.904  0.2955  0.9514  0.6764
14841TIP3    H266015   4.937   2.894   5.048 -1.2326 -1.6781 -0.0189
14842TIP3   OH266016   5.258   3.437   3.520  0.1512  0.1618 -0.5700
14842TIP3    H166017   5.218   3.524   3.518  0.3583  0.2564 -0.7078
14842TIP3    H266018   5.351   3.454   3.500 -0.3067 -0.3685 -3.3381
14843TIP3   OH266019   2.882   0.161   3.393  0.0560  0.2992 -0.4453
14843TIP3    H166020   2.835   0.225   3.446 -0.0397  0.6096 -0.9060
14843TIP3    H266021   2.920   0.212   3.322  1.7962  0.1770  0.3883
14844TIP3   OH266022   3.695   2.055   3.216  0.3113  0.1269  0.3178
14844TIP3    H166023   3.743   2.016   3.143 -0.3319 -0.1857  0.0614
14844TIP3    H266024   3.734   2.017   3.294  0.4957 -0.1104  0.1107
14845TIP3   OH266025   1.642   4.952  11.479  0.0020  0.2795  0.3783
14845TIP3    H166026   1.618   4.961  11.386 -3.1562  0.4338  1.1451
14845TIP3    H266027   1.569   4.903  11.517  1.0397  0.6488  2.8842
14846TIP3   OH266028   5.521   1.355   5.352 -0.3009  0.2012 -0.1023
14846TIP3    H166029   5.467   1.281   5.325  0.7645 -0.2334 -1.0737
14846TIP3    H266030   5.539   1.402   5.271 -0.7485  1.3838  0.4729
14847TIP3   OH266031   5.725   2.775  16.005 -0.1559 -0.3109 -0.8600
14847TIP3    H166032   5.745   2.866  15.985  0.4005 -0.3858 -0.6452
14847TIP3    H266033   5.806   2.739  16.041 -0.4289 -0.8383 -0.7591
14848TIP3   OH266034   3.778   0.953  17.130 -0.1945  0.0236 -0.0687
14848TIP3    H166035   3.705   0.968  17.070 -1.0171 -0.3454  0.8141
14848TIP3    H266036   3.784   1.035  17.180 -1.9145 -0.9779  1.8419
14849TIP3   OH266037   6.009   5.037   5.135 -0.2810 -0.2540 -0.3046
14849TIP3    H166038   6.025   5.023   5.228 -1.3136  2.3433  0.3247
14849TIP3    H266039   5.940   4.974   5.113  2.7399 -3.6646 -0.3448
14850TIP3   OH266040   3.045   1.471  17.038 -0.1639 -0.1397 -0.0015
14850TIP3    H166041   2.977   1.534  17.061  1.2743  1.4704 -0.0307
14850TIP3    H266042   3.002   1.410  16.979 -1.4118  1.2303 -0.5459
14851TIP3   OH266043   3.880   2.130  13.263  0.2285  0.1345  0.1080
14851TIP3    H166044   3.914   2.219  13.250 -0.7291  0.6565  1.0563
14851TIP3    H266045   3.883   2.090  13.176  1.4185  0.8316 -0.1756
14852TIP3   OH266046   6.097   6.673  15.871 -0.1548 -0.0442  0.0974
14852TIP3    H166047   6.117   6.677  15.777  2.4511  0.3003  0.6231
14852TIP3    H266048   6.073   6.582  15.887  0.8299 -0.4506 -0.6608
14853TIP3   OH266049   5.839   5.815  11.461  0.2705  0.0108  0.2769
14853TIP3    H166050   5.802   5.750  11.520 -0.9233 -0.2933 -0.7769
14853TIP3    H266051   5.793   5.801  11.378 -0.2210  2.3694  0.1064
14854TIP3   OH266052   0.682   0.723   0.952 -0.5653  0.0002  0.9078
14854TIP3    H166053   0.678   0.818   0.940 -0.3224  0.0083  0.8890
14854TIP3    H266054   0.747   0.693   0.889 -1.2571 -0.2868  0.3232
14855TIP3   OH266055   4.948   3.975   5.719 -0.4037 -0.2940 -0.2250
14855TIP3    H166056   5.040   3.982   5.743 -0.1970  0.4252 -1.1888
14855TIP3    H266057   4.944   3.895   5.666 -0.3115 -0.2557 -0.2908
14856TIP3   OH266058   0.709   4.806  16.926 -0.2553  0.0798  0.6157
14856TIP3    H166059   0.706   4.780  16.834  1.3051 -0.7703  0.7941
14856TIP3    H266060   0.666   4.734  16.973 -0.2761  0.1087  0.6434
14857TIP3   OH266061   1.733   4.850  12.444  0.0052 -0.0989  0.0673
14857TIP3    H166062   1.719   4.810  12.530 -2.6710  1.2741  0.3094
14857TIP3    H266063   1.707   4.782  12.382 -0.9965 -0.0286  0.4067
14858TIP3   OH266064   1.380   3.952  11.261  0.7886 -0.0633  0.5900
14858TIP3    H166065   1.366   4.023  11.198 -0.3353  0.4604  1.4118
14858TIP3    H266066   1.312   3.888  11.240  1.3754 -0.5947  0.2901
14859TIP3   OH266067   2.395   4.325  14.469 -0.5171  0.5369 -0.1600
14859TIP3    H166068   2.472   4.367  14.430 -0.8738  0.3680 -1.0619
14859TIP3    H266069   2.402   4.233  14.444 -0.8395  0.4574  0.0383
14860TIP3   OH266070   0.155   3.949  16.887  0.1330  0.2815 -0.0821
14860TIP3    H166071   0.065   3.979  16.879  0.7944  1.8359 -1.8173
14860TIP3    H266072   0.150   3.854  16.874 -1.0697  0.5494 -1.6524
14861TIP3   OH266073   6.432   5.980   0.235 -0.0682 -0.0958 -0.4187
14861TIP3    H166074   6.413   5.978   0.141  0.5459  0.9730 -0.5671
14861TIP3    H266075   6.479   6.062   0.249  0.0070 -0.3316  0.7973
14862TIP3   OH266076   0.544   4.458   1.322  0.2305 -0.4161  0.0727
14862TIP3    H166077   0.457   4.491   1.298  0.1929 -0.9448 -0.5489
14862TIP3    H266078   0.573   4.410   1.244  2.0424  1.6706 -0.5816
14863TIP3   OH266079   1.711   3.857   1.443  0.4664  0.4017 -0.5816
14863TIP3    H166080   1.686   3.935   1.394 -0.6307  1.9274  2.3140
14863TIP3    H266081   1.629   3.813   1.462  0.8377  0.1070  0.3554
14864TIP3   OH266082   5.599   5.680  11.347 -0.4599 -0.4862 -0.1325
14864TIP3    H166083   5.586   5.714  11.259 -1.1965 -1.4935 -0.4161
14864TIP3    H266084   5.595   5.585  11.337  0.4130 -0.6277  0.8360
14865TIP3   OH266085   5.317   1.600  16.633  1.0543  0.4554  1.0258
14865TIP3    H166086   5.310   1.685  16.589  0.9211  1.0092  2.0938
14865TIP3    H266087   5.375   1.616  16.708  0.4797 -0.2177  1.6308
14866TIP3   OH266088   5.781   0.725  16.733  0.4164  0.3255 -0.5033
14866TIP3    H166089   5.838   0.671  16.679  1.0318  0.5988 -0.1445
14866TIP3    H266090   5.719   0.664  16.772 -0.4435  0.2117 -2.0245
14867TIP3   OH266091   6.099   5.877  14.315 -0.1192 -0.0056  0.0368
14867TIP3    H166092   6.043   5.904  14.243 -0.5993  2.5674  1.3060
14867TIP3    H266093   6.124   5.787  14.295 -0.9524  0.3816 -2.8662
14868TIP3   OH266094   3.667   5.718   0.885  0.3686 -0.4077 -0.4738
14868TIP3    H166095   3.718   5.766   0.950  1.0044 -3.2063  1.1925
14868TIP3    H266096   3.640   5.784   0.822  0.1465  2.3406  2.3730
14869TIP3   OH266097   5.902   2.810   3.712 -0.4423 -0.3376  0.3586
14869TIP3    H166098   5.899   2.878   3.778 -0.7976  0.0109 -0.0151
14869TIP3    H266099   5.815   2.810   3.673 -0.9415 -2.0837  1.4299
14870TIP3   OH266100   2.953   0.891   4.914  0.1596  0.1945 -0.3342
14870TIP3    H166101   2.880   0.946   4.941  0.7065  0.5136  0.5013
14870TIP3    H266102   3.031   0.936   4.947  0.6011 -1.1347  0.4863
14871TIP3   OH266103   4.959   4.755  16.183  0.3007 -0.5685 -0.3410
14871TIP3    H166104   4.958   4.837  16.233  1.0488  0.5941 -2.2277
14871TIP3    H266105   5.051   4.728  16.182  0.2594 -0.6800 -0.9666
14872TIP3   OH266106   5.106   4.299  16.586  0.0733 -0.0976  0.2375
14872TIP3    H166107   5.093   4.322  16.678 -0.5257 -1.6818  0.5618
14872TIP3    H266108   5.031   4.336  16.540 -0.5105 -0.7468  0.6518
14873TIP3   OH266109   5.458   3.683  17.238 -0.0213 -0.6852  0.0037
14873TIP3    H166110   5.393   3.703  17.305 -0.1244  1.6515 -0.7773
14873TIP3    H266111   5.539   3.668  17.287 -0.5346 -0.9492  0.7847
14874TIP3   OH266112   5.761   2.273  16.924  0.7698  0.3723  0.1571
14874TIP3    H166113   5.814   2.196  16.946  0.5441  0.3855  0.7731
14874TIP3    H266114   5.672   2.240  16.920  0.5671  0.7512  1.2610
14875TIP3   OH266115   1.378   0.918   4.760 -0.0381 -0.4030  0.4499
14875TIP3    H166116   1.394   0.824   4.751  0.6350 -0.2981  0.4738
14875TIP3    H266117   1.464   0.954   4.782 -0.0334  0.3693 -0.7568
14876TIP3   OH266118   1.284   0.822  12.845 -0.3026 -0.6939 -0.3906
14876TIP3    H166119   1.309   0.732  12.821 -0.3351 -0.7967 -0.0463
14876TIP3    H266120   1.188   0.822  12.839 -0.3656 -0.9414  0.4835
14877TIP3   OH266121   0.285   0.988  13.980 -0.1233 -0.2581 -0.3600
14877TIP3    H166122   0.241   1.017  14.059 -3.1217 -2.9174 -0.9557
14877TIP3    H266123   0.280   1.063  13.920 -0.4222  0.7512  0.9089
14878TIP3   OH266124   5.285   0.598   1.827 -0.0402 -0.5566  0.2146
14878TIP3    H166125   5.324   0.686   1.836  1.0147 -1.0820  0.8977
14878TIP3    H266126   5.197   0.607   1.862  0.0086  0.2754  0.1377
14879TIP3   OH266127   3.647   3.789  12.904 -0.2313 -0.4642  0.2369
14879TIP3    H166128   3.592   3.865  12.887 -1.1785 -0.3661  3.4306
14879TIP3    H266129   3.587   3.714  12.899  0.3302 -0.8481 -1.0333
14880TIP3   OH266130   4.914   1.087   2.010  0.1999  0.0969 -0.4932
14880TIP3    H166131   4.931   1.039   1.929 -0.4007 -1.2725  0.1750
14880TIP3    H266132   4.905   1.019   2.077  1.0313  1.2104  0.7990
14881TIP3   OH266133   4.306   6.772   5.146  0.4666  0.4563  0.3255
14881TIP3    H166134   4.346   6.695   5.188  2.1450  0.3287 -1.4606
14881TIP3    H266135   4.342   6.847   5.193  0.6471  0.2370  0.5356
14882TIP3   OH266136   1.194   0.322   2.691  0.4847 -0.4305  0.3502
14882TIP3    H166137   1.107   0.315   2.651  0.3086 -2.0724  0.9847
14882TIP3    H266138   1.229   0.405   2.658 -1.9000  0.9832  1.2594
14883TIP3   OH266139   5.907   0.136   1.994  0.0685 -0.2300 -0.6214
14883TIP3    H166140   5.834   0.159   1.936 -0.0299  0.0834 -0.3717
14883TIP3    H266141   5.961   0.077   1.942  0.1023  0.2333 -1.1099
14884TIP3   OH266142   0.992   4.641  11.303 -0.1009  0.0328  0.1346
14884TIP3    H166143   0.964   4.558  11.341  1.9885 -0.1100  1.4328
14884TIP3    H266144   1.042   4.617  11.226  0.0106  0.1165  0.1801
14885TIP3   OH266145   2.828   3.378  12.556  0.4118  0.4732 -0.0843
14885TIP3    H166146   2.878   3.303  12.587  1.7829  0.8534 -1.3460
14885TIP3    H266147   2.779   3.345  12.481 -0.1228  0.4848  0.2495
14886TIP3   OH266148   1.761   3.161   3.447  0.7281 -0.6748  0.2104
14886TIP3    H166149   1.717   3.150   3.363  1.2373 -1.1386  0.0026
14886TIP3    H266150   1.800   3.248   3.442  1.7065 -1.1447 -0.4810
14887TIP3   OH266151   5.325   4.162  16.800 -0.9117 -0.1327 -0.2155
14887TIP3    H166152   5.246   4.207  16.770 -1.5318 -1.2579 -0.3211
14887TIP3    H266153   5.310   4.070  16.778 -1.2653 -0.9685  3.2205
14888TIP3   OH266154   5.118   4.165  11.049 -0.0443 -0.1773  0.0338
14888TIP3    H166155   5.119   4.238  10.987 -1.6033 -0.2964 -0.1528
14888TIP3    H266156   5.169   4.097  11.005 -1.1597 -0.2715 -1.1431
14889TIP3   OH266157   6.229   5.866  14.582 -0.2227  0.6917 -0.0792
14889TIP3    H166158   6.238   5.957  14.610  0.4036  0.5991  0.0184
14889TIP3    H266159   6.213   5.872  14.488  1.1594  0.8460 -0.3065
14890TIP3   OH266160   4.332   3.556  13.212 -0.4726 -0.2109  0.4667
14890TIP3    H166161   4.362   3.528  13.125 -2.2342 -1.0692  0.1301
14890TIP3    H266162   4.255   3.610  13.195 -0.3543  0.2832  1.4548
14891TIP3   OH266163   4.705   4.887  16.809 -0.5995  0.3083  0.1642
14891TIP3    H166164   4.794   4.886  16.774 -1.0496  1.7725 -1.0568
14891TIP3    H266165   4.686   4.979  16.827 -1.1142 -0.1957  2.4321
14892TIP3   OH266166   5.796   5.660  12.425  0.6784  0.9456  0.1592
14892TIP3    H166167   5.731   5.726  12.448 -0.1074  0.0302  0.6159
14892TIP3    H266168   5.750   5.576  12.434  1.3177  0.3785 -1.5322
14893TIP3   OH266169   5.180   0.595  12.993 -0.2102 -0.0724 -0.2462
14893TIP3    H166170   5.112   0.630  12.935  0.6959  1.2374 -0.5429
14893TIP3    H266171   5.177   0.500  12.978 -1.8261 -0.0196 -0.3968
14894TIP3   OH266172   3.353   0.510  13.342  0.3066  0.0746 -0.1013
14894TIP3    H166173   3.344   0.585  13.282 -0.6196  0.0116 -0.0455
14894TIP3    H266174   3.336   0.547  13.428 -1.1880 -0.3889 -0.1738
14895TIP3   OH266175   4.264   1.369  12.656  0.5252  0.2348 -0.3624
14895TIP3    H166176   4.176   1.347  12.684  0.8239 -0.8110 -0.2309
14895TIP3    H266177   4.256   1.386  12.563  0.3306 -0.6875 -0.5194
14896TIP3   OH266178   0.733   0.687   5.154 -0.2996  0.0660  0.1196
14896TIP3    H166179   0.718   0.603   5.197  0.9062  0.2216  0.8608
14896TIP3    H266180   0.799   0.668   5.087  1.6809  0.8752  1.8159
14897TIP3   OH266181   5.859   6.193  16.597 -0.3555  0.2933  0.0726
14897TIP3    H166182   5.883   6.272  16.645  1.7104 -0.9585  1.1477
14897TIP3    H266183   5.813   6.139  16.660 -0.0763 -0.1796 -0.1266
14898TIP3   OH266184   5.615   1.027   2.268 -0.2026  0.1733  0.1601
14898TIP3    H166185   5.612   1.011   2.174  0.7473  1.1892 -0.0599
14898TIP3    H266186   5.675   1.101   2.278 -1.4234  1.0362  1.4383
14899TIP3   OH266187   5.752   5.607  16.220  0.4620  0.1448  0.2202
14899TIP3    H166188   5.840   5.611  16.258  0.3762  0.7110  0.3656
14899TIP3    H266189   5.700   5.560  16.285  0.9132 -1.2214 -0.3830
14900TIP3   OH266190   2.690   4.305   2.280 -0.6450  0.0780  0.2300
14900TIP3    H166191   2.755   4.362   2.319  0.9019 -1.8129  0.4563
14900TIP3    H266192   2.606   4.342   2.308  0.3598  1.0268  2.0577
14901TIP3   OH266193   0.299   5.894   4.974 -0.2324  0.0507  0.6346
14901TIP3    H166194   0.255   5.873   4.892 -1.1217  3.8064  0.0417
14901TIP3    H266195   0.227   5.907   5.037  0.3288  0.0676  1.2764
14902TIP3   OH266196   0.082   3.195   2.448 -0.0271  0.3102 -0.0520
14902TIP3    H166197   0.032   3.114   2.461  1.8040 -0.7623  0.5131
14902TIP3    H266198   0.123   3.184   2.362 -1.1188  1.3944 -0.7278
14903TIP3   OH266199   5.922   2.428  15.887 -0.1023  0.3298  0.1561
14903TIP3    H166200   5.831   2.417  15.915 -0.0794  1.7807  0.8392
14903TIP3    H266201   5.916   2.450  15.794 -0.5091  1.3512  0.4174
14904TIP3   OH266202   3.354   1.774  13.456  0.5979  0.4389  0.0960
14904TIP3    H166203   3.319   1.843  13.399  0.5300 -1.3684 -2.1473
14904TIP3    H266204   3.431   1.742  13.409 -1.5639 -3.5918 -0.8796
14905TIP3   OH266205   1.084   2.675  11.663  0.4984  0.2809 -0.4825
14905TIP3    H166206   1.079   2.631  11.578 -0.0275 -0.4900 -0.0618
14905TIP3    H266207   1.152   2.627  11.710  1.0250  0.9231 -0.5925
14906TIP3   OH266208   4.839   2.871   5.228  0.6446 -0.5045  0.1711
14906TIP3    H166209   4.749   2.848   5.208  0.4772  0.3270 -0.0584
14906TIP3    H266210   4.837   2.897   5.321  0.7631 -1.0600  0.3293
14907TIP3   OH266211   6.549   6.051  13.563  0.3228 -0.0038 -0.0008
14907TIP3    H166212   6.522   6.132  13.606 -0.2145 -0.1120 -0.1313
14907TIP3    H266213   6.499   5.982  13.607 -0.0132 -0.1473 -0.6023
14908TIP3   OH266214   4.267   5.748   2.296 -0.4283  0.0744  0.6243
14908TIP3    H166215   4.338   5.686   2.311 -0.1646  0.1736 -0.2224
14908TIP3    H266216   4.242   5.777   2.384  0.4340 -0.1169  0.9361
14909TIP3   OH266217   4.962   2.196   3.303 -0.1554  0.9744  0.5222
14909TIP3    H166218   4.991   2.282   3.273  2.5415 -0.9543 -2.7750
14909TIP3    H266219   5.043   2.151   3.328 -1.3282 -1.1961  0.5094
14910TIP3   OH266220   3.660   2.334   6.187  0.0004 -0.2062 -0.1068
14910TIP3    H166221   3.659   2.377   6.102  0.1133  0.5158  0.2540
14910TIP3    H266222   3.694   2.401   6.247  0.5043 -0.9080  0.3942
14911TIP3   OH266223   3.679   2.564  13.620 -0.1908 -0.3406  0.1785
14911TIP3    H166224   3.661   2.582  13.712 -0.6268  1.7169 -0.2977
14911TIP3    H266225   3.700   2.470  13.618  1.3272 -0.0923  2.5818
14912TIP3   OH266226   3.523   2.759  12.259  0.6516  0.0860  0.0917
14912TIP3    H166227   3.464   2.798  12.195 -0.4141 -2.4667 -0.5650
14912TIP3    H266228   3.476   2.764  12.342  0.4539  0.0410 -0.0195
14913TIP3   OH266229   4.680   6.090   0.776 -0.1881 -0.1869  0.7429
14913TIP3    H166230   4.756   6.138   0.743 -2.3502  1.4977 -1.9988
14913TIP3    H266231   4.689   6.003   0.737  0.5636 -0.1271  0.7735
14914TIP3   OH266232   6.183   6.598   3.001 -0.6874  0.0533  0.1831
14914TIP3    H166233   6.154   6.510   2.979 -1.4249  0.3264  0.0414
14914TIP3    H266234   6.264   6.611   2.951 -1.2174 -0.1078 -0.7187
14915TIP3   OH266235   2.927   5.125  14.384  0.6320  0.1192  0.3680
14915TIP3    H166236   2.945   5.167  14.300  0.5345  1.1332  0.8468
14915TIP3    H266237   3.005   5.072  14.401  0.5103 -0.3493 -0.5172
14916TIP3   OH266238   3.662   1.787   4.448  0.1138 -0.1286  0.6591
14916TIP3    H166239   3.677   1.878   4.475 -0.5358  0.5574 -1.2105
14916TIP3    H266240   3.604   1.751   4.515 -0.1202  1.0129  1.0839
14917TIP3   OH266241   5.666   0.594   4.897  0.6302  0.3148 -0.5368
14917TIP3    H166242   5.720   0.631   4.827 -0.7296  0.4959 -1.5231
14917TIP3    H266243   5.664   0.662   4.964 -1.8341  2.1094 -2.3294
14918TIP3   OH266244   4.266   2.947   2.197  0.3023 -0.0153 -0.0210
14918TIP3    H166245   4.244   2.934   2.289  2.1818 -1.9087  0.2015
14918TIP3    H266246   4.181   2.954   2.153 -0.6423 -0.9857  1.6009
14919TIP3   OH266247   6.049   5.728  15.721  0.2987 -0.0070  0.2592
14919TIP3    H166248   6.094   5.733  15.636  1.3923  1.9067  0.9271
14919TIP3    H266249   5.956   5.722  15.698  0.4864  1.8524 -1.0689
14920TIP3   OH266250   4.597   3.283  12.316  0.4522 -0.0764  0.1441
14920TIP3    H166251   4.542   3.270  12.238  0.5009  0.5360  0.0065
14920TIP3    H266252   4.609   3.378  12.321  2.7347 -0.2946 -0.6652
14921TIP3   OH266253   4.916   6.129   6.273 -0.0525 -0.3074  0.3856
14921TIP3    H166254   4.836   6.143   6.324 -0.2819 -0.8053  0.1673
14921TIP3    H266255   4.987   6.143   6.336 -0.2496  2.1333  0.1103
14922TIP3   OH266256   3.674   4.960   2.990 -0.5562 -0.9445 -0.2041
14922TIP3    H166257   3.632   5.000   3.066  0.9230 -2.2960  1.3623
14922TIP3    H266258   3.602   4.937   2.931 -1.6292  1.1200  0.2724
14923TIP3   OH266259   0.561   0.399  13.378 -0.5649 -0.0634 -0.1819
14923TIP3    H166260   0.647   0.359  13.385 -1.3297 -1.6463  0.3612
14923TIP3    H266261   0.538   0.393  13.285 -0.9865 -1.5509  0.0157
14924TIP3   OH266262   0.691   3.295   4.382 -0.0558 -0.1326 -0.1548
14924TIP3    H166263   0.728   3.357   4.445  1.0519 -0.8897 -0.0481
14924TIP3    H266264   0.596   3.310   4.386  0.1889  1.4707 -0.0488
14925TIP3   OH266265   0.705   6.746  14.808  0.1131 -0.3406 -0.2197
14925TIP3    H166266   0.734   6.671  14.860  0.7179 -1.7054 -2.4489
14925TIP3    H266267   0.634   6.712  14.754 -1.3726  1.3769  0.5953
14926TIP3   OH266268   0.241   2.685   1.970 -0.3389  0.0116 -0.0980
14926TIP3    H166269   0.245   2.592   1.995 -2.0028 -0.2644 -0.7961
14926TIP3    H266270   0.184   2.687   1.893  0.2391  1.5404 -0.5095
14927TIP3   OH266271   0.347   6.143  16.574 -0.2548 -0.0344  0.6455
14927TIP3    H166272   0.255   6.159  16.595 -0.6681  0.8177 -1.6903
14927TIP3    H266273   0.393   6.219  16.610 -0.9131  1.2594 -1.1971
14928TIP3   OH266274   1.665   0.197  17.164  0.3261 -0.4620 -0.2276
14928TIP3    H166275   1.730   0.247  17.115  0.1270 -0.1289 -0.1528
14928TIP3    H266276   1.687   0.213  17.256  0.2236 -0.4572 -0.2030
14929TIP3   OH266277   0.824   0.765   6.156  0.2046 -0.2141 -0.2069
14929TIP3    H166278   0.801   0.753   6.248  1.4927 -0.7138  0.0644
14929TIP3    H266279   0.894   0.829   6.156  1.1928 -1.2626 -0.6996
14930TIP3   OH266280   5.531   6.176   0.525  0.3086 -0.4177 -0.5069
14930TIP3    H166281   5.536   6.194   0.619 -0.7518  2.7124 -0.9760
14930TIP3    H266282   5.460   6.112   0.517 -1.5413  1.3959  0.6439
14931TIP3   OH266283   0.395   1.852  11.889 -0.2836  0.5127  0.1585
14931TIP3    H166284   0.330   1.914  11.922 -1.2846  0.6069 -1.9369
14931TIP3    H266285   0.363   1.766  11.918 -0.3833  0.7226  0.6672
14932TIP3   OH266286   3.216   2.924   2.924  0.0957 -0.0181 -0.3853
14932TIP3    H166287   3.216   2.916   2.828  0.9983 -1.4370 -0.2922
14932TIP3    H266288   3.282   2.991   2.943 -1.7832  1.9977 -0.8526
14933TIP3   OH266289   4.684   5.138   3.722 -0.4548 -0.1057 -0.2090
14933TIP3    H166290   4.600   5.172   3.753 -1.3687 -0.5881 -2.0281
14933TIP3    H266291   4.669   5.043   3.713  0.3574 -0.2291 -0.3255
14934TIP3   OH266292   1.320   3.069  15.509 -0.1424  0.1969  0.4502
14934TIP3    H166293   1.360   2.999  15.562 -0.4842  1.1193  1.9739
14934TIP3    H266294   1.391   3.102  15.455  0.1220 -1.0515  0.0229
14935TIP3   OH266295   6.355   1.725  12.954  0.6769 -0.4249 -0.3116
14935TIP3    H166296   6.314   1.808  12.977  0.9919  0.2641 -2.1501
14935TIP3    H266297   6.295   1.659  12.988 -1.0359  0.5730 -1.3432
14936TIP3   OH266298   3.040   2.124  14.454 -0.2670 -0.1736  0.3755
14936TIP3    H166299   3.082   2.208  14.436  1.0872 -0.9337 -0.1342
14936TIP3    H266300   2.960   2.146  14.502  0.6711  1.3393  1.2899
14937TIP3   OH266301   3.251   2.589  16.736 -0.0940  0.1612  0.0436
14937TIP3    H166302   3.305   2.662  16.707  1.4733 -1.1899 -0.4850
14937TIP3    H266303   3.166   2.604  16.694  0.2308  1.6161 -0.1302
14938TIP3   OH266304   1.266   4.206  15.409  0.0463  0.3306  0.3607
14938TIP3    H166305   1.292   4.298  15.412  1.0572  0.0939 -0.5912
14938TIP3    H266306   1.344   4.158  15.438 -0.1683 -0.2717 -0.0367
14939TIP3   OH266307   0.022   4.520   2.244 -0.0124 -0.2835  0.1940
14939TIP3    H166308  -0.071   4.505   2.224  0.3811 -1.9120 -0.4320
14939TIP3    H266309   0.034   4.480   2.330  0.6373 -2.0564 -0.7184
14940TIP3   OH266310   6.596   5.660  15.318  0.2479 -0.3744 -0.2659
14940TIP3    H166311   6.678   5.625  15.355  1.1285  0.6437 -1.2426
14940TIP3    H266312   6.532   5.646  15.387  0.9894 -2.2236  0.0909
14941TIP3   OH266313   2.689   3.743   4.034 -0.2488  0.3961  0.0704
14941TIP3    H166314   2.687   3.662   4.085  1.5308 -0.3548 -1.0131
14941TIP3    H266315   2.766   3.790   4.066  0.3615  0.3303 -1.2682
14942TIP3   OH266316   2.088   0.548   4.029  0.3062 -0.1669  0.3516
14942TIP3    H166317   2.167   0.499   4.008 -0.4411  0.0473 -3.4038
14942TIP3    H266318   2.111   0.639   4.013 -0.5695 -0.0846 -0.5958
14943TIP3   OH266319   2.495   3.504   3.894  0.0388  0.2984  0.1287
14943TIP3    H166320   2.520   3.420   3.855  2.5361  0.9241  0.2783
14943TIP3    H266321   2.517   3.494   3.987 -1.6933  0.3842  0.5658
14944TIP3   OH266322   3.639   6.632  12.348 -0.2888  0.1470  0.6520
14944TIP3    H166323   3.554   6.622  12.305  0.1872  0.2675 -0.3319
14944TIP3    H266324   3.645   6.726  12.367 -0.8223 -0.0196  1.6629
14945TIP3   OH266325   3.295   5.215  11.034  0.0251 -0.5242  0.1450
14945TIP3    H166326   3.286   5.275  11.108  0.8270  0.9396 -0.9139
14945TIP3    H266327   3.382   5.176  11.045 -0.6226 -1.7403  1.0044
14946TIP3   OH266328   5.090   6.288  12.167  0.0894 -0.4820 -0.2986
14946TIP3    H166329   5.089   6.371  12.121  0.4043 -0.2582  0.0859
14946TIP3    H266330   4.998   6.262  12.175  0.0904 -0.9820 -1.8558
14947TIP3   OH266331   2.487   0.114   3.635 -0.5068  0.4360  0.3528
14947TIP3    H166332   2.444   0.057   3.698 -0.7217 -0.7002 -0.7902
14947TIP3    H266333   2.580   0.094   3.644 -0.3284  1.8137  1.7777
14948TIP3   OH266334   0.147   1.845  11.464 -0.5257 -0.3590 -0.3925
14948TIP3    H166335   0.240   1.826  11.467 -0.4632  0.1257  0.8447
14948TIP3    H266336   0.122   1.827  11.373  0.1940 -3.0721 -0.0911
14949TIP3   OH266337   1.516   0.542   2.194  0.1863  1.3666 -0.1988
14949TIP3    H166338   1.552   0.535   2.283 -3.4880  0.3817  1.3094
14949TIP3    H266339   1.517   0.452   2.161  2.0695  1.8096 -1.4365
14950TIP3   OH266340   0.286   0.621   3.618  0.2975  0.5471  0.1742
14950TIP3    H166341   0.262   0.531   3.597  2.2372  0.2029 -0.7541
14950TIP3    H266342   0.365   0.613   3.670  0.4921  1.7080  0.0676
14951TIP3   OH266343   0.808   5.241  12.311 -0.0533 -0.7200 -0.0844
14951TIP3    H166344   0.752   5.284  12.247 -0.6163 -0.3530  0.6487
14951TIP3    H266345   0.870   5.309  12.339 -2.8428  0.5842  3.3282
14952TIP3   OH266346   4.386   1.196   3.240  0.2868  0.2680 -0.0103
14952TIP3    H166347   4.393   1.111   3.196  1.1090 -0.4609  1.4919
14952TIP3    H266348   4.428   1.257   3.179  0.1449 -0.4746 -0.8778
14953TIP3   OH266349   0.761   5.107   4.577  0.1565  0.1831 -0.3629
14953TIP3    H166350   0.726   5.096   4.666  0.3212  1.6145 -0.1089
14953TIP3    H266351   0.853   5.082   4.584 -0.3228 -1.7504 -0.6133
14954TIP3   OH266352   3.548   2.845  17.031  0.4311  0.4908  0.1103
14954TIP3    H166353   3.509   2.758  17.041  0.1925  0.4479 -1.0998
14954TIP3    H266354   3.578   2.848  16.940 -0.2901  1.9624 -0.1007
14955TIP3   OH266355   2.858   1.788  14.664  0.4349 -0.1772 -0.0390
14955TIP3    H166356   2.809   1.843  14.603 -0.3406  1.6392  2.1817
14955TIP3    H266357   2.810   1.793  14.746  2.0444 -1.7383  1.0372
14956TIP3   OH266358   5.648   3.394  14.422 -0.1454 -0.0781  0.1660
14956TIP3    H166359   5.736   3.416  14.392 -1.0134  3.5559  0.0259
14956TIP3    H266360   5.651   3.408  14.516 -0.1047 -1.6945  0.4087
14957TIP3   OH266361   0.527   6.680   4.962  0.3451  0.1258  0.6185
14957TIP3    H166362   0.614   6.686   4.923 -0.0511  0.3183 -0.2531
14957TIP3    H266363   0.509   6.769   4.993 -0.0624  0.3845 -0.3494
14958TIP3   OH266364   0.984   4.573   4.223  0.7234 -0.7017 -0.7511
14958TIP3    H166365   0.951   4.564   4.134  1.6696  2.6938 -1.5243
14958TIP3    H266366   0.920   4.629   4.267  1.8644  0.2476 -0.2538
14959TIP3   OH266367   4.125   2.595   0.213 -0.2843 -0.2839 -0.2514
14959TIP3    H166368   4.199   2.624   0.160 -1.0179  0.9385 -0.6319
14959TIP3    H266369   4.153   2.610   0.304  0.4241 -1.0287 -0.3506
14960TIP3   OH266370   5.538   2.777   5.222 -0.1071 -0.3176  0.3009
14960TIP3    H166371   5.459   2.820   5.190 -0.2831 -0.7089  0.2035
14960TIP3    H266372   5.538   2.795   5.316 -0.8048 -1.0833  0.4599
14961TIP3   OH266373   5.596   6.320   1.534  0.2466  0.5394 -0.1750
14961TIP3    H166374   5.679   6.297   1.490  0.0873 -2.5952  1.0504
14961TIP3    H266375   5.620   6.335   1.625 -0.4165  0.4219  0.0214
14962TIP3   OH266376   3.134   0.098  11.951 -0.4456  0.2927 -0.0789
14962TIP3    H166377   3.098   0.187  11.957  1.4565  1.0927 -0.1573
14962TIP3    H266378   3.070   0.049  11.899 -1.5855  1.5805  0.0944
14963TIP3   OH266379   3.366   3.657  15.395 -0.0143  0.5351  0.1483
14963TIP3    H166380   3.448   3.610  15.407  0.0225  0.5334 -0.1022
14963TIP3    H266381   3.316   3.640  15.475  0.0269  0.1249  0.0857
14964TIP3   OH266382   2.770   0.108   3.688  0.4511  0.2435  0.4518
14964TIP3    H166383   2.836   0.114   3.758  0.4101  1.2627  0.4077
14964TIP3    H266384   2.821   0.111   3.607  0.4337 -0.1209  0.4254
14965TIP3   OH266385   5.122   5.718  14.187  0.2122 -0.0399  0.6301
14965TIP3    H166386   5.096   5.776  14.259  2.3398  0.8098  0.7722
14965TIP3    H266387   5.218   5.719  14.190  0.2976 -2.5426 -0.2129
14966TIP3   OH266388   1.521   0.721  13.436  0.1246  0.0546 -0.3059
14966TIP3    H166389   1.596   0.739  13.492  1.0607  1.6058 -2.0059
14966TIP3    H266390   1.457   0.679  13.494  2.0831 -0.7929  1.2734
14967TIP3   OH266391   6.688   0.150  12.806  0.1771 -0.3633  0.4156
14967TIP3    H166392   6.686   0.115  12.895 -0.1386  0.6487  0.8128
14967TIP3    H266393   6.653   0.080  12.752  0.8030 -1.1631  1.0237
14968TIP3   OH266394   5.396   6.299  17.225 -0.5287 -0.3729 -0.5789
14968TIP3    H166395   5.304   6.274  17.215 -0.2352 -1.7047 -0.0575
14968TIP3    H266396   5.443   6.216  17.236  0.5845  0.3539  0.3781
14969TIP3   OH266397   5.038   1.834   4.459  1.0541  0.0394 -0.1598
14969TIP3    H166398   5.069   1.794   4.540  1.2634  0.1411 -0.1886
14969TIP3    H266399   5.113   1.827   4.399  0.7007 -0.5579 -0.5257
14970TIP3   OH266400   5.830   6.089   5.047 -0.0758 -0.5216  0.2923
14970TIP3    H166401   5.818   5.994   5.040  2.5296 -0.9309  0.8093
14970TIP3    H266402   5.925   6.102   5.043 -0.3863  2.0674  0.2876
14971TIP3   OH266403   4.261   5.266   4.335  0.0435 -0.0710  0.1815
14971TIP3    H166404   4.264   5.183   4.383  0.0740  0.9486  1.9650
14971TIP3    H266405   4.176   5.304   4.356 -0.0210  0.3196 -0.7299
14972TIP3   OH266406   5.849   5.664   3.038  0.4106  0.3598 -0.0449
14972TIP3    H166407   5.761   5.665   3.077 -0.1176  0.2526 -1.2104
14972TIP3    H266408   5.833   5.663   2.943  1.6732  0.2043 -0.2622
14973TIP3   OH266409   3.570   3.352  12.980 -0.0934  0.2683  0.0352
14973TIP3    H166410   3.534   3.433  12.943 -0.5028 -0.3764 -0.9990
14973TIP3    H266411   3.572   3.368  13.074  1.5281  2.1635 -0.2877
14974TIP3   OH266412   5.115   6.661   5.010  0.4435  0.4380  1.1656
14974TIP3    H166413   5.122   6.572   5.045 -2.3148  0.3597  1.6115
14974TIP3    H266414   5.198   6.676   4.966  1.1892 -2.1335  1.6253
14975TIP3   OH266415   6.603   0.179   4.793  0.6775 -0.7450  0.4395
14975TIP3    H166416   6.576   0.088   4.786 -0.3864 -0.5040  1.3699
14975TIP3    H266417   6.697   0.178   4.773  0.3783 -1.8278 -1.0056
14976TIP3   OH266418   1.852   3.348   2.835 -0.0225 -0.2318  0.5989
14976TIP3    H166419   1.873   3.342   2.741 -0.3967 -2.2034  0.6128
14976TIP3    H266420   1.937   3.348   2.878  0.1376  0.0379  0.2903
14977TIP3   OH266421   5.646   0.631   3.107  0.2876 -0.4778  0.5333
14977TIP3    H166422   5.567   0.663   3.064  1.1487 -0.1230 -0.8198
14977TIP3    H266423   5.627   0.540   3.128 -1.0403  0.0315  1.6132
14978TIP3   OH266424   5.141   5.961   1.998  0.1172  0.2320  0.2507
14978TIP3    H166425   5.218   6.014   2.017 -0.4595  1.6432 -1.2382
14978TIP3    H266426   5.070   6.024   1.988 -0.8891 -0.9324 -0.1157
14979TIP3   OH266427   4.057   3.267   4.790  0.0686  0.0816  0.5647
14979TIP3    H166428   3.972   3.311   4.787 -0.5373 -1.1110 -0.0348
14979TIP3    H266429   4.087   3.280   4.880  0.8154  3.3834 -0.0958
14980TIP3   OH266430   4.319   4.506  12.971  0.3874 -0.3445  0.0391
14980TIP3    H166431   4.402   4.473  13.003 -0.6826 -2.2681  0.9341
14980TIP3    H266432   4.320   4.488  12.877 -0.4893 -3.7643  0.6217
14981TIP3   OH266433   0.324   3.811  13.770 -0.2813 -0.5335  0.0285
14981TIP3    H166434   0.317   3.770  13.856 -1.1371  2.5644  1.5191
14981TIP3    H266435   0.391   3.879  13.781  0.5961 -1.0049 -2.1451
14982TIP3   OH266436   3.864   0.530   2.783  0.3647 -0.0019 -0.4181
14982TIP3    H166437   3.947   0.574   2.797  1.1302 -0.9747 -1.8080
14982TIP3    H266438   3.806   0.598   2.748  0.4087  0.7897  1.0094
14983TIP3   OH266439   3.888   6.275  12.863  0.4991 -0.0153  0.2755
14983TIP3    H166440   3.875   6.254  12.770  1.4817 -1.2310  0.3962
14983TIP3    H266441   3.978   6.305  12.868  1.0502 -1.7377  1.1218
14984TIP3   OH266442   1.691   6.075   5.531 -0.7692 -0.6033 -0.1360
14984TIP3    H166443   1.616   6.122   5.567 -0.0679 -0.3493  1.0106
14984TIP3    H266444   1.700   6.108   5.442 -2.0848 -0.7209 -0.3259
14985TIP3   OH266445   0.442   1.692   3.418 -0.5324  0.3717 -0.2585
14985TIP3    H166446   0.488   1.703   3.501 -1.0426  0.1505  0.0538
14985TIP3    H266447   0.486   1.619   3.375 -0.5815  0.1678  0.0363
14986TIP3   OH266448   2.202   1.188  15.592  0.1537  0.8940  0.9062
14986TIP3    H166449   2.159   1.274  15.593  0.0596  0.8445  1.7006
14986TIP3    H266450   2.247   1.185  15.508 -1.6473  0.8258 -0.0948
14987TIP3   OH266451   3.168   0.773   5.825  0.1919 -0.1672 -0.4226
14987TIP3    H166452   3.089   0.805   5.781  0.0443  0.8946  0.5804
14987TIP3    H266453   3.185   0.838   5.894  2.9845  0.6212 -1.7633
14988TIP3   OH266454   2.098   5.329   3.335 -0.0673  0.0145 -0.4895
14988TIP3    H166455   2.004   5.320   3.317 -0.3614 -0.5134  1.1876
14988TIP3    H266456   2.130   5.239   3.339  0.7865  0.2032 -2.2632
14989TIP3   OH266457   5.719   4.372  12.623  0.1924 -0.0247 -0.4061
14989TIP3    H166458   5.800   4.375  12.675 -0.1598  0.6953  0.1245
14989TIP3    H266459   5.749   4.366  12.532  0.8123 -2.0835 -0.0905
14990TIP3   OH266460   2.464   4.780   3.177  0.2426  0.5079  0.4808
14990TIP3    H166461   2.408   4.725   3.232 -1.8404  1.1818 -0.8971
14990TIP3    H266462   2.413   4.860   3.164  1.9527  1.5260 -0.0388
14991TIP3   OH266463   3.037   0.399  16.844 -0.5222 -0.2787 -0.0474
14991TIP3    H166464   3.100   0.336  16.811 -0.3113  0.1478 -0.4698
14991TIP3    H266465   3.030   0.380  16.938  0.4911 -0.1064  0.0682
14992TIP3   OH266466   6.008   0.179   1.555 -0.2144 -0.5410 -0.3631
14992TIP3    H166467   5.998   0.084   1.556 -3.4981 -0.2856  1.1344
14992TIP3    H266468   6.092   0.195   1.598  0.2804 -2.7580 -0.4509
14993TIP3   OH266469   6.581   3.461  12.527 -0.0868 -0.4374  0.5367
14993TIP3    H166470   6.496   3.491  12.559  0.3913  0.4570  0.9910
14993TIP3    H266471   6.573   3.366  12.523 -1.2511 -0.3340  0.1574
14994TIP3   OH266472   5.347   6.407  12.997 -0.6011 -0.0322  0.2499
14994TIP3    H166473   5.256   6.406  13.027 -0.6732 -0.7250  0.0147
14994TIP3    H266474   5.342   6.437  12.906 -0.5526  0.3504  0.3732
14995TIP3   OH266475   0.185   4.476   0.169 -0.5029  0.5242  0.6147
14995TIP3    H166476   0.216   4.400   0.216  0.4492  0.6817  0.2553
14995TIP3    H266477   0.110   4.444   0.118  0.0273 -0.2200  0.2943
14996TIP3   OH266478   0.705   6.359  12.491  0.7249 -0.2467  0.1371
14996TIP3    H166479   0.727   6.277  12.447  1.4359 -0.4362  0.8411
14996TIP3    H266480   0.626   6.338  12.542 -0.1131 -0.0181 -1.0693
14997TIP3   OH266481   5.118   0.719   0.233 -0.5893  0.1877  0.4349
14997TIP3    H166482   5.042   0.686   0.184 -0.5405  2.7358 -1.4293
14997TIP3    H266483   5.144   0.645   0.288 -2.6427 -1.6990 -1.0136
14998TIP3   OH266484   2.732   1.366  11.878 -0.3881 -0.6416  0.1290
14998TIP3    H166485   2.752   1.450  11.837 -1.7406  0.7357  2.2195
14998TIP3    H266486   2.726   1.304  11.805 -0.0506  1.1977 -1.4917
14999TIP3   OH266487   5.028   0.868  16.917  0.0205  0.1278  0.2299
14999TIP3    H166488   4.947   0.840  16.959  0.6753 -2.5997 -0.2515
14999TIP3    H266489   5.009   0.866  16.823 -0.4528  3.1206  0.2001
15000TIP3   OH266490   0.775   1.715   3.310  0.1807  0.6332 -0.2444
15000TIP3    H166491   0.699   1.663   3.283 -0.3044  0.7580  0.8614
15000TIP3    H266492   0.760   1.801   3.272 -0.3752  0.7422  0.2322
15001TIP3   OH266493   1.458   0.967   2.758 -0.0797 -0.5984 -0.0020
15001TIP3    H166494   1.500   1.008   2.683 -2.0551 -0.4538 -1.0422
15001TIP3    H266495   1.529   0.957   2.822  1.3134  0.5800 -1.3206
15002TIP3   OH266496   2.923   5.928   4.707 -0.5517 -0.5291 -0.1376
15002TIP3    H166497   2.844   5.882   4.677 -0.1177 -0.3336 -1.6240
15002TIP3    H266498   2.985   5.858   4.726 -0.5210 -0.6293 -0.5949
15003TIP3   OH266499   0.115   1.729  16.355  0.0346  0.4671 -0.4331
15003TIP3    H166500   0.046   1.776  16.402  1.2686 -1.1931  3.2510
15003TIP3    H266501   0.073   1.648  16.326 -0.0097  0.1951  0.3690
15004TIP3   OH266502   6.527   0.930  16.815 -0.2326 -0.6074 -0.4381
15004TIP3    H166503   6.459   0.973  16.867  0.9587  3.2307 -1.8158
15004TIP3    H266504   6.609   0.954  16.859  0.5193 -0.7021 -1.7596
15005TIP3   OH266505   4.763   5.253   1.867  0.1165 -0.3260 -0.6232
15005TIP3    H166506   4.845   5.237   1.913 -0.4776 -0.1618  0.5070
15005TIP3    H266507   4.782   5.231   1.776  1.2655 -0.7921 -0.2796
15006TIP3   OH266508   4.708   1.200  11.482 -0.1841 -0.1219 -0.0357
15006TIP3    H166509   4.638   1.142  11.512 -0.5289  0.5404  0.4653
15006TIP3    H266510   4.731   1.167  11.395 -1.4885 -0.0226 -0.4352
15007TIP3   OH266511   0.286   1.630  17.267 -0.3172  0.3240  0.3385
15007TIP3    H166512   0.281   1.602  17.176  1.5923  2.7793 -0.5864
15007TIP3    H266513   0.302   1.550  17.317  0.0423 -0.8534 -1.6350
15008TIP3   OH266514   4.450   0.737  16.142 -0.3708 -0.4637  0.0637
15008TIP3    H166515   4.415   0.764  16.227  0.0159 -0.2481  0.1555
15008TIP3    H266516   4.384   0.766  16.078 -0.3503 -0.0441  0.2334
15009TIP3   OH266517   3.464   1.563  13.039  0.9851  0.0744  0.0610
15009TIP3    H166518   3.534   1.525  13.092 -0.9309 -3.5907  0.0709
15009TIP3    H266519   3.504   1.576  12.953  2.0875 -0.6755  0.4429
15010TIP3   OH266520   4.359   1.726   2.393 -0.8559  0.0052  0.6850
15010TIP3    H166521   4.334   1.670   2.466 -0.4047 -0.6878  0.3125
15010TIP3    H266522   4.446   1.758   2.416 -0.4302 -0.7511  0.1449
15011TIP3   OH266523   5.211   6.580  13.702  0.2279  0.1140 -0.0973
15011TIP3    H166524   5.217   6.596  13.608  1.0818 -2.3499 -0.5190
15011TIP3    H266525   5.302   6.588  13.733 -0.0873  1.1821  0.5816
15012TIP3   OH266526   0.195   4.251  13.048 -0.2700 -0.2919 -0.4963
15012TIP3    H166527   0.267   4.244  13.110 -1.4951  0.2662  1.0373
15012TIP3    H266528   0.148   4.168  13.057 -0.4746 -0.1929 -0.6394
15013TIP3   OH266529   6.668   0.121   1.897 -0.7941 -0.0473  0.1923
15013TIP3    H166530   6.591   0.168   1.929 -0.1933  1.0310  0.1092
15013TIP3    H266531   6.674   0.043   1.952 -3.5396 -1.5969 -1.6193
15014TIP3   OH266532   0.988   6.506  11.497  0.6105 -0.2700  0.0793
15014TIP3    H166533   1.047   6.437  11.528  0.9611  0.2470  0.5760
15014TIP3    H266534   1.026   6.535  11.414  0.8085 -0.2433  0.1786
15015TIP3   OH266535   6.082   4.827   5.679 -0.6158  0.5803  0.8145
15015TIP3    H166536   5.994   4.836   5.716 -0.2382  0.6605  1.7153
15015TIP3    H266537   6.117   4.916   5.679 -1.0460  0.7635 -0.8613
15016TIP3   OH266538   2.596   0.033  15.399  0.1934  0.1288 -0.3279
15016TIP3    H166539   2.600   0.041  15.304  0.9530  2.4335 -0.1352
15016TIP3    H266540   2.670   0.083  15.431  0.0475 -0.7645  1.4964
15017TIP3   OH266541   1.562   5.919  13.386  0.0616 -0.1250 -0.4336
15017TIP3    H166542   1.504   5.927  13.310  0.0900  0.9603 -0.3443
15017TIP3    H266543   1.527   5.981  13.450  0.7902 -0.1155 -0.0390
15018TIP3   OH266544   6.372   5.809  16.201  0.0898 -0.5020  0.9332
15018TIP3    H166545   6.350   5.894  16.163  0.9595  0.0301  1.5897
15018TIP3    H266546   6.343   5.745  16.136 -2.4673  0.1971  1.3290
15019TIP3   OH266547   5.516   3.873  16.215  0.4556 -0.2785 -0.3910
15019TIP3    H166548   5.494   3.828  16.297  1.9746  1.3539  0.9566
15019TIP3    H266549   5.606   3.845  16.197  1.7938  2.8627  0.9937
15020TIP3   OH266550   2.302   1.783   1.001  0.0262  0.2438 -0.0779
15020TIP3    H166551   2.363   1.716   1.032 -0.3104  0.0339  0.1272
15020TIP3    H266552   2.275   1.753   0.914 -1.9891 -1.1298  0.9883
15021TIP3   OH266553   0.301   6.428  14.996 -0.3627  0.0426  0.2283
15021TIP3    H166554   0.225   6.370  14.989 -0.0017 -0.2175 -1.9448
15021TIP3    H266555   0.376   6.370  14.986  0.0119  0.7813 -1.5699
15022TIP3   OH266556   1.439   0.827  17.033  0.0508 -0.5037 -0.1465
15022TIP3    H166557   1.502   0.764  16.997  0.4349 -0.4847  0.4789
15022TIP3    H266558   1.471   0.912  17.001 -0.1412 -0.5729 -0.5235
15023TIP3   OH266559   5.028   4.087  11.688 -0.0978  0.8319  0.2258
15023TIP3    H166560   4.952   4.062  11.636  0.2794  1.8700 -0.8489
15023TIP3    H266561   5.103   4.060  11.635  0.2947  0.7337  0.8215
15024TIP3   OH266562   2.398   4.104  16.870  0.5623 -0.1141 -0.4287
15024TIP3    H166563   2.445   4.055  16.802 -0.1850  0.6368 -1.4994
15024TIP3    H266564   2.438   4.191  16.869  2.1575 -0.7958  1.7514
15025TIP3   OH266565   3.859   4.112  11.088  0.9205 -0.2555 -0.2730
15025TIP3    H166566   3.764   4.104  11.075  0.1018  1.7018  3.6883
15025TIP3    H266567   3.882   4.195  11.048  0.0062  1.6007  2.9151
15026TIP3   OH266568   6.691   3.588  16.447  0.1855 -0.4261  0.3970
15026TIP3    H166569   6.709   3.497  16.471 -0.3279 -0.4470  0.7186
15026TIP3    H266570   6.716   3.594  16.355 -0.3371 -1.0549  0.2077
15027TIP3   OH266571   4.453   1.533   0.504  0.0574  0.3907 -0.1877
15027TIP3    H166572   4.415   1.466   0.560 -0.4670 -1.0845 -2.2288
15027TIP3    H266573   4.546   1.511   0.499 -0.1445 -0.2930 -0.9885
15028TIP3   OH266574   2.840   3.829  12.687 -0.5121 -0.3186  0.2523
15028TIP3    H166575   2.860   3.740  12.658 -0.5801 -0.2719  0.0579
15028TIP3    H266576   2.876   3.885  12.618  0.3229 -0.1585  0.8060
15029TIP3   OH266577   2.814   2.112   5.323 -0.2253  0.0874 -0.7987
15029TIP3    H166578   2.889   2.097   5.379  0.1043  1.8591 -0.7131
15029TIP3    H266579   2.801   2.030   5.275  2.0766 -0.0629 -1.1851
15030TIP3   OH266580   2.100   0.350  14.376  0.2205 -0.2907 -0.2898
15030TIP3    H166581   2.039   0.362  14.449 -0.0199 -0.8170 -0.3964
15030TIP3    H266582   2.055   0.287  14.318  1.2324 -1.3219  0.0422
15031TIP3   OH266583   2.156   6.787   1.945 -0.8183  0.6381  0.2832
15031TIP3    H166584   2.179   6.750   1.860  1.3589  0.5571  0.8567
15031TIP3    H266585   2.126   6.712   1.996 -1.9548  0.6581 -0.3406
15032TIP3   OH266586   3.644   4.336  13.025  0.2126  0.3678 -0.1802
15032TIP3    H166587   3.574   4.297  12.972  0.9762 -1.5501  0.1924
15032TIP3    H266588   3.600   4.360  13.107 -0.1953 -0.0640 -0.2658
15033TIP3   OH266589   0.763   4.155  12.756 -0.2328 -0.3062 -0.0640
15033TIP3    H166590   0.827   4.088  12.732 -0.2256 -0.1883 -0.3845
15033TIP3    H266591   0.772   4.221  12.687 -2.0547 -1.2021 -1.2104
15034TIP3   OH266592   4.823   3.819   1.238 -0.4269  0.0098 -0.1820
15034TIP3    H166593   4.904   3.851   1.199  0.2211  0.6448  1.6294
15034TIP3    H266594   4.763   3.893   1.234 -0.4952 -0.0582 -0.3831
15035TIP3   OH266595   1.998   1.884  16.892  0.2633  0.2217 -0.0000
15035TIP3    H166596   1.929   1.950  16.881  0.7497  0.8682  0.8560
15035TIP3    H266597   2.038   1.877  16.805  0.4643  1.3369 -0.0016
15036TIP3   OH266598   5.163   3.815  12.449 -0.2329  0.7507  0.6609
15036TIP3    H166599   5.210   3.755  12.391 -0.0008  1.5733 -0.0151
15036TIP3    H266600   5.098   3.760  12.493 -0.0639  0.0132  0.0017
15037TIP3   OH266601   3.967   6.648  16.703 -0.9740  0.2256 -0.1904
15037TIP3    H166602   3.974   6.620  16.612 -1.2027  1.4691 -0.6055
15037TIP3    H266603   3.928   6.736  16.698  0.1616  0.8114  1.0377
15038TIP3   OH266604   0.004   2.538  12.090 -0.0577  0.3568 -0.3019
15038TIP3    H166605   0.040   2.621  12.057  0.3294  0.4582  0.3515
15038TIP3    H266606   0.011   2.478  12.016  2.1651  0.1764 -0.0026
15039TIP3   OH266607   3.447   3.679  16.964 -0.1931 -0.1277 -0.1342
15039TIP3    H166608   3.467   3.659  17.055  0.0024  0.5159 -0.0339
15039TIP3    H266609   3.376   3.743  16.968  1.4246  1.7433 -0.3666
15040TIP3   OH266610   5.018   0.804  12.834 -0.0502  1.0556 -0.5094
15040TIP3    H166611   4.942   0.755  12.804 -0.1000  0.8457 -0.0407
15040TIP3    H266612   5.047   0.853  12.757 -0.5125  0.9501 -0.7501
15041TIP3   OH266613   1.760   5.023  14.241  0.0640 -0.2135 -0.0636
15041TIP3    H166614   1.791   4.935  14.221 -0.2989 -0.3726  0.0585
15041TIP3    H266615   1.680   5.033  14.189 -0.0984 -0.0962  0.2076
15042TIP3   OH266616   5.783   6.608   2.785 -0.0166 -0.4154 -0.2063
15042TIP3    H166617   5.789   6.697   2.820  1.1121 -0.5679 -0.0197
15042TIP3    H266618   5.873   6.579   2.776 -0.2666 -0.5331 -2.9065
15043TIP3   OH266619   0.340   3.582  16.322 -0.0390 -0.3686  0.0504
15043TIP3    H166620   0.423   3.549  16.355  0.2498 -0.9386 -1.2347
15043TIP3    H266621   0.365   3.650  16.259 -0.4629 -2.2750 -2.2268
15044TIP3   OH266622   6.447   3.946   4.298  0.3538  0.2341 -0.1469
15044TIP3    H166623   6.493   4.026   4.272  0.5612  0.0836 -0.2425
15044TIP3    H266624   6.415   3.965   4.386  0.9645  0.1860  0.0925
15045TIP3   OH266625   5.712   5.102  16.440  0.3374 -0.2926 -0.6245
15045TIP3    H166626   5.701   5.152  16.359  1.4763 -0.5375 -0.9409
15045TIP3    H266627   5.800   5.065  16.434  0.4745 -0.2371  0.7686
15046TIP3   OH266628   1.872   1.493   0.321  0.3089  0.4931 -0.1691
15046TIP3    H166629   1.844   1.437   0.393  2.3647 -0.3190  0.0211
15046TIP3    H266630   1.954   1.454   0.290  0.5442  2.0388 -1.5837
15047TIP3   OH266631   6.465   0.483   0.600  0.4656 -0.0365  0.5981
15047TIP3    H166632   6.496   0.447   0.683  2.5856  1.3687  0.4250
15047TIP3    H266633   6.487   0.576   0.604 -1.7783  0.5647 -0.4576
15048TIP3   OH266634   3.841   3.747   6.023  0.3966  0.2389  0.2565
15048TIP3    H166635   3.873   3.663   6.054 -0.1591  0.4429  1.4177
15048TIP3    H266636   3.756   3.728   5.983  1.4646 -0.1426 -1.8795
15049TIP3   OH266637   1.812   6.153   1.054 -0.5236 -0.0868  0.0304
15049TIP3    H166638   1.835   6.085   0.991 -0.7592  0.8456 -1.0809
15049TIP3    H266639   1.716   6.152   1.056 -0.5051 -0.4603  0.7552
15050TIP3   OH266640   2.559   2.286   5.747 -0.5518 -0.2650 -0.2534
15050TIP3    H166641   2.629   2.296   5.811 -1.2293  1.3955  0.2466
15050TIP3    H266642   2.597   2.232   5.677  1.6203  1.6458 -0.5765
15051TIP3   OH266643   1.728   5.807  12.395 -0.0174  0.1606  0.3565
15051TIP3    H166644   1.685   5.889  12.419 -0.0467 -0.5458  2.8107
15051TIP3    H266645   1.799   5.798  12.458 -0.5298 -2.1165  0.6408
15052TIP3   OH266646   0.120   3.687   4.116  0.1623 -0.4350 -0.1065
15052TIP3    H166647   0.200   3.691   4.065 -0.3119 -0.4540 -0.8622
15052TIP3    H266648   0.052   3.721   4.058 -0.2355  0.3928  0.8210
15053TIP3   OH266649   6.042   4.977   5.422 -0.5408  1.2384 -0.6927
15053TIP3    H166650   6.074   4.901   5.373  0.5860  1.4801 -0.3345
15053TIP3    H266651   5.957   4.948   5.457  1.0305 -0.7695  1.6247
15054TIP3   OH266652   5.465   5.949  11.880 -0.1914  0.0035 -0.1424
15054TIP3    H166653   5.421   6.006  11.818  0.9104  0.1275 -0.8278
15054TIP3    H266654   5.551   5.932  11.841 -0.3217 -1.7347  0.2883
15055TIP3   OH266655   1.408   2.509   2.111 -0.1442  0.1575 -0.2814
15055TIP3    H166656   1.404   2.495   2.017  0.6008  0.3999 -0.3567
15055TIP3    H266657   1.412   2.605   2.121 -1.0784  0.1756  0.0379
15056TIP3   OH266658   6.560   0.002  13.394 -0.5217  0.4097  0.3025
15056TIP3    H166659   6.648   0.039  13.383 -0.9517  0.7058 -2.7465
15056TIP3    H266660   6.561  -0.078  13.341 -1.7238 -0.2514  1.2531
15057TIP3   OH266661   0.422   5.983   1.714 -0.6638  0.0695  0.0920
15057TIP3    H166662   0.486   6.052   1.697 -2.0460  1.6235  0.9817
15057TIP3    H266663   0.465   5.925   1.777  0.4082  0.2836 -0.4280
15058TIP3   OH266664   5.820   6.225   4.804  0.1474 -0.1696  0.4985
15058TIP3    H166665   5.848   6.188   4.888 -0.4385 -1.3851  0.1798
15058TIP3    H266666   5.902   6.244   4.758  0.4700 -0.2285  1.0390
15059TIP3   OH266667   0.425   5.302   2.853 -0.0963  0.5068 -0.1666
15059TIP3    H166668   0.367   5.344   2.789 -0.1623  0.7863  0.0764
15059TIP3    H266669   0.506   5.285   2.804 -0.6964 -0.7210 -0.7569
15060TIP3   OH266670   1.320   4.499  11.586 -0.6280 -0.5101 -0.1160
15060TIP3    H166671   1.368   4.425  11.549  2.5428  1.2775  0.3094
15060TIP3    H266672   1.308   4.477  11.678  1.7232  0.1506  0.3809
15061TIP3   OH266673   6.507   3.137  12.802 -0.0235 -0.4246  0.6194
15061TIP3    H166674   6.502   3.122  12.897  0.1318  0.9300  0.8428
15061TIP3    H266675   6.594   3.104  12.778  0.0354 -0.5464  0.9839
15062TIP3   OH266676   5.432   2.538   5.371 -0.3765 -0.4591  0.6463
15062TIP3    H166677   5.513   2.487   5.372 -0.8577 -1.4649 -2.7991
15062TIP3    H266678   5.455   2.620   5.328 -0.4347  0.7513  2.8579
15063TIP3   OH266679   3.927   3.277   0.495  0.0057  0.5300  0.2523
15063TIP3    H166680   3.960   3.188   0.506 -0.1072  0.2531 -1.6032
15063TIP3    H266681   4.000   3.326   0.459 -0.0265  1.1333  0.9834
15064TIP3   OH266682   6.011   2.637   6.416 -0.4476 -0.1638 -0.1227
15064TIP3    H166683   5.923   2.675   6.406 -0.5792 -0.4158  0.0764
15064TIP3    H266684   6.041   2.669   6.502 -0.2509  0.1139 -0.2956
15065TIP3   OH266685   1.749   3.105   2.085  0.1899 -0.5481 -0.3916
15065TIP3    H166686   1.723   3.136   2.172 -2.5332 -0.9461 -1.0279
15065TIP3    H266687   1.779   3.184   2.040  0.5057 -0.1487  0.4909
15066TIP3   OH266688   4.923   0.950   0.761  0.3870 -0.0179 -0.4272
15066TIP3    H166689   4.836   0.929   0.728  0.1858 -2.3984  1.4339
15066TIP3    H266690   4.983   0.916   0.695 -0.0155 -3.9772  1.0989
15067TIP3   OH266691   4.250   5.408   6.450 -0.2451  0.4378 -0.1074
15067TIP3    H166692   4.282   5.489   6.410 -1.0131  0.3916 -0.8441
15067TIP3    H266693   4.276   5.415   6.542  0.8524  0.9071 -0.4435
15068TIP3   OH266694   1.585   5.670   0.566  0.4244  0.2771 -0.4006
15068TIP3    H166695   1.564   5.757   0.601 -0.5543  0.2209 -0.8504
15068TIP3    H266696   1.577   5.680   0.471  1.1795 -0.0754 -0.5030
15069TIP3   OH266697   3.998   4.190   4.119  1.4706  0.2028  0.3005
15069TIP3    H166698   4.008   4.231   4.205 -0.6914 -0.9020  1.0990
15069TIP3    H266699   4.004   4.096   4.136 -0.8606 -0.1080 -0.4663
15070TIP3   OH266700   1.320   3.411   3.158  0.2436  0.1687 -0.1058
15070TIP3    H166701   1.354   3.491   3.118  1.1607 -0.8553 -1.4638
15070TIP3    H266702   1.349   3.341   3.098  0.1954 -1.2471  1.4935
15071TIP3   OH266703   0.087   4.667  14.633  0.1674  0.4801  0.6068
15071TIP3    H166704   0.060   4.605  14.700 -0.9888 -0.7068 -0.9252
15071TIP3    H266705   0.032   4.744  14.648 -0.9247 -0.2323  0.2881
15072TIP3   OH266706   0.004   5.687   1.979 -0.2883 -0.1658  0.1450
15072TIP3    H166707   0.069   5.662   2.044  0.6314 -0.3035 -0.8103
15072TIP3    H266708  -0.019   5.605   1.935  0.0071  0.1035 -0.5185
15073TIP3   OH266709   4.085   3.492  14.600  0.2195  0.8093 -0.6279
15073TIP3    H166710   4.179   3.479  14.616 -0.2032 -1.6724  0.0227
15073TIP3    H266711   4.053   3.534  14.679  0.5293  0.3370 -0.2474
15074TIP3   OH266712   1.771   5.353   0.574  0.1704  0.1511 -0.1464
15074TIP3    H166713   1.801   5.267   0.544 -1.4365 -0.7345  0.6822
15074TIP3    H266714   1.730   5.392   0.497  0.0522 -0.2398 -0.2829
15075TIP3   OH266715   1.369   1.213  13.163  0.8114  0.2874 -0.1711
15075TIP3    H166716   1.389   1.119  13.158 -1.4262 -0.1923 -0.9411
15075TIP3    H266717   1.290   1.218  13.216  0.8795  1.7430 -0.1890
15076TIP3   OH266718   6.449   0.039   5.739 -0.0319 -0.9075 -0.2696
15076TIP3    H166719   6.481  -0.038   5.693  2.0911  0.0249 -0.4130
15076TIP3    H266720   6.432   0.103   5.670 -1.3360 -1.0687 -0.1136
15077TIP3   OH266721   0.619   0.255   0.199 -0.1569  0.0404 -0.2912
15077TIP3    H166722   0.549   0.314   0.228 -1.5350 -1.0720 -1.2835
15077TIP3    H266723   0.670   0.308   0.138 -1.0191  0.4298 -0.6979
15078TIP3   OH266724   6.812   6.131  12.378 -0.2233 -0.2068 -0.2992
15078TIP3    H166725   6.804   6.052  12.325 -2.2787 -0.0483 -0.2560
15078TIP3    H266726   6.872   6.107  12.448 -1.1886 -1.8717 -0.0356
15079TIP3   OH266727   2.583   2.329  15.579  0.0142 -0.1460 -0.0394
15079TIP3    H166728   2.617   2.416  15.599 -0.5474 -0.1941  1.1908
15079TIP3    H266729   2.635   2.270  15.634 -0.7426 -0.4151  0.3880
15080TIP3   OH266730   6.001   3.415  12.077  0.2440  0.1935 -0.1975
15080TIP3    H166731   5.943   3.341  12.059  2.0741 -0.3370 -4.5798
15080TIP3    H266732   6.048   3.390  12.156 -1.0218 -2.1677 -0.1435
15081TIP3   OH266733   4.341   3.589  12.904 -0.0827  0.4793 -0.2206
15081TIP3    H166734   4.291   3.519  12.862 -1.2561 -0.5852  2.7634
15081TIP3    H266735   4.274   3.647  12.941  0.8655  1.0473  0.6271
15082TIP3   OH266736   1.362   5.823   3.951 -0.4727  0.0973  0.1740
15082TIP3    H166737   1.436   5.769   3.924  0.7624  2.4905 -1.4088
15082TIP3    H266738   1.371   5.904   3.900 -2.2122  1.8466  2.5157
15083TIP3   OH266739   2.608   1.321  16.266 -0.2260  0.3703  0.0259
15083TIP3    H166740   2.532   1.377  16.251 -0.1196  0.4681 -0.1534
15083TIP3    H266741   2.683   1.380  16.259 -0.1175  0.2167 -0.1023
15084TIP3   OH266742   6.766   4.772  11.857 -0.0732  0.5637  0.5742
15084TIP3    H166743   6.681   4.796  11.893 -0.1359  1.0662  0.0790
15084TIP3    H266744   6.823   4.846  11.876  0.1332  0.4353  0.4673
15085TIP3   OH266745   4.302   4.993   4.202  0.1922 -0.0473  0.9091
15085TIP3    H166746   4.230   4.933   4.183  1.8390 -1.9029  0.4042
15085TIP3    H266747   4.342   4.958   4.282  0.3328  1.1521  1.3744
15086TIP3   OH266748   5.923   1.521  16.898 -0.0665 -0.0192  0.3802
15086TIP3    H166749   5.860   1.501  16.967 -0.5205  0.1764  0.0253
15086TIP3    H266750   5.970   1.599  16.929 -0.1601 -0.0284  0.5430
15087TIP3   OH266751   5.189   5.211   3.872 -0.2181  0.4622  0.1678
15087TIP3    H166752   5.271   5.228   3.919 -0.9516 -0.8070  1.9663
15087TIP3    H266753   5.217   5.174   3.788  1.0916  1.6303  0.0759
15088TIP3   OH266754   0.902   4.308   0.565 -0.2562  0.1578  0.0260
15088TIP3    H166755   0.897   4.215   0.585 -3.3850 -0.1154 -1.7435
15088TIP3    H266756   0.951   4.313   0.483 -1.0873 -0.0527 -0.4909
15089TIP3   OH266757   6.545   5.029   6.568  0.1924 -0.3192  0.3943
15089TIP3    H166758   6.475   5.080   6.609 -0.0320 -1.5286  1.5236
15089TIP3    H266759   6.617   5.092   6.557 -0.3665  0.4417  1.0261
15090TIP3   OH266760   2.541   5.182   6.000 -0.1323  0.0767 -0.0007
15090TIP3    H166761   2.540   5.104   5.944 -1.6504  0.1308 -0.0769
15090TIP3    H266762   2.455   5.183   6.041  1.3908 -0.6927  3.4073
15091TIP3   OH266763   1.138   3.182  11.675 -0.7172 -0.1474 -0.0465
15091TIP3    H166764   1.086   3.121  11.624 -2.2700 -0.4710  1.8688
15091TIP3    H266765   1.181   3.238  11.610 -3.3662  0.0571 -1.6668
15092TIP3   OH266766   0.322   1.596  11.868 -0.1135  0.6495 -0.1165
15092TIP3    H166767   0.333   1.608  11.773 -0.2923  1.7019 -0.0111
15092TIP3    H266768   0.228   1.586  11.880 -0.0434 -0.0288 -0.1000
15093TIP3   OH266769   6.706   5.597  15.987  0.1603 -0.5925  0.1988
15093TIP3    H166770   6.730   5.511  16.021  1.6639 -0.2178  0.1319
15093TIP3    H266771   6.674   5.646  16.062 -1.3049 -1.4038  0.1241
15094TIP3   OH266772   0.384   4.054   0.904  0.4843  0.4474 -0.1008
15094TIP3    H166773   0.461   4.009   0.939 -0.4572 -0.6874  0.5340
15094TIP3    H266774   0.403   4.147   0.916  1.0262  0.1264  1.6050
15095TIP3   OH266775   2.152   5.577  16.591  0.0576  0.3209  0.1425
15095TIP3    H166776   2.121   5.662  16.560 -0.8016  0.4019  1.2194
15095TIP3    H266777   2.074   5.523  16.594  0.3894 -0.1258  0.7617
15096TIP3   OH266778   4.735   3.995  16.260 -0.1003 -0.0681 -0.5326
15096TIP3    H166779   4.758   3.912  16.302  0.1138  0.0962 -0.3208
15096TIP3    H266780   4.647   4.015  16.293 -0.7654 -0.9532 -1.7392
15097TIP3   OH266781   2.093   5.989   5.587 -0.5009  0.2580  0.5746
15097TIP3    H166782   2.139   5.936   5.652  2.0295  0.7350 -0.7442
15097TIP3    H266783   2.084   6.075   5.628 -0.6599  0.0288  1.0265
15098TIP3   OH266784   0.747   6.396  13.968 -0.1848  0.2629  0.2348
15098TIP3    H166785   0.779   6.334  13.902  0.1294 -1.5640  2.0862
15098TIP3    H266786   0.755   6.350  14.051 -1.0975  2.3499  1.5175
15099TIP3   OH266787   2.152   1.456  12.554 -0.2292 -0.9327  0.2319
15099TIP3    H166788   2.125   1.450  12.646  0.1315 -2.2208  0.2611
15099TIP3    H266789   2.236   1.411  12.550  0.5079  0.4765 -0.4387
15100TIP3   OH266790   0.372   3.602   1.935 -0.2902 -0.7503  0.5200
15100TIP3    H166791   0.314   3.551   1.880  3.4689 -1.5835 -2.8709
15100TIP3    H266792   0.415   3.538   1.992 -1.7285 -0.2679  2.2155
15101TIP3   OH266793   3.462   1.188  11.282 -0.5166 -0.3107  0.7867
15101TIP3    H166794   3.482   1.165  11.373 -0.2657 -2.2095  0.2777
15101TIP3    H266795   3.531   1.144  11.231 -1.1354  0.0476 -0.3754
15102TIP3   OH266796   3.377   2.382   2.773  0.6781 -0.4853 -0.1724
15102TIP3    H166797   3.311   2.438   2.733  0.9667 -0.1411 -0.1663
15102TIP3    H266798   3.330   2.335   2.843  0.1170 -1.2480 -1.0426
15103TIP3   OH266799   3.025   4.413  11.976  0.2317 -0.2094 -0.2796
15103TIP3    H166800   2.977   4.462  11.909 -0.0888 -1.3927 -0.9363
15103TIP3    H266801   2.998   4.322  11.963  0.0867 -0.4494  1.5246
15104TIP3   OH266802   1.559   6.775  16.632  0.0210 -0.5034 -0.2225
15104TIP3    H166803   1.605   6.700  16.594 -0.3779 -0.4655 -0.7901
15104TIP3    H266804   1.576   6.769  16.726 -1.9296 -2.6680  0.0509
15105TIP3   OH266805   0.123   2.540  11.316  0.0817 -0.9310 -0.0939
15105TIP3    H166806   0.145   2.612  11.257  0.1242  0.1506  1.2152
15105TIP3    H266807   0.061   2.578  11.379  1.3732 -1.5684  1.6184
15106TIP3   OH266808   3.787   3.902  13.322 -0.2488  0.2068  0.1875
15106TIP3    H166809   3.708   3.944  13.287 -0.9645 -0.5522  0.8809
15106TIP3    H266810   3.769   3.808  13.315  1.5694 -0.0327 -1.8806
15107TIP3   OH266811   4.322   5.976  16.093 -0.0316 -0.0340 -0.7264
15107TIP3    H166812   4.231   5.976  16.063  0.0308  2.3845 -1.0265
15107TIP3    H266813   4.374   5.982  16.013  0.2441  2.3102 -0.4187
15108TIP3   OH266814   1.237   6.812  11.016  0.5773  0.0700 -0.5442
15108TIP3    H166815   1.286   6.759  11.079 -0.6835 -1.6139 -0.9492
15108TIP3    H266816   1.258   6.774  10.931  0.2146  0.6707 -0.9050
15109TIP3   OH266817   4.943   0.745   6.056  0.5482 -0.0834 -0.1168
15109TIP3    H166818   5.029   0.734   6.097  0.1324 -0.6714  0.5789
15109TIP3    H266819   4.921   0.659   6.023  0.1497  0.0376 -0.1651
15110TIP3   OH266820   3.021   5.339   1.379  0.2042  0.7121  0.3923
15110TIP3    H166821   3.050   5.302   1.296  2.0900  1.3025  0.7624
15110TIP3    H266822   2.928   5.315   1.386  0.7860 -1.8784 -0.4711
15111TIP3   OH266823   4.335   4.577   4.145  0.1092  0.2513 -0.6062
15111TIP3    H166824   4.384   4.495   4.137  1.3631  1.0907 -1.7234
15111TIP3    H266825   4.243   4.550   4.137  0.5951 -0.8136 -3.2501
15112TIP3   OH266826   3.947   3.231  10.897  0.5357  0.0888  0.3723
15112TIP3    H166827   4.023   3.250  10.953  0.1646  0.1081  0.8712
15112TIP3    H266828   3.915   3.317  10.870 -0.1121  0.1304  1.2470
15113TIP3   OH266829   1.457   6.242   1.119  0.0733 -0.3031  0.4228
15113TIP3    H166830   1.420   6.207   1.038 -0.1059  0.9332 -0.0438
15113TIP3    H266831   1.390   6.301   1.153 -0.2757 -1.5842  2.0286
15114TIP3   OH266832   4.886   0.173   4.051 -0.1234  0.0208  0.7255
15114TIP3    H166833   4.964   0.118   4.062 -0.5234 -0.0433  3.5297
15114TIP3    H266834   4.916   0.262   4.064 -0.3783  0.0649  1.0183
15115TIP3   OH266835   5.004   6.781  16.934 -0.0739  0.1228  0.0693
15115TIP3    H166836   4.917   6.772  16.894 -0.4129 -0.2243  0.8759
15115TIP3    H266837   5.034   6.691  16.946  1.2042  0.2508 -1.9209
15116TIP3   OH266838   2.072   6.005  15.778 -0.1826  0.0804  0.0758
15116TIP3    H166839   2.140   6.050  15.829 -0.0991  1.3999 -1.1778
15116TIP3    H266840   2.004   6.071  15.765  1.0296  0.6612 -3.8982
15117TIP3   OH266841   5.834   5.478  12.697  0.2655  0.4892 -0.0495
15117TIP3    H166842   5.930   5.467  12.697  0.1665 -0.3991 -0.1475
15117TIP3    H266843   5.800   5.391  12.679 -0.6092  0.4401  1.6982
15118TIP3   OH266844   2.167   0.465  11.664  0.0132 -0.2546 -0.8287
15118TIP3    H166845   2.086   0.490  11.620 -1.2741 -2.4658  0.2527
15118TIP3    H266846   2.176   0.371  11.649  1.4653 -0.3690  0.5292
15119TIP3   OH266847   1.392   2.579  13.680  0.4533  0.0765  0.1758
15119TIP3    H166848   1.321   2.642  13.671  0.6665  0.5264  1.4509
15119TIP3    H266849   1.370   2.508  13.620  0.1613  1.3152 -1.2051
15120TIP3   OH266850   1.505   5.942   1.734  0.0549 -0.1874 -1.3190
15120TIP3    H166851   1.440   5.982   1.677  0.6792  0.7856 -1.3578
15120TIP3    H266852   1.454   5.885   1.792 -0.7705  0.1313 -1.7218
15121TIP3   OH266853   1.229   3.484  12.277 -0.4231 -0.2424 -0.0326
15121TIP3    H166854   1.225   3.555  12.214 -0.3260 -0.2548 -0.0523
15121TIP3    H266855   1.171   3.512  12.348  0.5871  0.4226  0.5450
15122TIP3   OH266856   4.981   2.964   2.120 -0.4133 -0.3852  0.5739
15122TIP3    H166857   4.927   2.885   2.114 -0.8746  0.0719 -1.9722
15122TIP3    H266858   4.936   3.019   2.183 -1.9050 -0.7931 -0.1240
15123TIP3   OH266859   4.014   2.387   2.038  0.0698  0.5601 -0.2555
15123TIP3    H166860   4.043   2.420   1.954  0.4596  2.2960  0.5417
15123TIP3    H266861   3.934   2.436   2.057  0.1670  0.4247  0.5384
15124TIP3   OH266862   3.471   2.300   3.396  0.1830 -0.3589  0.3998
15124TIP3    H166863   3.447   2.207   3.395 -1.7787  0.1067  1.1812
15124TIP3    H266864   3.491   2.321   3.305 -0.0279 -1.3858  0.1105
15125TIP3   OH266865   5.709   3.765   6.033 -0.7504 -0.2119 -0.4737
15125TIP3    H166866   5.733   3.713   6.109 -0.3776  1.0215  0.2755
15125TIP3    H266867   5.666   3.843   6.070  0.4935  0.9511 -1.4461
15126TIP3   OH266868   4.424   4.457  11.844 -0.3850 -0.3974 -0.2882
15126TIP3    H166869   4.381   4.449  11.929  0.8187 -1.7558  0.2264
15126TIP3    H266870   4.361   4.421  11.782 -0.3178 -1.6452  0.3535
15127TIP3   OH266871   1.379   3.420   0.421  0.0998 -0.2425  0.4509
15127TIP3    H166872   1.399   3.480   0.350  0.1897  0.3681  0.9849
15127TIP3    H266873   1.314   3.360   0.384  2.6528 -2.0481 -1.1968
15128TIP3   OH266874   1.600   6.185  13.907  0.0684  0.4235  0.1775
15128TIP3    H166875   1.553   6.268  13.903 -2.6089 -1.0514 -0.2170
15128TIP3    H266876   1.668   6.192  13.840  0.2913  2.5237  0.5957
15129TIP3   OH266877   2.594   0.847   2.295  0.2321  0.0084 -0.5037
15129TIP3    H166878   2.584   0.760   2.334 -2.4235  0.8023  0.6699
15129TIP3    H266879   2.667   0.887   2.342  1.0664 -1.3568 -0.6255
15130TIP3   OH266880   4.169   1.289   4.761  0.0859  0.0884 -0.0102
15130TIP3    H166881   4.155   1.352   4.690  0.2408 -0.3783 -0.4607
15130TIP3    H266882   4.262   1.268   4.756 -0.3580 -1.7791 -1.2401
15131TIP3   OH266883   0.090   2.290  13.241  0.6660  0.4084 -0.4556
15131TIP3    H166884   0.137   2.359  13.195 -0.7808 -0.0697 -2.7292
15131TIP3    H266885   0.044   2.335  13.312  0.1946  1.7114 -1.5680
15132TIP3   OH266886   2.622   3.119   0.361 -0.1406  0.0948 -0.1448
15132TIP3    H166887   2.538   3.109   0.406 -0.1321  0.5444 -0.0284
15132TIP3    H266888   2.668   3.036   0.377 -0.5297 -0.1187 -0.1402
15133TIP3   OH266889   2.834   2.351  16.660  0.2669 -0.0485 -0.1935
15133TIP3    H166890   2.850   2.414  16.589  0.0864  1.7166  1.3076
15133TIP3    H266891   2.920   2.313  16.678  0.6510  0.8459 -0.1204
15134TIP3   OH266892   1.182   4.909  12.159 -0.0105 -0.0045  0.5026
15134TIP3    H166893   1.213   4.969  12.091  0.2163 -0.4127  0.2393
15134TIP3    H266894   1.087   4.922  12.160 -0.0502 -0.2113 -0.1047
15135TIP3   OH266895   5.529   1.566   3.772  0.7461 -0.2994  0.2559
15135TIP3    H166896   5.533   1.471   3.767 -1.5352 -0.3830 -0.5064
15135TIP3    H266897   5.549   1.587   3.863  3.3327 -1.3516 -0.0326
15136TIP3   OH266898   0.044   0.132  17.063  0.2198  0.0679 -0.0332
15136TIP3    H166899   0.100   0.187  17.118 -1.1714  2.5196 -0.9884
15136TIP3    H266900   0.083   0.140  16.975  0.8326 -1.6447  0.0553
15137TIP3   OH266901   5.896   5.404  17.030  0.1933 -0.4863 -0.1457
15137TIP3    H166902   5.856   5.485  17.063  0.8031  0.1883 -1.0443
15137TIP3    H266903   5.825   5.340  17.033 -0.5787  0.3418 -0.3687
15138TIP3   OH266904   3.854   5.696   5.522  0.1693 -0.1742 -0.4112
15138TIP3    H166905   3.899   5.654   5.449 -0.7352  0.1045 -1.1511
15138TIP3    H266906   3.766   5.715   5.488 -0.2191  0.0882  0.7029
15139TIP3   OH266907   0.375   6.162   6.052 -0.3695 -0.0396  0.0498
15139TIP3    H166908   0.351   6.222   6.123 -2.1221  1.3679 -1.6622
15139TIP3    H266909   0.314   6.089   6.061  2.4680 -2.2087  2.8015
15140TIP3   OH266910   1.787   2.267  16.751 -0.2234 -0.2058  0.1270
15140TIP3    H166911   1.857   2.245  16.690 -0.0443  0.0287  0.2431
15140TIP3    H266912   1.717   2.204  16.733 -0.6054  0.5533 -1.0607
15141TIP3   OH266913   6.313   2.166   0.130 -0.3731  0.1022  0.1189
15141TIP3    H166914   6.387   2.221   0.155 -0.6358  0.2808  0.5110
15141TIP3    H266915   6.326   2.085   0.180 -0.0989 -0.1117 -0.2994
15142TIP3   OH266916   2.023   2.740   0.488  0.0578  0.0245  0.2104
15142TIP3    H166917   1.987   2.828   0.488 -1.7544 -0.7087  0.9826
15142TIP3    H266918   2.048   2.724   0.579 -1.7663 -1.1081  0.5348
15143TIP3   OH266919   2.186   4.416   0.616 -0.2629 -0.0111 -0.0860
15143TIP3    H166920   2.274   4.417   0.579 -0.5983  0.2201 -0.8877
15143TIP3    H266921   2.182   4.493   0.673  0.4685 -0.7256  0.9535
15144TIP3   OH266922   0.968   6.495  15.262 -0.1104 -0.2664  0.5934
15144TIP3    H166923   0.898   6.462  15.320  0.1941  0.8974  1.6379
15144TIP3    H266924   1.036   6.427  15.266 -0.7998 -0.9958  0.2520
15145TIP3   OH266925   4.178   4.320  14.859  0.1234  0.8202  0.0022
15145TIP3    H166926   4.250   4.340  14.799 -0.3736 -0.0609 -0.9098
15145TIP3    H266927   4.120   4.396  14.853 -0.0667  0.6144 -0.8720
15146TIP3   OH266928   2.592   5.931  12.859 -0.5003 -0.2308 -0.0592
15146TIP3    H166929   2.682   5.959  12.840 -0.1920 -0.1431  1.4751
15146TIP3    H266930   2.598   5.836  12.867 -0.1209 -0.0365  2.1874
15147TIP3   OH266931   4.243   0.534   1.230  0.3621 -0.1564  0.6181
15147TIP3    H166932   4.336   0.512   1.227  0.2181 -0.7018  0.1068
15147TIP3    H266933   4.199   0.457   1.195 -0.3045 -0.0244  1.1472
15148TIP3   OH266934   3.523   3.832   1.682  0.4670 -0.3526  0.0156
15148TIP3    H166935   3.455   3.833   1.749 -0.5581 -2.3439 -0.9549
15148TIP3    H266936   3.475   3.835   1.599  1.7256  2.6134 -0.6807
15149TIP3   OH266937   5.271   2.506   2.776  0.8570 -0.4961 -0.1037
15149TIP3    H166938   5.322   2.426   2.760  0.3332 -0.9575  0.4975
15149TIP3    H266939   5.214   2.513   2.700  0.4220 -1.0739  0.1678
15150TIP3   OH266940   4.377   0.880   2.738  0.0880 -0.6253  0.4051
15150TIP3    H166941   4.375   0.968   2.775  1.0117  0.4433 -2.0089
15150TIP3    H266942   4.469   0.853   2.745 -0.0489 -1.0909  0.4305
15151TIP3   OH266943   0.834   0.022   6.668 -0.0236  0.4522  0.1809
15151TIP3    H166944   0.769  -0.032   6.624 -0.9361  1.7350 -0.0700
15151TIP3    H266945   0.859  -0.029   6.745 -0.7326 -0.3947 -0.1344
15152TIP3   OH266946   3.363   6.544  13.563 -0.1260 -0.4524 -0.1230
15152TIP3    H166947   3.316   6.460  13.559  0.0379 -0.5117 -0.8321
15152TIP3    H266948   3.402   6.554  13.477 -0.2056  0.4000 -0.0628
15153TIP3   OH266949   3.476   3.113   4.201  0.3818 -0.3291 -0.9498
15153TIP3    H166950   3.440   3.074   4.121 -1.5734 -1.5331  0.4679
15153TIP3    H266951   3.429   3.070   4.272  1.0313  1.7622  0.8231
15154TIP3   OH266952   2.665   6.421  17.291 -0.2481  0.6167  0.3319
15154TIP3    H166953   2.579   6.451  17.320  0.3317  1.1687  1.5309
15154TIP3    H266954   2.711   6.502  17.266  0.9206  0.6575  2.4712
15155TIP3   OH266955   5.500   2.821  12.388 -0.0748 -0.0924 -0.1634
15155TIP3    H166956   5.451   2.759  12.334 -0.3630  0.8977 -1.0414
15155TIP3    H266957   5.481   2.794  12.478 -1.4167 -0.3381 -0.5086
15156TIP3   OH266958   1.425   4.598   0.437 -0.5092 -0.0848 -0.0097
15156TIP3    H166959   1.432   4.660   0.509  0.5319  0.4062 -0.5230
15156TIP3    H266960   1.373   4.643   0.371 -1.9040 -0.7324  0.6330
15157TIP3   OH266961   0.304   4.018  12.278  0.9504  0.2451 -0.0569
15157TIP3    H166962   0.364   3.943  12.272  0.7687  0.1807 -1.2460
15157TIP3    H266963   0.286   4.027  12.372  1.4442 -0.8277  0.1502
15158TIP3   OH266964   1.889   0.756  11.865  0.0196 -0.3470  0.5804
15158TIP3    H166965   1.953   0.742  11.795 -0.7670 -0.9215 -0.0402
15158TIP3    H266966   1.919   0.835  11.909  0.7139 -0.1582 -0.2066
15159TIP3   OH266967   6.241   4.508  16.190  0.0352 -0.0309 -0.1556
15159TIP3    H166968   6.156   4.464  16.197  0.5599 -0.7736  1.6050
15159TIP3    H266969   6.305   4.441  16.213  1.1208  0.5364 -1.4328
15160TIP3   OH266970   3.151   6.040   5.112 -0.8604  0.3167 -0.2380
15160TIP3    H166971   3.188   6.060   5.198 -0.6673  0.5826 -0.3830
15160TIP3    H266972   3.159   5.945   5.104 -2.1979  0.1137  0.6487
15161TIP3   OH266973   3.284   0.366   1.148  0.0338 -0.9028 -0.1868
15161TIP3    H166974   3.200   0.362   1.101 -0.0414  0.3593 -0.1688
15161TIP3    H266975   3.262   0.409   1.232  0.8660  0.2904 -0.5731
15162TIP3   OH266976   0.763   1.081  14.641 -0.0099  0.1154 -0.4709
15162TIP3    H166977   0.730   1.144  14.576  0.1206  1.7159  0.9880
15162TIP3    H266978   0.689   1.023  14.656 -0.7809  1.1027 -0.3871
15163TIP3   OH266979   2.893   2.004  12.295 -0.1225 -0.4304  0.1887
15163TIP3    H166980   2.972   2.055  12.279 -0.5971  0.3112  0.1976
15163TIP3    H266981   2.848   2.002  12.211  0.0928 -1.1981  0.0807
15164TIP3   OH266982   2.017   5.683   1.627  0.1270  0.0800 -0.1631
15164TIP3    H166983   2.087   5.670   1.691  0.5506 -0.7722 -0.7974
15164TIP3    H266984   1.971   5.761   1.658  0.4849 -0.1675  1.0459
15165TIP3   OH266985   3.067   4.211  15.650 -0.0503 -0.3821  0.6342
15165TIP3    H166986   3.115   4.128  15.657  1.6741  0.5474  0.1819
15165TIP3    H266987   3.130   4.271  15.609 -0.7729  1.5517  2.3075
15166TIP3   OH266988   0.347   0.624   1.754 -0.1618  0.5728  0.0396
15166TIP3    H166989   0.333   0.561   1.825 -2.0226  0.9876  0.0458
15166TIP3    H266990   0.370   0.569   1.678  3.8999  0.2224  1.3716
15167TIP3   OH266991   6.039   2.544   2.476  0.1858 -0.6659  0.2967
15167TIP3    H166992   5.961   2.537   2.422  1.4429  0.6749 -1.7598
15167TIP3    H266993   6.007   2.578   2.560 -1.4517 -0.2120 -0.4855
15168TIP3   OH266994   4.384   5.454  13.815  0.0706  0.4949 -0.0836
15168TIP3    H166995   4.368   5.508  13.738 -0.7652  0.7358  0.2570
15168TIP3    H266996   4.480   5.443  13.818  0.0599 -0.0351 -1.5074
15169TIP3   OH266997   0.405   2.912   1.854 -0.2385 -0.0192  0.0478
15169TIP3    H166998   0.347   2.841   1.883  0.2046  0.6907  2.7060
15169TIP3    H266999   0.358   2.992   1.876  1.0760  0.5557  0.7959
15170TIP3   OH267000   5.354   6.250  14.875 -0.1176 -0.0509  0.1095
15170TIP3    H167001   5.296   6.308  14.924  0.3892  2.0680 -1.7323
15170TIP3    H267002   5.295   6.189  14.831 -1.0097  2.0276 -1.6708
15171TIP3   OH267003   1.084   0.077   0.800 -0.0274  0.1671 -0.1728
15171TIP3    H167004   1.036   0.127   0.866 -1.8119  0.4257 -1.6386
15171TIP3    H267005   1.016   0.037   0.746  1.4157 -0.5447 -1.4931
15172TIP3   OH267006   2.074   6.706  14.428 -0.3484 -0.0737  0.1415
15172TIP3    H167007   2.107   6.659  14.504  0.7002 -1.8076 -1.3559
15172TIP3    H267008   2.120   6.668  14.354 -1.9881  0.9956 -1.4777
15173TIP3   OH267009   2.427   3.627  12.611 -0.1230 -0.1460 -0.3116
15173TIP3    H167010   2.468   3.682  12.678 -0.5522 -0.9828  0.6565
15173TIP3    H267011   2.480   3.641  12.532  1.1359 -0.0877  0.5262
15174TIP3   OH267012   1.405   6.285   1.778  0.1902  0.0380  0.3168
15174TIP3    H167013   1.489   6.241   1.786 -0.7446 -1.6544  1.2481
15174TIP3    H267014   1.427   6.376   1.758  2.1999 -0.5559 -0.2976
15175TIP3   OH267015   6.307   2.964   2.488  0.0704 -0.5969 -0.1702
15175TIP3    H167016   6.294   2.936   2.579 -0.4774 -0.8214 -0.3139
15175TIP3    H267017   6.224   2.943   2.445  0.2093 -0.1731 -0.6419
15176TIP3   OH267018   6.067   6.006  15.794  0.6456  0.2489  0.4047
15176TIP3    H167019   5.982   6.044  15.771  1.1311  1.6344  0.8598
15176TIP3    H267020   6.054   5.911  15.785  0.1149  0.5846 -3.1195
15177TIP3   OH267021   2.103   0.985   1.312  0.2163  1.3835 -0.2709
15177TIP3    H167022   2.122   0.979   1.406  0.0721  1.7382 -0.2183
15177TIP3    H267023   2.067   0.900   1.289  0.3157  1.2740 -0.0163
15178TIP3   OH267024   0.209   1.156   4.252 -0.4271  0.6672 -0.1797
15178TIP3    H167025   0.235   1.237   4.208 -0.0458  1.0183  0.6918
15178TIP3    H267026   0.288   1.125   4.296 -0.4909 -0.3467 -0.7493
15179TIP3   OH267027   6.448   4.842  15.965  0.7794  0.5755  0.2082
15179TIP3    H167028   6.535   4.805  15.982  0.3334  0.0475  1.4876
15179TIP3    H267029   6.457   4.888  15.882  1.9377 -0.5957 -0.3466
15180TIP3   OH267030   3.542   3.064  12.417 -0.1782 -0.3863 -0.1422
15180TIP3    H167031   3.539   2.978  12.374 -1.5185 -1.0261  1.2061
15180TIP3    H267032   3.628   3.067  12.459 -0.5452 -1.5358  0.7232
15181TIP3   OH267033   2.988   1.389  14.985  0.1491  0.2428  0.1543
15181TIP3    H167034   3.071   1.353  15.015 -0.6210 -0.7631  1.1132
15181TIP3    H267035   2.987   1.372  14.891  0.0638 -1.7402  0.4849
15182TIP3   OH267036   3.969   1.716   1.616 -0.0686 -0.0484 -0.3682
15182TIP3    H167037   3.899   1.652   1.630  1.0343 -1.0186  0.7423
15182TIP3    H267038   3.939   1.794   1.662 -0.0592 -0.7251  0.8023
15183TIP3   OH267039   3.085   5.722   4.400 -0.1047 -0.6396 -0.2240
15183TIP3    H167040   3.103   5.646   4.454  0.4847  0.4008  1.0628
15183TIP3    H267041   3.090   5.689   4.310  2.1969 -1.6733  0.2442
15184TIP3   OH267042   0.482   4.245   1.500 -0.1080 -0.0013  0.1274
15184TIP3    H167043   0.499   4.330   1.459 -0.0403  0.0696  0.3043
15184TIP3    H267044   0.394   4.221   1.469 -0.7686  0.8493  1.2899
15185TIP3   OH267045   5.850   5.834  16.938 -0.5558 -0.1045 -0.2865
15185TIP3    H167046   5.799   5.908  16.972 -1.2880 -1.3349  1.3223
15185TIP3    H267047   5.928   5.875  16.899 -0.8220  1.4929  0.8076
15186TIP3   OH267048   2.293   0.336   0.025  0.5866  0.1528 -0.3300
15186TIP3    H167049   2.258   0.389  -0.047  1.2614 -1.6776 -2.0881
15186TIP3    H267050   2.219   0.320   0.083 -1.4235 -2.9634 -3.5405
15187TIP3   OH267051   1.932   6.083   3.165 -0.3148 -0.1397  0.2206
15187TIP3    H167052   1.982   6.019   3.113 -0.3624 -0.0665  0.0861
15187TIP3    H267053   1.933   6.047   3.253  0.5777  0.2021  0.3648
15188TIP3   OH267054   6.124   0.231  16.450  0.7232 -0.3015 -0.1862
15188TIP3    H167055   6.176   0.304  16.416  0.5713  0.0651  0.3699
15188TIP3    H267056   6.096   0.183  16.371  1.0413  0.0886 -0.5386
15189TIP3   OH267057   2.469   1.016   5.486  0.7564 -0.5243  0.6768
15189TIP3    H167058   2.551   1.049   5.450  1.1213 -0.9891  1.0825
15189TIP3    H267059   2.492   0.982   5.572 -0.1683  0.8450  1.4805
15190TIP3   OH267060   4.680   3.672   3.373 -0.3497  0.5037 -0.2247
15190TIP3    H167061   4.707   3.764   3.367  0.8351  0.1054 -1.3602
15190TIP3    H267062   4.763   3.623   3.373 -0.9565 -0.7550 -4.0689
15191TIP3   OH267063   6.608   0.084  14.018  0.4174  0.2151 -0.3492
15191TIP3    H167064   6.546   0.156  14.007 -1.1340 -1.2675 -1.3771
15191TIP3    H267065   6.568   0.027  14.084  1.4517  0.0570  0.1542
15192TIP3   OH267066   0.948   0.848   1.932  0.3727 -0.2143 -0.2520
15192TIP3    H167067   0.881   0.899   1.887  0.3156  0.4466  0.5611
15192TIP3    H267068   0.900   0.776   1.973  0.2153  0.0147 -0.0311
15193TIP3   OH267069   2.669   5.645   4.893  0.4761  0.2272  0.3721
15193TIP3    H167070   2.669   5.720   4.833  0.4163 -0.5378 -0.6027
15193TIP3    H267071   2.696   5.682   4.977  0.0203  1.4248  0.0112
15194TIP3   OH267072   0.327   3.724  14.039 -0.4595 -0.0574 -0.4668
15194TIP3    H167073   0.258   3.691  14.096  2.1108 -0.1912  2.7372
15194TIP3    H267074   0.332   3.818  14.060 -0.6900  0.2712 -1.8257
15195TIP3   OH267075   2.521   0.403  15.552  0.7665 -0.1591 -0.0849
15195TIP3    H167076   2.545   0.494  15.533  1.2970  0.3325  2.8056
15195TIP3    H267077   2.438   0.390  15.505  1.3234  1.4156 -1.5449
15196TIP3   OH267078   5.537   6.453  16.478  0.3608 -0.0512 -0.8609
15196TIP3    H167079   5.618   6.406  16.457 -0.1968 -0.9803 -0.9497
15196TIP3    H267080   5.556   6.498  16.560  0.3574 -1.7678  0.1031
15197TIP3   OH267081   2.568   6.772   2.003  0.1597  0.1291  0.0344
15197TIP3    H167082   2.592   6.687   1.965  0.0645 -0.2687  0.8372
15197TIP3    H267083   2.630   6.834   1.965 -0.4682 -0.1064 -1.4063
15198TIP3   OH267084   5.054   5.513  15.932 -0.2746  0.4037 -0.0689
15198TIP3    H167085   4.991   5.442  15.917  0.8969 -0.5090 -0.7194
15198TIP3    H267086   5.057   5.561  15.849  1.4609 -0.8391 -0.7534
15199TIP3   OH267087   3.360   6.212   3.294 -0.0272 -0.0798 -0.3906
15199TIP3    H167088   3.446   6.211   3.252 -0.4478  0.6245 -1.2920
15199TIP3    H267089   3.343   6.121   3.315  1.9011  0.0241  1.8236
15200TIP3   OH267090   4.229   0.300  12.565  0.8705 -0.5034 -0.1672
15200TIP3    H167091   4.167   0.306  12.492  0.3005  0.2400  0.3760
15200TIP3    H267092   4.281   0.380  12.560  1.8657 -1.1732 -0.6845
15201TIP3   OH267093   2.567   5.900   6.118 -0.2373 -0.3235 -0.3843
15201TIP3    H167094   2.615   5.817   6.111  0.2518 -0.2780  2.0156
15201TIP3    H267095   2.631   5.961   6.155 -0.9912  0.7775 -0.8850
15202TIP3   OH267096   0.796   5.968  14.913  0.2606 -0.2291 -0.4689
15202TIP3    H167097   0.719   5.959  14.969 -1.5240  0.4905 -2.7166
15202TIP3    H267098   0.839   5.883  14.918  0.5067 -0.0016  2.4311
15203TIP3   OH267099   0.348   4.592  16.462  0.2756  0.3976  0.1179
15203TIP3    H167100   0.254   4.591  16.446  0.2979 -0.9306  0.0347
15203TIP3    H267101   0.373   4.684  16.457 -0.5614  0.4927 -2.5432
15204TIP3   OH267102   2.406   5.577  11.696  0.3463 -0.1317  0.0020
15204TIP3    H167103   2.360   5.507  11.651  0.8351 -0.9155  0.6941
15204TIP3    H267104   2.373   5.658  11.656 -1.6835 -0.6586  0.5293
15205TIP3   OH267105   1.926   4.226   4.514 -0.1554  0.1564  0.1408
15205TIP3    H167106   1.961   4.213   4.425  1.2700  1.5059  0.4615
15205TIP3    H267107   1.994   4.191   4.572 -1.0166 -0.5890  0.6949
15206TIP3   OH267108   1.163   4.563  15.559 -0.0269 -0.4680 -0.4808
15206TIP3    H167109   1.249   4.593  15.588  0.1056 -0.9699 -0.3633
15206TIP3    H267110   1.167   4.568  15.464 -0.0661  0.0570 -0.4588
15207TIP3   OH267111   4.391   4.713   2.545  0.4872  0.2456  0.6048
15207TIP3    H167112   4.326   4.723   2.614  0.3923  0.9132  0.4228
15207TIP3    H267113   4.463   4.771   2.571  0.2830  0.8050 -0.0457
15208TIP3   OH267114   5.234   6.396   4.319 -0.4156  0.7454 -0.1148
15208TIP3    H167115   5.288   6.317   4.313 -1.2005  0.3237 -1.7196
15208TIP3    H267116   5.233   6.432   4.231 -0.0465  2.5878  0.6014
15209TIP3   OH267117   6.073   5.552  16.106  0.3629  0.7113  0.2225
15209TIP3    H167118   6.133   5.595  16.044 -0.1625  1.8791  0.5147
15209TIP3    H267119   6.131   5.518  16.175  0.7649  1.1336  0.0999
15210TIP3   OH267120   2.824   6.020  16.378  0.2783 -0.3909 -0.6918
15210TIP3    H167121   2.787   6.021  16.289  0.0377 -0.0897 -0.5904
15210TIP3    H267122   2.891   6.088  16.377 -0.5813  0.4734 -0.2821
15211TIP3   OH267123   4.458   5.106  13.204  0.0577  0.5553  0.0101
15211TIP3    H167124   4.498   5.087  13.119  1.3385  0.1701  0.6808
15211TIP3    H267125   4.500   5.044  13.264 -0.6977  0.9481  0.9527
15212TIP3   OH267126   1.342   1.348  13.631 -0.9472  0.3178  0.6048
15212TIP3    H167127   1.348   1.438  13.663 -1.4291  0.4793  0.2574
15212TIP3    H267128   1.280   1.306  13.691  1.7282 -0.6970  2.7644
15213TIP3   OH267129   4.768   6.741   2.239  0.0781 -0.0711  0.1646
15213TIP3    H167130   4.733   6.653   2.224  0.4089 -0.2697  0.5130
15213TIP3    H267131   4.807   6.736   2.326  1.9981 -0.2069 -0.6749
15214TIP3   OH267132   1.093   2.694  17.141  0.2564  0.1543 -0.6976
15214TIP3    H167133   1.005   2.699  17.106  0.2294 -1.3614 -0.8577
15214TIP3    H267134   1.148   2.735  17.074 -0.4102  1.8454 -0.2342
15215TIP3   OH267135   4.909   3.331   2.807  0.5161 -0.7176  0.4420
15215TIP3    H167136   4.989   3.347   2.858  2.3109  0.4252 -2.5705
15215TIP3    H267137   4.923   3.244   2.769  0.3883 -0.4813 -0.1503
15216TIP3   OH267138   4.054   5.540  11.418  0.9599  0.0471  0.2660
15216TIP3    H167139   4.120   5.494  11.469  0.6147 -1.1387 -0.3393
15216TIP3    H267140   3.996   5.471  11.386  0.1672  0.9519 -0.2639
15217TIP3   OH267141   1.634   0.916   0.235  0.3309  0.2998 -0.3925
15217TIP3    H167142   1.566   0.852   0.258  0.4627  0.0740 -0.6229
15217TIP3    H267143   1.714   0.864   0.229  0.3518  0.3982 -1.0666
15218TIP3   OH267144   2.660   3.461  14.590 -0.4320  0.0010 -0.1654
15218TIP3    H167145   2.733   3.445  14.649 -0.2610  1.2173 -0.0333
15218TIP3    H267146   2.621   3.543  14.622 -0.9029  0.1773 -1.1752
15219TIP3   OH267147   0.197   5.475  10.998 -0.2685 -0.2756  0.1537
15219TIP3    H167148   0.103   5.457  11.001 -0.1771 -0.9521 -0.9126
15219TIP3    H267149   0.237   5.388  11.000  0.3797  0.0340  1.7478
15220TIP3   OH267150   2.824   4.302  11.119  0.1802 -0.0036 -0.5001
15220TIP3    H167151   2.912   4.275  11.144 -0.0553 -1.0199 -0.7363
15220TIP3    H267152   2.820   4.395  11.139  0.7754 -0.2977  0.9899
15221TIP3   OH267153   0.741   6.635   1.055  0.2396  0.6481  0.5215
15221TIP3    H167154   0.718   6.702   0.990 -0.9646  0.7104  0.9961
15221TIP3    H267155   0.809   6.675   1.108  2.7210 -0.1248 -1.9212
15222TIP3   OH267156   3.767   1.570  11.654 -0.5088  0.2305  0.7778
15222TIP3    H167157   3.690   1.529  11.616  0.0183  1.5174 -1.7610
15222TIP3    H267158   3.734   1.615  11.732 -2.4273  1.1252 -0.5068
15223TIP3   OH267159   5.334   2.861  16.124  0.0700 -0.2020  0.0960
15223TIP3    H167160   5.400   2.814  16.072  0.2193  1.4188 -1.2196
15223TIP3    H267161   5.254   2.856  16.072  1.0012  4.2815 -2.0433
15224TIP3   OH267162   5.587   1.089  16.770  0.2864 -0.4874 -0.0936
15224TIP3    H167163   5.510   1.125  16.814  0.0070 -1.1379 -0.0421
15224TIP3    H267164   5.650   1.075  16.840  0.0913 -0.8761  0.0059
15225TIP3   OH267165   1.336   0.026  16.460  0.5270  0.4105 -0.1412
15225TIP3    H167166   1.413  -0.001  16.511 -0.0739 -0.4110  0.3398
15225TIP3    H267167   1.263   0.016  16.520 -0.0460  0.5713 -0.8096
15226TIP3   OH267168   3.355   4.191   1.509  0.4436  0.1387 -0.0075
15226TIP3    H167169   3.300   4.146   1.574  0.1577  0.4632 -0.0266
15226TIP3    H267170   3.382   4.272   1.552  2.1965 -0.7499  0.5904
15227TIP3   OH267171   3.638   4.108   3.440 -0.2176 -0.1818 -0.3616
15227TIP3    H167172   3.624   4.087   3.533  0.9713 -1.2574 -0.4052
15227TIP3    H267173   3.721   4.064   3.419  1.2630  2.8349 -1.0525
15228TIP3   OH267174   2.442   2.155  13.091 -0.2358 -0.2787 -0.4943
15228TIP3    H167175   2.383   2.166  13.016  0.8038  1.5662 -1.0574
15228TIP3    H267176   2.513   2.218  13.076  0.4376 -0.4999  1.5971
15229TIP3   OH267177   2.277   3.070   5.407 -0.0698  0.3291 -0.2131
15229TIP3    H167178   2.227   3.123   5.469  0.2081  0.3156  0.0251
15229TIP3    H267179   2.323   3.134   5.353  1.8692  0.3300  1.3889
15230TIP3   OH267180   4.004   5.170  15.862 -0.1659  0.2095 -0.2489
15230TIP3    H167181   3.936   5.218  15.911 -0.6929  1.6244 -2.3119
15230TIP3    H267182   4.070   5.236  15.841  1.4671 -0.9949  1.0198
15231TIP3   OH267183   6.041   1.353   5.490  0.0667  0.9106  0.1687
15231TIP3    H167184   6.077   1.436   5.521 -0.8005  0.7235  1.7092
15231TIP3    H267185   5.949   1.372   5.472 -0.0052  0.4104  0.0128
15232TIP3   OH267186   2.419   0.017  14.878 -0.8522 -0.5137 -0.1473
15232TIP3    H167187   2.468  -0.014  14.955  2.5040 -1.1986 -2.4131
15232TIP3    H267188   2.357  -0.053  14.859  1.1721 -2.2688 -0.4795
15233TIP3   OH267189   3.185   0.863   1.989 -0.5405  0.3812 -0.2645
15233TIP3    H167190   3.151   0.949   2.014 -1.4107 -0.8006  2.7472
15233TIP3    H267191   3.151   0.803   2.055  1.7811 -1.9651 -1.1187
15234TIP3   OH267192   6.118   2.885  16.644 -0.4043  0.0279 -0.4486
15234TIP3    H167193   6.120   2.971  16.685 -0.5163 -0.0845 -0.2048
15234TIP3    H267194   6.030   2.878  16.606  0.2754  0.8234 -2.2154
15235TIP3   OH267195   5.248   1.107   4.113  0.0766 -0.7012 -0.5775
15235TIP3    H167196   5.248   1.025   4.065 -1.1764 -0.8276 -0.3719
15235TIP3    H267197   5.173   1.156   4.078  0.4431  0.0937 -0.2735
15236TIP3   OH267198   4.220   4.754   2.257 -0.3616 -0.0110 -0.4922
15236TIP3    H167199   4.301   4.795   2.224  0.9561 -1.0456  1.3497
15236TIP3    H267200   4.251   4.679   2.309 -2.4556  0.2843  1.2298
15237TIP3   OH267201   3.106   0.596   2.622 -0.0107  0.1972  0.3220
15237TIP3    H167202   3.016   0.566   2.606 -0.5639  1.2577  1.3574
15237TIP3    H267203   3.154   0.517   2.644 -0.5869 -0.4473 -0.6933
15238TIP3   OH267204   3.665   3.424  11.844 -0.0220 -0.0553  0.1650
15238TIP3    H167205   3.596   3.480  11.878 -0.4194  0.1361 -0.9392
15238TIP3    H267206   3.691   3.466  11.762 -0.0425 -1.2698 -0.4611
15239TIP3   OH267207   1.683   0.203   0.238 -0.6002  0.0127  0.1157
15239TIP3    H167208   1.691   0.173   0.328  0.3281 -1.9059 -0.5792
15239TIP3    H267209   1.770   0.238   0.217 -0.6682 -0.0096 -0.1992
15240TIP3   OH267210   6.680   2.158  16.956  0.0457  0.0837  0.4222
15240TIP3    H167211   6.648   2.188  16.872  3.9264  0.6615 -0.9607
15240TIP3    H267212   6.694   2.064  16.945  1.3092  0.2961  0.1331
15241TIP3   OH267213   3.229   2.509  15.594  0.1149 -0.5478  0.6709
15241TIP3    H167214   3.255   2.416  15.595 -0.6296 -0.8154 -1.4563
15241TIP3    H267215   3.195   2.522  15.505  2.3772  2.3542  0.1638
15242TIP3   OH267216   6.150   3.481  14.291  0.6037 -0.1687  0.1894
15242TIP3    H167217   6.089   3.424  14.337  0.4280  0.4413  0.7115
15242TIP3    H267218   6.205   3.421  14.240 -1.4953 -0.6502 -1.5971
15243TIP3   OH267219   2.525   5.786   1.176  0.1606 -0.0450 -0.3492
15243TIP3    H167220   2.485   5.868   1.205  0.5827  0.0200  0.0697
15243TIP3    H267221   2.515   5.787   1.081 -1.9850 -0.6579 -0.1537
15244TIP3   OH267222   1.884   0.867   3.359  0.3203  0.1989  0.5363
15244TIP3    H167223   1.829   0.791   3.341  0.9257  0.2060 -1.4443
15244TIP3    H267224   1.964   0.852   3.308  0.1204  2.5475 -0.5389
15245TIP3   OH267225   0.445   0.442  13.122  0.0055  0.2381 -0.6785
15245TIP3    H167226   0.420   0.483  13.040 -1.5714  1.0743  0.1935
15245TIP3    H267227   0.364   0.407  13.158  0.0786  2.5300  1.9591
15246TIP3   OH267228   1.751   1.400  13.859  0.2459 -0.0083 -0.2335
15246TIP3    H167229   1.734   1.486  13.820  1.6366  0.3556 -0.0812
15246TIP3    H267230   1.783   1.347  13.786  0.6697  0.0056 -0.0611
15247TIP3   OH267231   0.910   1.831  12.058 -0.0469  0.2690 -0.1826
15247TIP3    H167232   0.833   1.870  12.018  0.7732  3.0341  0.7764
15247TIP3    H267233   0.976   1.829  11.989  0.1159  1.2745 -0.0645
15248TIP3   OH267234   6.547   1.203  16.511  0.1847  0.2860 -0.4911
15248TIP3    H167235   6.468   1.202  16.564  0.1858 -0.2640 -0.4893
15248TIP3    H267236   6.531   1.270  16.444 -0.1466  0.4061 -0.2920
15249TIP3   OH267237   6.626   2.012   0.212  0.0360  0.0944  0.4868
15249TIP3    H167238   6.624   2.075   0.140  0.6734 -0.7007 -0.2356
15249TIP3    H267239   6.649   2.063   0.289 -0.0864  0.8529  0.0214
15250TIP3   OH267240   6.482   0.563  15.203 -0.4367 -0.2903  0.0265
15250TIP3    H167241   6.458   0.640  15.152 -2.0387 -0.2151  0.8648
15250TIP3    H267242   6.530   0.507  15.142  0.3255  1.1437 -0.7238
15251TIP3   OH267243   4.146   3.213  17.186 -0.8217  0.4643 -0.0045
15251TIP3    H167244   4.054   3.217  17.213 -1.5161  1.2859 -2.3584
15251TIP3    H267245   4.151   3.135  17.130 -0.1387  0.5536 -0.0719
15252TIP3   OH267246   1.455   3.412  13.913 -0.1098 -0.1635  0.2133
15252TIP3    H167247   1.546   3.441  13.920  0.1302  0.0615 -3.3204
15252TIP3    H267248   1.451   3.335  13.971  2.6228 -0.8801 -0.4754
15253TIP3   OH267249   0.870   4.417  16.781 -0.3142  0.2295  0.4619
15253TIP3    H167250   0.897   4.488  16.839  0.1041 -0.8843  1.6666
15253TIP3    H267251   0.850   4.344  16.840 -1.4051 -0.4421 -0.7027
15254TIP3   OH267252   5.370   4.417   1.877 -0.2855 -0.2721 -0.1883
15254TIP3    H167253   5.384   4.459   1.793  3.3759 -0.8814  0.0202
15254TIP3    H267254   5.383   4.323   1.860  0.6698 -0.3848  1.0543
15255TIP3   OH267255   5.042   2.258   4.926  0.0980  0.0232  0.2974
15255TIP3    H167256   4.951   2.231   4.939  0.0853  0.7267  1.7643
15255TIP3    H267257   5.069   2.294   5.010  1.5921  0.2633 -0.2628
15256TIP3   OH267258   1.117   0.764  16.264 -0.2650  0.3620 -0.2145
15256TIP3    H167259   1.023   0.764  16.246 -0.3485  0.9328  0.1893
15256TIP3    H267260   1.153   0.700  16.203 -1.0158 -0.4381  0.1755
15257TIP3   OH267261   2.986   5.906   2.705  0.1315  0.6102  0.2619
15257TIP3    H167262   3.021   5.992   2.681 -3.0183  1.7723 -0.3492
15257TIP3    H267263   2.911   5.925   2.761 -0.8471 -1.7287 -0.1897
15258TIP3   OH267264   2.420   5.635  14.954  0.4434 -0.7959 -0.3902
15258TIP3    H167265   2.484   5.624  14.883  0.9278  0.9314 -0.2365
15258TIP3    H267266   2.353   5.692  14.917  1.4024  1.2509  0.9806
15259TIP3   OH267267   3.956   6.581  14.031  0.3747  0.3063  0.4605
15259TIP3    H167268   4.015   6.622  13.968  1.1619 -1.1348  0.2500
15259TIP3    H267269   3.878   6.559  13.980  0.9865 -0.8009 -0.0091
15260TIP3   OH267270   4.396   6.341   2.186 -0.4374  0.0710  0.7196
15260TIP3    H167271   4.358   6.302   2.108 -0.4892 -0.7784  1.1662
15260TIP3    H267272   4.457   6.408   2.153  0.8881 -1.5158 -0.0956
15261TIP3   OH267273   0.160   5.681  11.901  0.3341  0.1090  0.3243
15261TIP3    H167274   0.200   5.712  11.982  0.5331 -0.2528  0.3677
15261TIP3    H267275   0.067   5.699  11.911  0.2826 -0.4375  0.8678
15262TIP3   OH267276   2.716   0.439   0.326 -0.2604  0.4956  0.2666
15262TIP3    H167277   2.691   0.421   0.417 -0.8257 -0.9451 -0.1545
15262TIP3    H267278   2.632   0.442   0.279  0.0762  0.4413 -0.3385
15263TIP3   OH267279   5.943   6.285   2.876 -0.1142  0.9171  0.6115
15263TIP3    H167280   5.967   6.338   2.800 -2.0597  0.9971  0.0369
15263TIP3    H267281   5.965   6.195   2.851 -0.3263  0.9996  0.1312
15264TIP3   OH267282   3.805   6.317  13.733  0.2657 -0.0834  0.1139
15264TIP3    H167283   3.753   6.295  13.810 -0.2452 -1.0749 -0.5040
15264TIP3    H267284   3.741   6.341  13.666  0.4071 -3.3507 -1.3142
15265TIP3   OH267285   0.426   3.516   3.529  0.2971 -0.1170 -0.3080
15265TIP3    H167286   0.352   3.506   3.470  0.9534 -0.6154 -1.0720
15265TIP3    H267287   0.447   3.427   3.557 -1.0658  0.2593  2.0421
15266TIP3   OH267288   2.783   5.761   0.073  0.0536 -0.0395 -0.0203
15266TIP3    H167289   2.831   5.685   0.105 -0.1597  0.0556  0.5277
15266TIP3    H267290   2.761   5.810   0.152  0.0758  0.5219 -0.3612
15267TIP3   OH267291   3.427   4.721  12.281  0.5338 -0.3942  0.0325
15267TIP3    H167292   3.424   4.785  12.353 -1.2582  1.3638 -1.5603
15267TIP3    H267293   3.399   4.639  12.321 -1.9194  0.8843  1.0597
15268TIP3   OH267294   4.361   5.156   5.704  0.6798  0.0884  0.1289
15268TIP3    H167295   4.278   5.153   5.656  0.5417 -1.4621  0.4449
15268TIP3    H267296   4.428   5.147   5.636  0.5076 -1.3362  0.1438
15269TIP3   OH267297   3.753   1.660   4.758 -0.1702 -0.4901  0.0826
15269TIP3    H167298   3.696   1.690   4.687 -1.2862 -1.2314  0.6498
15269TIP3    H267299   3.720   1.707   4.836 -1.2079 -2.3022  0.7614
15270TIP3   OH267300   4.221   5.694   6.308 -0.3893 -0.7772 -0.2120
15270TIP3    H167301   4.159   5.727   6.373 -0.0538  0.7742 -0.6662
15270TIP3    H267302   4.176   5.707   6.224  0.4282  0.0674 -0.5181
15271TIP3   OH267303   2.767   3.252  10.851  0.3397 -0.3479 -0.2872
15271TIP3    H167304   2.683   3.256  10.805 -0.5578  0.2903  1.3582
15271TIP3    H267305   2.831   3.235  10.782 -1.0673 -0.2966 -1.6463
15272TIP3   OH267306   1.445   5.507  14.794 -0.3065 -0.0699 -0.6172
15272TIP3    H167307   1.351   5.499  14.810 -0.3065  0.9577 -0.0648
15272TIP3    H267308   1.460   5.458  14.713 -1.3970  0.1843 -0.9799
15273TIP3   OH267309   5.573   0.067   5.312 -0.6608  0.2026  0.2504
15273TIP3    H167310   5.508  -0.003   5.307 -0.6502  0.0726  1.7935
15273TIP3    H267311   5.653   0.028   5.278 -0.8894 -0.2502  0.2322
15274TIP3   OH267312   6.092   4.641   1.418 -0.3290  0.2958 -0.2728
15274TIP3    H167313   6.119   4.730   1.395 -0.5139 -0.2462 -2.7676
15274TIP3    H267314   6.101   4.637   1.513  0.4619  2.7149 -0.2039
15275TIP3   OH267315   1.792   5.883  16.917  0.7723  0.9048 -0.3348
15275TIP3    H167316   1.799   5.844  16.830  3.4983  0.3060  0.1222
15275TIP3    H267317   1.830   5.818  16.976 -1.3055  1.1739  1.3851
15276TIP3   OH267318   0.665   1.451  15.153  0.6297  0.0283  0.1880
15276TIP3    H167319   0.639   1.498  15.074  0.0890 -0.7120 -0.0711
15276TIP3    H267320   0.658   1.517  15.223 -0.9010  0.1338 -0.0434
15277TIP3   OH267321   3.025   0.514   2.973  0.3010  0.7709 -0.0687
15277TIP3    H167322   3.014   0.426   2.938 -0.5099  0.3625  1.1933
15277TIP3    H267323   2.936   0.549   2.981  0.4674  0.8686  1.5395
15278TIP3   OH267324   6.164   5.306  15.977 -0.0175  0.1375  0.3294
15278TIP3    H167325   6.249   5.351  15.983  0.5123 -0.4682 -1.9798
15278TIP3    H267326   6.115   5.358  15.914 -0.6307 -0.6591  0.1514
15279TIP3   OH267327   3.978   0.624  15.865 -0.7835  0.1262 -0.3014
15279TIP3    H167328   3.909   0.661  15.920 -1.8567 -0.1775 -1.4253
15279TIP3    H267329   3.945   0.538  15.838 -0.4486  0.4096 -1.6974
15280TIP3   OH267330   6.429   3.176  15.941  0.2631 -0.0555 -0.0756
15280TIP3    H167331   6.483   3.098  15.931 -2.1413 -1.6163 -1.3089
15280TIP3    H267332   6.424   3.190  16.035  1.6639 -0.6808  0.1045
15281TIP3   OH267333   5.785   2.591   1.797  0.1994 -0.1583  0.5030
15281TIP3    H167334   5.709   2.601   1.855  0.3413  0.7216  0.5477
15281TIP3    H267335   5.859   2.575   1.855  0.1527 -0.3815  0.4992
15282TIP3   OH267336   2.743   2.510  13.613 -0.1536 -0.6276  0.1011
15282TIP3    H167337   2.714   2.419  13.613  0.0048 -0.7117 -2.1457
15282TIP3    H267338   2.783   2.522  13.527 -0.0588  1.5345  0.4210
15283TIP3   OH267339   1.361   3.637  16.127 -0.0705  0.4208 -0.3372
15283TIP3    H167340   1.298   3.701  16.158 -1.0577 -1.0860  0.8392
15283TIP3    H267341   1.418   3.686  16.068 -2.6184  1.7261 -1.8240
15284TIP3   OH267342   0.106   3.193   1.575  0.7278  0.0166 -0.2549
15284TIP3    H167343   0.091   3.099   1.563  1.1163 -0.4519  2.5085
15284TIP3    H267344   0.199   3.204   1.558  0.7024 -0.1213 -0.4870
15285TIP3   OH267345   4.121   3.021  11.270  0.2253 -0.4498 -0.3599
15285TIP3    H167346   4.116   3.116  11.265 -0.7120 -0.5450 -1.4415
15285TIP3    H267347   4.201   3.003  11.319  1.7978  0.8458 -2.3974
15286TIP3   OH267348   6.319   0.006   3.995 -0.1144 -0.4504 -0.3056
15286TIP3    H167349   6.332  -0.088   3.982  0.2478 -0.4072 -0.2599
15286TIP3    H267350   6.406   0.040   4.018 -0.6276 -0.4209  1.6433
15287TIP3   OH267351   6.779   6.348   1.450 -0.4103 -0.2088  0.3736
15287TIP3    H167352   6.718   6.416   1.423 -1.0812 -0.9169  0.0928
15287TIP3    H267353   6.821   6.383   1.528 -0.7170  0.5495  0.1993
15288TIP3   OH267354   0.027   3.126  15.262 -0.5328  0.0463 -0.4261
15288TIP3    H167355   0.094   3.112  15.329 -0.1641 -0.7387 -0.9514
15288TIP3    H267356  -0.019   3.205  15.290 -1.2535 -1.0178  1.4550
15289TIP3   OH267357   1.444   5.209   3.839 -0.0478  0.0357 -0.5467
15289TIP3    H167358   1.533   5.182   3.818 -0.3552 -0.5296 -1.1449
15289TIP3    H267359   1.390   5.167   3.772 -0.8637 -0.4129  0.3818
15290TIP3   OH267360   0.788   6.671  11.064  0.3960  0.4556  0.6425
15290TIP3    H167361   0.699   6.702  11.082 -0.0793 -0.0566 -0.8291
15290TIP3    H267362   0.816   6.721  10.988 -0.0027 -1.9713 -1.1512
15291TIP3   OH267363   0.699   1.801  13.651 -0.4029  0.1374  0.0642
15291TIP3    H167364   0.617   1.754  13.669  0.5387 -1.5118  0.1905
15291TIP3    H267365   0.738   1.752  13.579  0.6724  0.6616  0.2914
15292TIP3   OH267366   6.180   3.266   4.758  0.0586  0.0386 -0.0607
15292TIP3    H167367   6.247   3.210   4.799 -1.6657 -0.1492  2.6481
15292TIP3    H267368   6.213   3.355   4.770  0.6469 -0.1531 -0.2630
15293TIP3   OH267369   0.095   1.288  11.786 -0.1858  0.2466 -0.7621
15293TIP3    H167370   0.088   1.289  11.690 -0.8686  0.9808 -0.7031
15293TIP3    H267371   0.058   1.371  11.814 -0.9535 -0.4209  0.2122
15294TIP3   OH267372   2.520   3.100  13.420  0.1081  0.0881  0.0234
15294TIP3    H167373   2.601   3.052  13.439  0.4214  0.4987 -0.2807
15294TIP3    H267374   2.481   3.052  13.346  2.0286  2.1570 -2.4150
15295TIP3   OH267375   6.536   2.337  12.959 -0.1142 -0.2551 -0.1390
15295TIP3    H167376   6.516   2.431  12.952 -1.4093 -0.3016  2.3107
15295TIP3    H267377   6.506   2.300  12.876 -0.1144  1.4072 -0.9117
15296TIP3   OH267378   5.461   1.527  14.264 -1.0414  0.3183  0.1527
15296TIP3    H167379   5.458   1.595  14.197  2.0657  0.6312  0.2483
15296TIP3    H267380   5.437   1.447  14.218 -0.0279  0.7106 -1.0985
15297TIP3   OH267381   1.154   5.005   1.264 -0.0281 -0.0472 -0.0456
15297TIP3    H167382   1.192   4.990   1.178 -1.2570 -1.7076 -0.3258
15297TIP3    H267383   1.167   5.098   1.281 -0.4045  0.4342 -2.3217
15298TIP3   OH267384   6.402   4.606  13.779  0.5769  0.2005  0.5371
15298TIP3    H167385   6.442   4.664  13.714 -1.6632 -0.8450 -1.8633
15298TIP3    H267386   6.378   4.664  13.851  0.5041  1.8924 -0.8045
15299TIP3   OH267387   0.934   4.484   4.596 -0.7719  0.2975  0.1953
15299TIP3    H167388   0.952   4.391   4.610 -1.5488  0.2742  1.1151
15299TIP3    H267389   1.008   4.515   4.544  0.3371 -0.4518  1.3026
15300TIP3   OH267390   1.346   2.420  11.317  0.3548 -0.2252  0.6376
15300TIP3    H167391   1.386   2.417  11.231 -1.9655  0.3369 -0.5094
15300TIP3    H267392   1.257   2.386  11.304 -0.3865  0.8489  2.5841
15301TIP3   OH267393   3.623   3.360   3.720 -0.0548  0.1121 -0.2759
15301TIP3    H167394   3.623   3.406   3.636  2.0210 -0.4837 -0.6216
15301TIP3    H267395   3.533   3.328   3.729 -0.3462  0.3004 -2.2165
15302TIP3   OH267396   5.515   4.298   5.667 -0.6529 -0.2273 -0.5934
15302TIP3    H167397   5.596   4.255   5.698  1.4465  3.3344 -0.9012
15302TIP3    H267398   5.479   4.340   5.745 -0.5380  0.7245 -1.0462
15303TIP3   OH267399   1.426   5.488   3.887 -0.0938 -0.2876  0.4674
15303TIP3    H167400   1.386   5.503   3.801  2.0978  1.6834 -0.2504
15303TIP3    H267401   1.459   5.398   3.883 -1.4777 -0.7888 -0.1125
15304TIP3   OH267402   5.676   0.166   0.500 -0.0980 -0.2723  0.2814
15304TIP3    H167403   5.691   0.247   0.549  0.7275 -0.6596  0.6867
15304TIP3    H267404   5.680   0.192   0.408 -0.3408  0.2384  0.4142
15305TIP3   OH267405   6.235   1.378  17.032 -0.4792  0.2152 -0.6044
15305TIP3    H167406   6.247   1.466  17.066 -0.5958  0.3299 -0.8624
15305TIP3    H267407   6.280   1.322  17.095  0.0027  0.5014 -0.6954
15306TIP3   OH267408   1.342   1.310   2.622 -0.2817 -0.4467  0.4114
15306TIP3    H167409   1.251   1.283   2.633 -0.5028 -0.1282 -0.5767
15306TIP3    H267410   1.350   1.329   2.528  0.7004 -0.1031  0.5601
15307TIP3   OH267411   6.760   1.840  15.947 -0.3908 -0.2874 -0.1235
15307TIP3    H167412   6.821   1.865  15.878 -1.8891  1.3949 -0.9013
15307TIP3    H267413   6.675   1.832  15.903 -1.6848  2.3183  1.7336
15308TIP3   OH267414   6.804   1.874  11.858 -0.1352 -0.3884  0.0643
15308TIP3    H167415   6.798   1.794  11.806  2.3651 -1.2470  0.9976
15308TIP3    H267416   6.836   1.941  11.797 -1.2984 -0.3255 -0.4859
15309TIP3   OH267417   5.091   3.912   6.427  0.4638  0.4835 -0.2010
15309TIP3    H167418   5.081   3.946   6.516 -0.1111  0.0451 -0.0958
15309TIP3    H267419   5.124   3.986   6.376 -1.1282  1.3149 -0.0613
15310TIP3   OH267420   1.864   5.174  13.840 -0.3212  0.3816 -0.3100
15310TIP3    H167421   1.834   5.261  13.865  0.7169  0.6587  0.0102
15310TIP3    H267422   1.825   5.158  13.755 -1.8710  0.4689  0.3696
15311TIP3   OH267423   5.909   0.671   3.000  0.1294 -0.5443 -0.1677
15311TIP3    H167424   5.826   0.682   3.047 -0.0640 -1.9370 -0.1662
15311TIP3    H267425   5.886   0.616   2.924  0.7996  0.1468 -0.8821
15312TIP3   OH267426   2.833   5.982  16.703  0.8306 -0.1435 -0.3404
15312TIP3    H167427   2.905   6.009  16.645  1.0461 -0.5837 -0.2807
15312TIP3    H267428   2.856   6.019  16.788  1.5126 -1.1365 -0.0826
15313TIP3   OH267429   5.215   0.138  16.887  0.2728 -0.0304  0.1631
15313TIP3    H167430   5.130   0.109  16.920  0.4060 -0.4387  0.1564
15313TIP3    H267431   5.270   0.059  16.891  0.7719  0.3371  0.5843
15314TIP3   OH267432   0.373   3.416   2.695  0.5299 -0.3433  0.6595
15314TIP3    H167433   0.309   3.345   2.701  0.7108 -0.5255  0.4410
15314TIP3    H267434   0.329   3.491   2.734  0.0559 -0.3801  0.1884
15315TIP3   OH267435   5.240   1.859  16.517  0.1502 -0.4212  0.3124
15315TIP3    H167436   5.201   1.927  16.461  1.1334  1.1375  1.4813
15315TIP3    H267437   5.321   1.836  16.472  0.8049  0.6348  0.9288
15316TIP3   OH267438   1.222   0.480   6.553  0.2984  0.2049  0.1579
15316TIP3    H167439   1.148   0.510   6.499  1.6929  0.5723 -1.5813
15316TIP3    H267440   1.209   0.385   6.561 -0.3500  0.2638 -0.1603
15317TIP3   OH267441   2.679   6.591   2.861 -0.1478 -0.9063 -0.1547
15317TIP3    H167442   2.639   6.593   2.774  2.0829  0.7841 -1.1650
15317TIP3    H267443   2.716   6.678   2.873  1.4705 -1.7994  1.5748
15318TIP3   OH267444   0.467   1.382   7.038  0.0997  0.1599  0.0717
15318TIP3    H167445   0.542   1.373   6.979 -0.4843  2.6019 -1.1091
15318TIP3    H267446   0.436   1.292   7.051  1.7904 -0.6537 -1.3086
15319TIP3   OH267447   2.222   3.592   3.975 -0.2393  0.1685  0.5198
15319TIP3    H167448   2.278   3.515   3.989  2.1180  1.8544  0.7630
15319TIP3    H267449   2.190   3.582   3.885  1.5638 -0.1535 -0.1085
15320TIP3   OH267450   4.226   6.715  16.163 -0.2872  0.6447 -0.0989
15320TIP3    H167451   4.142   6.670  16.155 -0.3209  0.9825 -1.8523
15320TIP3    H267452   4.255   6.728  16.073  1.5714  0.6923  0.4813
15321TIP3   OH267453   6.510   4.752  10.945  0.4266 -0.7566 -0.1777
15321TIP3    H167454   6.520   4.687  10.876 -0.6865 -0.2799 -0.8030
15321TIP3    H267455   6.416   4.769  10.948  0.7195  0.8816 -0.0678
15322TIP3   OH267456   3.264   2.590  12.418 -0.4167 -0.0615  0.2715
15322TIP3    H167457   3.282   2.501  12.449  1.1392  0.7546  1.8310
15322TIP3    H267458   3.348   2.635  12.429 -0.9755  1.3696 -1.3002
15323TIP3   OH267459   1.260   0.516  15.562 -0.2320  0.0343 -0.0675
15323TIP3    H167460   1.206   0.449  15.521  1.7516  0.0608 -2.8097
15323TIP3    H267461   1.260   0.589  15.501 -0.0416  1.4555  1.5757
15324TIP3   OH267462   6.007   4.587   5.512 -0.4339 -0.3918  0.2017
15324TIP3    H167463   6.073   4.565   5.446 -0.7238 -1.3174  0.2016
15324TIP3    H267464   6.034   4.672   5.547 -1.4900  1.1717 -2.6409
15325TIP3   OH267465   2.301   0.196   5.762 -0.1353 -0.5480 -0.6192
15325TIP3    H167466   2.218   0.189   5.808  0.4479  2.6849  1.0219
15325TIP3    H267467   2.280   0.234   5.677  0.0340  4.1818  1.3267
15326TIP3   OH267468   5.135   0.583  13.913  0.6688 -0.6522  0.5475
15326TIP3    H167469   5.045   0.612  13.902  1.2423  0.1393 -2.5892
15326TIP3    H267470   5.174   0.647  13.973 -0.4149 -0.0811  0.6603
15327TIP3   OH267471   6.609   3.282  17.052  0.2756  0.8006  0.1890
15327TIP3    H167472   6.636   3.267  17.142  0.2057  0.2272  0.1200
15327TIP3    H267473   6.687   3.319  17.009  0.7037 -0.0632  0.1935
15328TIP3   OH267474   3.495   3.852  14.125  0.4301 -0.3590  0.2824
15328TIP3    H167475   3.548   3.882  14.050 -1.2416  1.3491 -0.2594
15328TIP3    H267476   3.535   3.894  14.201  0.3912  0.2244 -0.0157
15329TIP3   OH267477   5.362   5.159  11.776 -1.0585 -0.3997  0.0740
15329TIP3    H167478   5.364   5.254  11.773  2.1956 -0.3591  1.2042
15329TIP3    H267479   5.364   5.132  11.685 -0.8439  0.6143 -0.2251
15330TIP3   OH267480   0.299   1.928   4.797 -0.5663  0.1325 -0.0998
15330TIP3    H167481   0.256   1.988   4.736 -0.7248  0.0519 -0.0675
15330TIP3    H267482   0.300   1.844   4.751  1.6831  0.6530 -1.0840
15331TIP3   OH267483   0.252   3.630   2.807  0.2443 -0.0491 -0.4125
15331TIP3    H167484   0.284   3.682   2.880 -1.6507 -0.5754  0.8303
15331TIP3    H267485   0.157   3.639   2.811 -0.0815 -3.0448 -0.5941
15332TIP3   OH267486   5.650   5.638   6.258 -0.6120 -0.4100 -0.6603
15332TIP3    H167487   5.636   5.625   6.351 -0.5156  1.8183 -0.3021
15332TIP3    H267488   5.564   5.661   6.223 -0.1494  1.4735 -0.6049
15333TIP3   OH267489   6.127   0.161   6.421 -0.1846  0.0296 -0.2218
15333TIP3    H167490   6.064   0.182   6.490  1.1233 -0.0150  1.0072
15333TIP3    H267491   6.096   0.078   6.384  0.6157 -1.4142  2.2073
15334TIP3   OH267492   2.502   4.898   0.666 -0.5698 -0.1740 -0.0590
15334TIP3    H167493   2.533   4.830   0.726 -0.1348 -0.7512 -0.9357
15334TIP3    H267494   2.465   4.965   0.724  1.0422 -0.1117  0.9221
15335TIP3   OH267495   5.409   3.440   5.385  0.0431 -0.4332 -0.3981
15335TIP3    H167496   5.359   3.486   5.452  2.0680 -3.2076  3.1985
15335TIP3    H267497   5.477   3.503   5.359  1.0851 -0.3010  2.4208
15336TIP3   OH267498   0.799   0.364   5.192 -0.1689 -0.0075 -0.7416
15336TIP3    H167499   0.711   0.342   5.221 -0.8313  2.2517 -0.9663
15336TIP3    H267500   0.820   0.296   5.128 -1.1574 -1.3876  0.3431
15337TIP3   OH267501   3.734   3.723  14.407 -0.1694  0.0964  0.2817
15337TIP3    H167502   3.741   3.816  14.386  1.2688 -0.0073  0.2655
15337TIP3    H267503   3.784   3.679  14.338  0.5430 -0.5764  1.2209
15338TIP3   OH267504   1.448   5.064  14.532 -0.1666 -0.0436  0.0718
15338TIP3    H167505   1.387   4.992  14.546 -0.3044  0.1593  0.5352
15338TIP3    H267506   1.533   5.022  14.523 -0.0825 -0.1961  1.4721
15339TIP3   OH267507   1.240   5.035   1.743  0.3459  0.2291  0.6572
15339TIP3    H167508   1.191   4.978   1.803 -0.3810  0.4331  0.2708
15339TIP3    H267509   1.259   4.980   1.667 -1.1586  0.7401 -0.1147
15340TIP3   OH267510   0.842   3.027   5.265 -0.3968 -0.8910  0.1010
15340TIP3    H167511   0.859   3.121   5.267  0.5341 -1.0059 -1.3704
15340TIP3    H267512   0.754   3.018   5.303  0.1746  0.3795  1.7645
15341TIP3   OH267513   1.160   3.296  16.398 -0.0206 -0.1448  0.7708
15341TIP3    H167514   1.232   3.330  16.451  0.8905 -0.9178  0.0502
15341TIP3    H267515   1.139   3.367  16.338  0.5980 -0.1538  0.5380
15342TIP3   OH267516   1.560   4.511  16.928 -0.5455 -0.8819  0.4829
15342TIP3    H167517   1.553   4.553  17.013  1.0205 -1.4245  0.8934
15342TIP3    H267518   1.560   4.418  16.947 -1.7233 -1.0373 -0.2418
15343TIP3   OH267519   5.327   2.999  11.735 -0.7731  0.3116  0.1085
15343TIP3    H167520   5.243   3.034  11.767 -0.3901  1.7553 -0.4407
15343TIP3    H267521   5.318   3.000  11.640 -0.5433 -0.5875  0.0770
15344TIP3   OH267522   5.580   0.278   3.828 -0.3065 -0.1742  0.4289
15344TIP3    H167523   5.596   0.370   3.806 -2.0530 -0.4003 -2.0453
15344TIP3    H267524   5.537   0.281   3.913 -0.0922  1.2901  0.4951
15345TIP3   OH267525   4.785   0.153  16.295  0.3537  0.5849 -0.5790
15345TIP3    H167526   4.800   0.119  16.207  1.9586  2.1530 -0.9248
15345TIP3    H267527   4.699   0.194  16.291 -0.3373 -0.8681 -0.9324
15346TIP3   OH267528   6.800   5.431   0.377 -0.4564  0.1614 -0.0532
15346TIP3    H167529   6.832   5.445   0.288 -0.4292 -0.9690 -0.2322
15346TIP3    H267530   6.841   5.349   0.405 -1.5609 -0.2249  0.4834
15347TIP3   OH267531   3.407   2.681   1.563  0.3930 -0.9134 -0.2420
15347TIP3    H167532   3.415   2.739   1.638 -0.7632 -0.3262 -0.5659
15347TIP3    H267533   3.467   2.609   1.582  0.0445 -0.8142  1.2688
15348TIP3   OH267534   3.772   1.131   0.456 -0.3454  0.0914  0.4997
15348TIP3    H167535   3.810   1.054   0.499  0.2207  0.1940  0.1942
15348TIP3    H267536   3.806   1.206   0.505 -1.5008  0.1221  1.2667
15349TIP3   OH267537   0.732   2.843   0.208 -0.0108  0.0787 -0.0607
15349TIP3    H167538   0.753   2.834   0.116  1.2320  0.4063  0.1859
15349TIP3    H267539   0.802   2.796   0.254 -0.8143 -0.3994  0.7026
15350TIP3   OH267540   0.611   4.327   2.679 -0.4232 -0.1528 -0.2087
15350TIP3    H167541   0.623   4.289   2.592  0.0684  0.2280 -0.3126
15350TIP3    H267542   0.587   4.253   2.734 -0.4064 -0.4573 -0.6012
15351TIP3   OH267543   4.313   2.932   0.461 -0.0576  0.2318 -0.4237
15351TIP3    H167544   4.258   3.005   0.489 -0.8417  0.1937 -1.8032
15351TIP3    H267545   4.368   2.969   0.392 -1.6460 -0.8381 -2.3394
15352TIP3   OH267546   4.115   0.994   0.271  0.2156 -0.1994 -0.4060
15352TIP3    H167547   4.024   1.017   0.256  0.6244  2.1630  0.4929
15352TIP3    H267548   4.125   0.994   0.366  1.3485  0.4834 -0.5044
15353TIP3   OH267549   2.219   2.387   2.761 -0.5882 -0.0299 -0.3537
15353TIP3    H167550   2.187   2.305   2.798 -0.0073  0.4638  1.2599
15353TIP3    H267551   2.309   2.368   2.734 -0.8167 -0.2188 -1.0128
15354TIP3   OH267552   2.604   1.054   2.606  0.1773  0.0305  0.3259
15354TIP3    H167553   2.685   1.012   2.574  0.4775  1.8175 -1.3495
15354TIP3    H267554   2.559   1.082   2.527 -0.6193  1.7625  1.3682
15355TIP3   OH267555   1.536   6.740   3.861  0.6812 -0.4966  0.0719
15355TIP3    H167556   1.620   6.756   3.903  1.1857 -1.9923 -0.3416
15355TIP3    H267557   1.556   6.740   3.767 -0.1441  1.1813 -0.1206
15356TIP3   OH267558   2.723   2.965   1.667  0.4889 -0.2482  0.0113
15356TIP3    H167559   2.695   3.011   1.747 -1.9450 -0.7207 -0.5221
15356TIP3    H267560   2.763   3.033   1.613  1.0778  0.3124  1.1299
15357TIP3   OH267561   0.740   6.112   2.492 -0.9121  0.2740 -0.0435
15357TIP3    H167562   0.750   6.167   2.569 -0.0533 -0.5286  0.4261
15357TIP3    H267563   0.778   6.163   2.421 -0.5601  0.4829  0.2969
15358TIP3   OH267564   2.952   5.300  14.580  0.1438  0.3846 -0.5099
15358TIP3    H167565   2.951   5.375  14.521  1.8226  0.7716 -0.0628
15358TIP3    H267566   2.932   5.225  14.524  0.3141  0.9209 -1.2952
15359TIP3   OH267567   3.635   5.874  12.312 -0.2624 -0.2999  0.3746
15359TIP3    H167568   3.644   5.845  12.403 -0.6632 -0.6227  0.3107
15359TIP3    H267569   3.641   5.793  12.260  2.4753  0.1114 -0.0670
15360TIP3   OH267570   5.122   4.250  12.543  0.6910 -0.1709  0.1460
15360TIP3    H167571   5.084   4.337  12.551 -1.4222 -1.1440  1.1619
15360TIP3    H267572   5.158   4.231  12.630  0.9356 -0.3866 -0.0023
15361TIP3   OH267573   4.756   6.444   3.671 -0.2967 -0.0545 -0.3334
15361TIP3    H167574   4.667   6.450   3.638  0.5560  0.7313 -2.5763
15361TIP3    H267575   4.768   6.352   3.692 -1.1665 -0.4333 -1.4398
15362TIP3   OH267576   3.545   2.340   2.348  0.5012  0.0624  0.2617
15362TIP3    H167577   3.605   2.265   2.349  0.6140  0.1607  1.1215
15362TIP3    H267578   3.569   2.390   2.426 -1.1480 -0.2375  0.9619
15363TIP3   OH267579   5.201   3.449  12.609  0.2304 -0.1528 -0.1444
15363TIP3    H167580   5.128   3.391  12.587 -0.4865  0.7798 -0.2526
15363TIP3    H267581   5.200   3.453  12.705 -1.0315  1.3264 -0.2068
15364TIP3   OH267582   3.018   0.148   6.184  0.0283 -0.5542  0.6730
15364TIP3    H167583   2.929   0.113   6.192 -0.2469 -0.1884 -0.6337
15364TIP3    H267584   3.033   0.153   6.089  1.1211  0.1911  0.8812
15365TIP3   OH267585   4.808   3.369  11.516 -0.3955  0.3498 -0.1508
15365TIP3    H167586   4.764   3.391  11.434  0.0039 -0.5658 -0.6125
15365TIP3    H267587   4.881   3.431  11.522 -0.5158  0.5147 -0.4051
15366TIP3   OH267588   5.663   3.383  17.062  0.2519 -0.2351  0.3121
15366TIP3    H167589   5.712   3.404  16.983  0.0761  0.0353  0.2747
15366TIP3    H267590   5.685   3.452  17.124 -1.1248  0.6468 -0.1567
15367TIP3   OH267591   5.990   1.600  13.548 -0.1304 -0.3365 -0.5283
15367TIP3    H167592   6.029   1.685  13.531 -2.1304  0.6357 -0.3128
15367TIP3    H267593   5.926   1.588  13.478 -1.0120 -0.9269  0.3566
15368TIP3   OH267594   0.397   6.565  16.505  0.4913 -0.6280  0.3965
15368TIP3    H167595   0.365   6.642  16.553 -1.8645 -0.5701 -1.1484
15368TIP3    H267596   0.367   6.580  16.415  3.0250 -1.7079 -0.6659
15369TIP3   OH267597   3.229   6.573  12.794 -0.1853  0.0657  0.0470
15369TIP3    H167598   3.312   6.536  12.762  3.3254  3.8117  4.1224
15369TIP3    H267599   3.209   6.642  12.731  0.8280  0.3480  0.0191
15370TIP3   OH267600   2.288   4.403   5.236 -0.1837 -0.0074  0.1163
15370TIP3    H167601   2.273   4.383   5.144 -1.2555  1.1323  0.0210
15370TIP3    H267602   2.372   4.450   5.237  0.0339 -0.3882 -0.2232
15371TIP3   OH267603   2.210   3.930  13.291  0.3571  0.2578  0.2298
15371TIP3    H167604   2.133   3.875  13.308  0.7751 -0.6799 -0.8400
15371TIP3    H267605   2.277   3.897  13.350 -0.5766  2.2841  2.5086
15372TIP3   OH267606   2.803   0.147  16.573  0.3374  0.1100  0.0908
15372TIP3    H167607   2.822   0.067  16.621  0.1448  0.8284  1.4053
15372TIP3    H267608   2.740   0.121  16.506 -0.0430 -0.7553  0.7789
15373TIP3   OH267609   6.659   6.023   5.749  0.0465  0.0916  0.1170
15373TIP3    H167610   6.640   5.946   5.803  0.8835  0.5573  1.0966
15373TIP3    H267611   6.582   6.078   5.759 -0.6748 -0.7280 -0.7996
15374TIP3   OH267612   4.973   0.472   4.648 -0.1089  0.5186 -0.0809
15374TIP3    H167613   5.026   0.418   4.706 -1.1769 -1.0119 -0.4914
15374TIP3    H267614   4.920   0.409   4.599 -2.5806  2.0002  0.6063
15375TIP3   OH267615   2.673   0.207   1.895  0.1692  0.1365 -0.0117
15375TIP3    H167616   2.742   0.167   1.948  0.2131  0.6895  0.3500
15375TIP3    H267617   2.719   0.256   1.827  0.1751  1.7942  1.1614
15376TIP3   OH267618   3.677   0.244  14.167  0.0815  0.4914  0.5662
15376TIP3    H167619   3.667   0.154  14.138  2.8028  0.6872 -1.1787
15376TIP3    H267620   3.744   0.240  14.235  3.9438  1.6768 -2.9339
15377TIP3   OH267621   5.727   2.554  11.484 -0.7284 -0.7846 -0.1646
15377TIP3    H167622   5.793   2.567  11.552  0.4475  1.4418 -1.6638
15377TIP3    H267623   5.646   2.536  11.532 -0.9639  5.2173  2.1374
15378TIP3   OH267624   4.376   6.704  15.408  0.8922  0.3089 -0.2238
15378TIP3    H167625   4.347   6.653  15.333 -0.1989  1.1615 -0.3973
15378TIP3    H267626   4.374   6.795  15.377  0.0580  0.7030  0.9468
15379TIP3   OH267627   3.095   3.408  16.834  1.2160 -0.1658  0.6863
15379TIP3    H167628   3.045   3.337  16.795  0.6646  1.0864 -0.9667
15379TIP3    H267629   3.060   3.416  16.923 -1.5112  0.6414 -0.4074
15380TIP3   OH267630   4.016   5.451   2.835 -0.0184 -0.4456 -0.8313
15380TIP3    H167631   3.987   5.542   2.828  1.7478  0.3495  1.8098
15380TIP3    H267632   3.939   5.400   2.808 -1.2450  1.7798 -1.7013
15381TIP3   OH267633   3.176   3.371   4.648  0.9099  0.2678 -0.0408
15381TIP3    H167634   3.166   3.281   4.679 -0.1537  1.1203  2.2346
15381TIP3    H267635   3.086   3.405   4.643  1.2274  0.8870 -1.9294
15382TIP3   OH267636   2.976   4.416   5.333 -0.3368  0.0744  0.0176
15382TIP3    H167637   3.038   4.346   5.315  1.0309  0.3692  3.1689
15382TIP3    H267638   2.908   4.375   5.387 -0.7391  0.6580 -0.0397
15383TIP3   OH267639   1.507   4.375   1.278  0.4985 -0.2064 -0.2580
15383TIP3    H167640   1.591   4.420   1.283  0.6217 -0.4619 -0.0356
15383TIP3    H267641   1.499   4.349   1.186  1.3201 -1.4247 -0.0016
15384TIP3   OH267642   2.005   5.467   2.985 -0.0248  0.2762 -0.7892
15384TIP3    H167643   1.967   5.525   3.051  1.4891  1.7508 -1.1824
15384TIP3    H267644   2.022   5.524   2.910  2.1036 -0.5173 -0.9433
15385TIP3   OH267645   3.823   3.107   1.458  0.2386  0.2568 -0.2504
15385TIP3    H167646   3.916   3.128   1.451  0.6218  0.2654  3.7620
15385TIP3    H267647   3.821   3.016   1.488 -0.9859  0.9158  1.7342
15386TIP3   OH267648   5.719   0.134   1.537 -0.1819  0.0706 -0.0820
15386TIP3    H167649   5.810   0.164   1.527  0.7666 -2.3599  0.9163
15386TIP3    H267650   5.713   0.057   1.480 -2.2450  1.4310 -1.7554
15387TIP3   OH267651   0.932   0.908   4.419 -0.5037  0.3948  0.0578
15387TIP3    H167652   1.000   0.919   4.485 -1.4054 -0.1090  1.0805
15387TIP3    H267653   0.865   0.855   4.462 -0.9036 -0.3012 -1.4058
15388TIP3   OH267654   5.826   6.575   0.292 -0.0375  0.0684  0.3433
15388TIP3    H167655   5.880   6.650   0.318 -0.3882  0.4875 -0.1385
15388TIP3    H267656   5.884   6.519   0.242  0.3259 -0.1604  1.0228
15389TIP3   OH267657   6.748   0.173   2.799 -0.5570  0.4201 -0.1504
15389TIP3    H167658   6.769   0.236   2.868  0.7008  0.1758 -0.3025
15389TIP3    H267659   6.756   0.223   2.718 -0.7489  0.3638 -0.2061
15390TIP3   OH267660   6.091   3.253   2.991  0.5641  0.3287  0.0169
15390TIP3    H167661   6.064   3.282   2.904  0.8210  0.1374 -0.1271
15390TIP3    H267662   6.054   3.165   3.000  0.8086  0.2222 -0.0249
15391TIP3   OH267663   0.797   3.410   0.104  0.0778  0.4193 -0.5010
15391TIP3    H167664   0.868   3.467   0.131  0.8852 -0.1107 -1.4592
15391TIP3    H267665   0.802   3.335   0.163 -0.7007  1.1125  0.4638
15392TIP3   OH267666   3.612   5.549  16.163 -0.3799  0.1874  0.2284
15392TIP3    H167667   3.524   5.551  16.201  0.2446  0.3841  1.7046
15392TIP3    H267668   3.666   5.506  16.229  0.7097  0.4156 -0.4944
15393TIP3   OH267669   5.305   2.847   3.359 -0.1599  0.2496  0.0955
15393TIP3    H167670   5.401   2.840   3.366  0.1389  3.1018 -0.5031
15393TIP3    H267671   5.287   2.940   3.371 -2.7201  0.0119 -1.6132
15394TIP3   OH267672   6.128   5.718   0.744  0.2846  0.1661  0.2866
15394TIP3    H167673   6.133   5.666   0.664 -0.1593 -0.6728  0.7950
15394TIP3    H267674   6.034   5.731   0.759  0.2802 -1.3759  1.7376
15395TIP3   OH267675   3.118   6.229  15.842 -0.3895 -0.1370  0.0326
15395TIP3    H167676   3.190   6.217  15.780 -0.0476 -0.8624  0.5611
15395TIP3    H267677   3.156   6.281  15.912 -0.0663 -1.4135  0.8254
15396TIP3   OH267678   2.698   3.035   4.256  0.7569 -0.5545 -0.4505
15396TIP3    H167679   2.761   3.019   4.326  1.8286 -2.1273 -1.7669
15396TIP3    H267680   2.712   3.126   4.231  0.8898 -0.2143  0.8432
15397TIP3   OH267681   4.510   4.046  15.005  0.0798 -0.1880  0.9053
15397TIP3    H167682   4.462   4.123  15.034  1.9019  0.6260  1.8377
15397TIP3    H267683   4.508   4.051  14.909 -0.8961  0.3265  0.9545
15398TIP3   OH267684   6.133   1.054  17.276  0.2627  0.9744  0.1113
15398TIP3    H167685   6.224   1.037  17.297  0.0835 -1.4107 -0.8413
15398TIP3    H267686   6.101   0.971  17.238 -1.8013  2.3089 -1.1972
15399TIP3   OH267687   5.652   4.902  16.101 -0.0276  0.4290  0.4019
15399TIP3    H167688   5.625   4.993  16.087  0.4445  0.8147  1.8536
15399TIP3    H267689   5.737   4.910  16.146 -1.1242 -0.6994  2.7145
15400TIP3   OH267690   6.279   2.874   5.177 -0.3524 -0.8433  0.0729
15400TIP3    H167691   6.281   2.847   5.269 -0.5488 -1.4945 -0.1123
15400TIP3    H267692   6.362   2.844   5.141 -0.5877 -1.2388 -0.1433
15401TIP3   OH267693   6.251   4.270  12.858  0.4488 -0.6101 -0.5165
15401TIP3    H167694   6.257   4.204  12.789 -0.8974  0.7178 -1.9465
15401TIP3    H267695   6.324   4.330  12.840  1.0379 -1.1274  0.1503
15402TIP3   OH267696   6.303   2.734   4.391  0.6262  0.1522  0.0917
15402TIP3    H167697   6.274   2.782   4.313  1.7025 -0.5287 -0.7382
15402TIP3    H267698   6.345   2.656   4.356  3.3841  1.0688  1.2605
15403TIP3   OH267699   1.583   5.940  14.675 -0.3507 -0.2938 -0.0286
15403TIP3    H167700   1.550   5.907  14.758  3.0778 -0.4401  1.3823
15403TIP3    H267701   1.567   5.870  14.612 -0.0808 -1.5067  1.2429
15404TIP3   OH267702   0.673   5.471   2.420 -0.2646 -0.1360 -0.1594
15404TIP3    H167703   0.655   5.439   2.332 -0.3355  1.3306 -0.6891
15404TIP3    H267704   0.610   5.541   2.434 -1.0774 -1.1864  1.5435
15405TIP3   OH267705   1.204   1.362   1.199 -0.1971  0.7346 -0.4309
15405TIP3    H167706   1.225   1.417   1.275  0.5535 -0.6504  0.3818
15405TIP3    H267707   1.148   1.417   1.145  1.1770  2.5829 -0.0197
15406TIP3   OH267708   4.218   6.056  11.262  0.1981  0.2415  0.3232
15406TIP3    H167709   4.246   6.051  11.353 -0.7555 -1.8626  0.5426
15406TIP3    H267710   4.123   6.056  11.266  0.1332  2.8518 -0.5905
15407TIP3   OH267711   0.229   0.410   6.033  0.7930 -0.0087  0.4908
15407TIP3    H167712   0.253   0.502   6.020  0.7065 -0.1190 -0.5010
15407TIP3    H267713   0.264   0.365   5.955  0.6478 -0.7777  0.8656
15408TIP3   OH267714   0.486   3.236  11.949 -0.4988  0.0565  0.1701
15408TIP3    H167715   0.463   3.143  11.942 -0.8734 -0.0249  2.0065
15408TIP3    H267716   0.403   3.279  11.973  0.1068  0.5322  1.4782
15409TIP3   OH267717   3.470   6.534   4.328  0.2690  0.1697  0.2985
15409TIP3    H167718   3.453   6.572   4.414 -0.6021 -0.7617  0.5439
15409TIP3    H267719   3.397   6.475   4.312  1.8316 -1.7957  0.1640
15410TIP3   OH267720   4.392   2.863  15.296 -0.0929 -0.3120 -0.4722
15410TIP3    H167721   4.437   2.864  15.380 -0.2646  0.5326 -0.3925
15410TIP3    H267722   4.379   2.955  15.274  0.8901 -0.4914 -1.9193
15411TIP3   OH267723   4.433   3.510   1.443 -0.5773  0.5633  0.2698
15411TIP3    H167724   4.510   3.558   1.412  1.0108 -1.0687  1.5026
15411TIP3    H267725   4.364   3.530   1.380  1.0769  1.4666 -1.2988
15412TIP3   OH267726   2.230   1.949   4.020  0.4550  0.4343 -0.2654
15412TIP3    H167727   2.268   1.868   4.055  2.0089  0.6787 -1.3172
15412TIP3    H267728   2.175   1.920   3.948  1.2579  0.3247 -0.8437
15413TIP3   OH267729   2.531   1.866  15.475 -0.0736 -0.1607  0.1297
15413TIP3    H167730   2.498   1.845  15.562 -1.1584 -1.6561 -0.6172
15413TIP3    H267731   2.466   1.829  15.415  1.3561 -0.3565 -1.3468
15414TIP3   OH267732   1.217   0.821   1.194  0.3032 -0.1199  0.1231
15414TIP3    H167733   1.191   0.910   1.218 -0.7069 -0.2096 -0.6216
15414TIP3    H267734   1.313   0.820   1.204  0.3247  1.0721  0.0456
15415TIP3   OH267735   3.672   1.299   2.536  0.1108  0.2459  0.0991
15415TIP3    H167736   3.601   1.342   2.583  0.5492  1.3433 -0.2182
15415TIP3    H267737   3.633   1.273   2.452  0.2079  1.2989 -0.2795
15416TIP3   OH267738   4.362   5.852   3.614  0.3345  0.0755 -0.3114
15416TIP3    H167739   4.339   5.938   3.648  0.6300 -0.3346  0.9489
15416TIP3    H267740   4.437   5.824   3.667  1.2074 -0.3254 -1.6996
15417TIP3   OH267741   1.108   5.633   1.377  0.3920 -0.0070  0.3642
15417TIP3    H167742   1.067   5.556   1.339  0.2468  0.0264  0.4512
15417TIP3    H267743   1.196   5.604   1.402  0.9631  0.3135 -1.1845
15418TIP3   OH267744   0.922   3.158  13.381  0.4039 -0.0950 -0.3092
15418TIP3    H167745   0.912   3.150  13.476 -2.9431 -0.8968 -0.6588
15418TIP3    H267746   0.981   3.086  13.357  3.1732  1.5236  1.3807
15419TIP3   OH267747   1.602   3.133   2.331 -0.0715 -0.2157 -0.2227
15419TIP3    H167748   1.582   3.187   2.408  0.5102 -0.8678  0.3957
15419TIP3    H267749   1.564   3.047   2.352 -0.7241 -0.1312 -1.0666
15420TIP3   OH267750   3.343   2.892  11.593  0.5141 -0.7000  0.5108
15420TIP3    H167751   3.289   2.938  11.529  0.7445 -0.9305  0.1464
15420TIP3    H267752   3.345   2.802  11.562  0.1297 -0.9376  1.1801
15421TIP3   OH267753   4.547   0.993  11.924  0.2797 -0.0075  0.2680
15421TIP3    H167754   4.515   1.075  11.885  1.3680  1.4139  2.2858
15421TIP3    H267755   4.623   0.969  11.871 -0.6045 -0.2652 -0.9220
15422TIP3   OH267756   5.269   3.990  14.967  0.3793 -0.4438  0.5659
15422TIP3    H167757   5.283   3.995  15.062 -0.4405 -1.4338  0.7496
15422TIP3    H267758   5.234   3.902  14.953 -0.7884  0.1801 -0.4898
15423TIP3   OH267759   1.329   4.950  11.240  0.2156  0.8376  0.0643
15423TIP3    H167760   1.254   5.004  11.215 -0.5351  0.8556  2.2329
15423TIP3    H267761   1.301   4.861  11.223 -0.3879  0.8332  1.0128
15424TIP3   OH267762   0.312   1.029   2.090 -0.1471 -0.4294  0.1723
15424TIP3    H167763   0.379   1.003   2.027  0.4885  0.1985  0.5890
15424TIP3    H267764   0.305   1.123   2.079 -0.6654 -0.4405  0.4302
15425TIP3   OH267765   4.946   3.352  10.932 -0.0105  0.2701 -0.4163
15425TIP3    H167766   4.885   3.350  10.858  0.1531 -1.2329 -0.5103
15425TIP3    H267767   4.982   3.441  10.930 -2.5455  1.3478 -0.0625
15426TIP3   OH267768   1.235   1.121  16.769  0.2351 -0.0340  0.2675
15426TIP3    H167769   1.217   1.081  16.854  1.1069 -0.7911  0.1062
15426TIP3    H267770   1.325   1.153  16.775 -0.8458  3.0927  0.8246
15427TIP3   OH267771   4.740   5.485  14.536  0.0814 -0.3334 -0.0441
15427TIP3    H167772   4.733   5.485  14.632 -0.2834  0.3397 -0.0647
15427TIP3    H267773   4.651   5.502  14.506  0.1095 -1.0174 -0.5183
15428TIP3   OH267774   5.496   5.950   4.994 -0.1380 -0.5649  0.4647
15428TIP3    H167775   5.403   5.927   5.000 -0.1289 -1.0680 -1.1478
15428TIP3    H267776   5.541   5.866   4.995  0.3869 -0.2863  2.3154
15429TIP3   OH267777   4.915   6.771   2.457  0.7595  0.3327  0.1132
15429TIP3    H167778   4.928   6.797   2.549  1.9329  2.5075 -0.6308
15429TIP3    H267779   4.974   6.828   2.408  1.1608 -1.7501 -1.8997
15430TIP3   OH267780   3.957   1.543  16.327 -0.2084  0.3969  0.3974
15430TIP3    H167781   4.048   1.521  16.345  0.0046  1.6722  0.9817
15430TIP3    H267782   3.960   1.637  16.305 -1.2970  0.3029 -0.1728
15431TIP3   OH267783   4.474   5.429   0.359  0.6371  0.2515 -0.4866
15431TIP3    H167784   4.405   5.390   0.306 -0.1019  0.4331  0.3261
15431TIP3    H267785   4.429   5.459   0.438  1.7065  0.0799  0.1890
15432TIP3   OH267786   3.748   2.875   1.822 -0.0458 -0.3181 -0.0582
15432TIP3    H167787   3.790   2.959   1.843 -0.3974 -0.0154 -0.5350
15432TIP3    H267788   3.667   2.875   1.872 -0.1144 -0.3065 -0.1679
15433TIP3   OH267789   3.403   0.436  17.222 -0.5516 -0.1091 -0.6110
15433TIP3    H167790   3.481   0.482  17.191 -1.1040 -0.1155 -2.0350
15433TIP3    H267791   3.330   0.483  17.182 -1.1549 -1.8231 -1.5881
15434TIP3   OH267792   2.542   5.204  14.718 -0.3133  0.3550 -0.0181
15434TIP3    H167793   2.550   5.128  14.776 -2.1577 -1.8673 -2.5528
15434TIP3    H267794   2.449   5.227  14.723 -0.1885  1.0659 -0.9752
15435TIP3   OH267795   5.852   6.058  13.079 -0.1726 -0.1928 -0.0671
15435TIP3    H167796   5.918   5.990  13.091 -0.7660 -0.5349  1.2992
15435TIP3    H267797   5.785   6.017  13.025  0.4210 -0.0447 -0.9258
15436TIP3   OH267798   2.872   4.811  12.537  0.0586  0.1123 -0.6205
15436TIP3    H167799   2.806   4.881  12.536 -0.2589 -0.1920 -2.6075
15436TIP3    H267800   2.951   4.853  12.504  0.2904 -0.0842 -0.3220
15437TIP3   OH267801   5.866   2.648  11.709  0.2008 -0.1957 -0.5094
15437TIP3    H167802   5.957   2.635  11.733  0.3556 -1.3186 -1.5875
15437TIP3    H267803   5.863   2.734  11.668  1.6378 -1.8233 -4.2515
15438TIP3   OH267804   1.177   3.362  14.238 -0.3911  0.5502 -0.3464
15438TIP3    H167805   1.139   3.413  14.167 -0.3455 -0.2923 -0.9823
15438TIP3    H267806   1.214   3.285  14.195 -1.5375 -0.6289  0.7406
15439TIP3   OH267807   4.166   6.110  15.792 -0.3975 -0.1633 -0.2694
15439TIP3    H167808   4.208   6.196  15.793  0.9251 -0.7990  0.0051
15439TIP3    H267809   4.086   6.123  15.741 -1.2084  1.6725  1.4289
15440TIP3   OH267810   2.061   3.793   4.352  0.1460 -0.2828 -0.2657
15440TIP3    H167811   2.122   3.720   4.358  1.4497  0.9786  2.7081
15440TIP3    H267812   2.006   3.786   4.430 -0.8563  0.9418 -0.8283
15441TIP3   OH267813   5.439   0.309   2.657 -0.3120  0.0130 -0.1142
15441TIP3    H167814   5.351   0.285   2.685 -0.2180 -1.1213 -0.7319
15441TIP3    H267815   5.446   0.403   2.673 -0.9009 -0.2723  1.8666
15442TIP3   OH267816   1.591   1.374  14.280  0.2364  0.2589  0.6322
15442TIP3    H167817   1.582   1.287  14.242  0.1726  0.0643  1.0908
15442TIP3    H267818   1.656   1.418  14.225  0.8258 -0.3345  0.8605
15443TIP3   OH267819   0.225   0.293  15.349 -0.9935  0.1924 -0.3227
15443TIP3    H167820   0.257   0.232  15.282  0.8020 -1.2782  1.8112
15443TIP3    H267821   0.259   0.378  15.321 -1.3995 -0.1625 -1.9914
15444TIP3   OH267822   1.627   2.537  16.581  0.2719  0.1433 -0.3125
15444TIP3    H167823   1.570   2.600  16.625 -0.7056  0.0109 -1.3590
15444TIP3    H267824   1.579   2.454  16.585 -0.0111  0.2082 -1.9382
15445TIP3   OH267825   3.884   3.329  14.435  0.1324  0.1240  0.2197
15445TIP3    H167826   3.912   3.374  14.515  0.0306  0.3038  0.1536
15445TIP3    H267827   3.962   3.331  14.378  0.3577 -0.4415  0.5072
15446TIP3   OH267828   3.301   3.300  14.764  0.3415  0.9016 -0.2833
15446TIP3    H167829   3.362   3.234  14.730 -0.4740 -0.2879  0.5491
15446TIP3    H267830   3.276   3.350  14.686 -0.3546 -0.8586 -1.2243
15447TIP3   OH267831   5.914   3.090   3.835  0.0794 -0.3653 -0.4260
15447TIP3    H167832   5.850   3.099   3.764  0.8460 -2.5453 -1.4361
15447TIP3    H267833   5.977   3.161   3.820 -0.0573 -0.4868 -1.6283
15448TIP3   OH267834   2.747   3.736  14.428  0.0917 -0.7990 -0.0437
15448TIP3    H167835   2.711   3.686  14.501  0.3865 -1.4231 -0.3188
15448TIP3    H267836   2.840   3.715  14.428 -0.1858 -2.0974 -1.6063
15449TIP3   OH267837   3.120   1.086   2.809  0.2489  0.1792 -0.5533
15449TIP3    H167838   3.102   1.118   2.897 -0.5835 -0.8594 -0.3439
15449TIP3    H267839   3.111   0.991   2.815  0.1378  0.1021 -1.7618
15450TIP3   OH267840   5.286   4.616   4.446 -0.4746  0.2692 -0.1946
15450TIP3    H167841   5.296   4.553   4.518  0.1737 -2.0357 -2.2351
15450TIP3    H267842   5.231   4.571   4.383 -1.5354  2.5127 -0.8983
15451TIP3   OH267843   0.280   1.993   1.343  0.0133 -0.8396 -0.0289
15451TIP3    H167844   0.297   1.979   1.250 -0.8946 -0.6894 -0.2241
15451TIP3    H267845   0.271   1.905   1.379  2.7678 -0.9856  0.3988
15452TIP3   OH267846   4.899   5.981   3.073  0.3819  0.5447 -0.5829
15452TIP3    H167847   4.921   5.915   3.138  2.0754  1.6262 -0.0360
15452TIP3    H267848   4.855   6.050   3.123 -0.0391  0.5168 -0.9082
15453TIP3   OH267849   6.116   3.362   3.237  0.1132 -0.4518  0.7592
15453TIP3    H167850   6.115   3.317   3.153  0.5962  1.2288 -0.1681
15453TIP3    H267851   6.033   3.411   3.240  0.1850 -0.3470  1.1730
15454TIP3   OH267852   6.650   3.417  13.198  0.5648 -0.1062  0.0016
15454TIP3    H167853   6.658   3.479  13.270  1.4910 -0.3480  0.1176
15454TIP3    H267854   6.634   3.472  13.121 -1.7288  0.0702  0.5784
15455TIP3   OH267855   3.770   0.253  15.477  0.5224  0.1405 -0.4406
15455TIP3    H167856   3.866   0.263  15.480  0.7132 -1.1434 -2.0574
15455TIP3    H267857   3.737   0.342  15.487  1.8460  0.5024  1.1198
15456TIP3   OH267858   1.287   1.958  13.398  0.3808  0.0515 -0.6357
15456TIP3    H167859   1.263   1.989  13.310  2.5037  1.9911 -0.5885
15456TIP3    H267860   1.243   2.018  13.458  1.1057  0.3856 -0.4363
15457TIP3   OH267861   2.317   1.994   3.212  0.1051 -0.4248  0.3935
15457TIP3    H167862   2.223   1.985   3.197  0.2504  0.9535 -1.6168
15457TIP3    H267863   2.326   2.074   3.264  0.2622  0.6011 -1.1652
15458TIP3   OH267864   1.512   3.376  10.477 -0.0535 -0.1714  0.0628
15458TIP3    H167865   1.536   3.337  10.393  1.7371 -1.0796  0.9900
15458TIP3    H267866   1.551   3.463  10.475  0.8327 -0.5622  0.3637
15459TIP3   OH267867   1.833   0.421  16.578 -0.2166  0.0797  0.1228
15459TIP3    H167868   1.767   0.373  16.628 -1.5065  0.0264 -1.5986
15459TIP3    H267869   1.788   0.499  16.547  0.4373 -0.0892 -1.3066
15460TIP3   OH267870   0.252   6.737  10.839  0.3375 -0.2107  0.2166
15460TIP3    H167871   0.223   6.827  10.820 -1.6019 -0.7221  0.6536
15460TIP3    H267872   0.347   6.742  10.835  0.2237  1.5982 -1.0060
15461TIP3   OH267873   1.157   3.238  13.192 -0.1751  0.0267  0.2168
15461TIP3    H167874   1.235   3.200  13.232  0.0505  1.7577  1.4584
15461TIP3    H267875   1.084   3.190  13.233  0.2175 -2.0580 -1.4379
15462TIP3   OH267876   4.671   1.307  17.236  0.1135 -0.2406 -0.2370
15462TIP3    H167877   4.650   1.225  17.192  1.6011  0.4134 -2.1995
15462TIP3    H267878   4.723   1.281  17.312  2.2058 -1.0174 -1.8829
15463TIP3   OH267879   3.924   2.900   3.449  0.6847 -0.2253 -0.1501
15463TIP3    H167880   3.952   2.913   3.540 -2.9037  2.5884  0.6570
15463TIP3    H267881   3.893   2.809   3.447  2.4704 -0.8924  0.9299
15464TIP3   OH267882   5.409   0.293   0.622  0.0890  0.0512  0.2966
15464TIP3    H167883   5.446   0.340   0.547 -1.0397  0.1748 -0.2033
15464TIP3    H267884   5.473   0.304   0.692  0.7549  0.6677 -0.3990
15465TIP3   OH267885   5.593   5.867   4.308 -0.3124 -0.3194  0.3177
15465TIP3    H167886   5.580   5.949   4.261 -0.0563  0.3313  1.3613
15465TIP3    H267887   5.522   5.810   4.278  0.2963 -0.1933 -1.4196
15466TIP3   OH267888   0.273   4.589  12.990  0.2968 -0.3610 -0.0685
15466TIP3    H167889   0.305   4.511  12.945  1.2588 -0.0757  0.1230
15466TIP3    H267890   0.237   4.555  13.073  0.5480 -0.6209 -0.0646
15467TIP3   OH267891   4.329   5.989   0.719  0.6678  0.0835 -0.2153
15467TIP3    H167892   4.343   6.042   0.641 -0.5612  0.3319 -0.2758
15467TIP3    H267893   4.350   6.048   0.792 -0.6605  0.6417 -0.2818
15468TIP3   OH267894   5.575   2.776  14.537 -0.2630  0.1856 -0.0760
15468TIP3    H167895   5.561   2.850  14.596  0.5330  0.2698  0.0141
15468TIP3    H267896   5.487   2.749  14.511 -0.5105  1.7322 -0.8429
15469TIP3   OH267897   1.539   1.835   2.604  0.2090  0.7471 -0.1993
15469TIP3    H167898   1.626   1.838   2.643  0.4663 -1.3435 -0.5509
15469TIP3    H267899   1.536   1.751   2.557 -2.5584 -0.0289  1.1977
15470TIP3   OH267900   2.786   1.540  16.225 -0.0736 -0.2741 -0.3635
15470TIP3    H167901   2.786   1.598  16.148  0.1947 -0.6810 -0.6673
15470TIP3    H267902   2.736   1.588  16.290  0.0175  0.2434 -0.6676
15471TIP3   OH267903   4.256   2.786  12.912 -0.1981  0.0005  0.2514
15471TIP3    H167904   4.172   2.761  12.950 -0.6967  0.8183 -0.3040
15471TIP3    H267905   4.233   2.835  12.833  0.8096 -2.1613 -1.4547
15472TIP3   OH267906   0.320   2.143   2.546  0.0299 -0.8938 -0.4515
15472TIP3    H167907   0.341   2.184   2.462 -0.3752 -1.1336 -0.6719
15472TIP3    H267908   0.388   2.174   2.605 -0.6198  0.5742 -0.4641
15473TIP3   OH267909   6.736   0.534   4.628  0.2566 -0.6241  0.9234
15473TIP3    H167910   6.753   0.515   4.536 -3.4965 -1.2965  0.2966
15473TIP3    H267911   6.778   0.463   4.675  1.5269 -0.7038 -0.2907
15474TIP3   OH267912   0.436   1.151   4.889 -0.4601 -0.1457 -0.0968
15474TIP3    H167913   0.356   1.135   4.939 -0.8164  0.3612 -0.5079
15474TIP3    H267914   0.472   1.231   4.926 -0.2820 -0.2248 -0.0946
15475TIP3   OH267915   2.777   6.808   3.160 -0.1924 -0.3398  0.5809
15475TIP3    H167916   2.814   6.735   3.209  1.1625  0.0165  0.1112
15475TIP3    H267917   2.830   6.883   3.185  0.4478 -0.1289 -1.3041
15476TIP3   OH267918   5.251   6.488  15.829 -0.1237 -0.1801 -0.8890
15476TIP3    H167919   5.325   6.547  15.844 -1.5299  1.6712 -0.8964
15476TIP3    H267920   5.212   6.519  15.747 -1.6767 -0.2464 -0.2001
15477TIP3   OH267921   4.793   2.592  14.031 -0.2265  0.1548 -0.4957
15477TIP3    H167922   4.795   2.683  14.060 -2.4678 -0.0353  0.4034
15477TIP3    H267923   4.842   2.591  13.949  0.7271  1.9598  0.0348
15478TIP3   OH267924   2.058   2.005   2.579  0.0042  0.8275 -0.1642
15478TIP3    H167925   2.114   2.080   2.561  1.3756 -0.5380 -1.7507
15478TIP3    H267926   2.118   1.931   2.587 -1.4499 -0.4012 -0.3480
15479TIP3   OH267927   4.650   2.601  12.624 -0.5687  0.7257 -0.3159
15479TIP3    H167928   4.628   2.552  12.703 -0.9959  1.5962  0.1148
15479TIP3    H267929   4.745   2.589  12.614 -0.4271  1.0212  0.6212
15480TIP3   OH267930   6.174   1.724   3.770  0.3532 -0.1766 -0.0144
15480TIP3    H167931   6.133   1.805   3.800  2.9600  0.8725  0.8618
15480TIP3    H267932   6.226   1.749   3.694  0.6354 -1.1734 -0.1620
15481TIP3   OH267933   2.273   2.747  13.930 -0.1970  0.2576 -0.0177
15481TIP3    H167934   2.294   2.766  13.839 -1.7360 -0.5940 -0.5827
15481TIP3    H267935   2.250   2.654  13.931 -1.4441  0.5505  0.9761
15482TIP3   OH267936   1.875   2.351   0.988  0.1491  0.4379 -0.3431
15482TIP3    H167937   1.919   2.273   0.954  0.6940  0.9714 -0.8672
15482TIP3    H267938   1.914   2.365   1.075 -0.1138 -0.0059 -0.1544
15483TIP3   OH267939   1.475   0.592  16.352  0.1666 -0.2486 -0.0873
15483TIP3    H167940   1.391   0.564  16.391 -0.0490 -0.5338 -0.7477
15483TIP3    H267941   1.517   0.510  16.326  1.1336 -0.1798  1.2009
15484TIP3   OH267942   0.093   6.626  13.594  0.2542  0.1915 -0.2775
15484TIP3    H167943   0.133   6.708  13.621 -0.4804  0.5389 -0.2419
15484TIP3    H267944   0.142   6.600  13.516  1.9417 -0.4785  0.9726
15485TIP3   OH267945   5.767   1.581  15.934  0.2320  0.3187  0.2237
15485TIP3    H167946   5.778   1.673  15.909  1.1922  0.6189  1.7182
15485TIP3    H267947   5.813   1.533  15.865 -1.5505  0.8499 -1.3971
15486TIP3   OH267948   2.123   6.777   4.916  0.0654  0.1200 -0.5089
15486TIP3    H167949   2.189   6.739   4.858  1.0291 -0.5070  0.9493
15486TIP3    H267950   2.111   6.866   4.885 -0.4135 -0.6198 -2.4824
15487TIP3   OH267951   0.781   3.906   3.141 -0.1374 -0.8723 -0.0965
15487TIP3    H167952   0.759   3.907   3.234 -1.2481 -2.4822 -0.3279
15487TIP3    H267953   0.867   3.865   3.137  1.2362  1.8189  0.4472
15488TIP3   OH267954   1.440   1.710   6.643 -0.0343 -0.6396  0.3074
15488TIP3    H167955   1.492   1.661   6.707  2.0208  1.0027 -0.0898
15488TIP3    H267956   1.465   1.674   6.558  1.5724  1.1691  0.0060
15489TIP3   OH267957   3.689   1.948  13.367  0.0709 -0.3488 -0.2180
15489TIP3    H167958   3.694   1.862  13.325 -0.7430  0.0174 -1.0791
15489TIP3    H267959   3.746   2.004  13.314 -2.0954  0.4759 -1.7802
15490TIP3   OH267960   5.318   1.266  16.002  0.0843 -0.3532  0.4454
15490TIP3    H167961   5.307   1.361  16.008  0.6816 -0.0895 -2.0057
15490TIP3    H267962   5.389   1.254  15.938  0.4285 -2.4423  1.1765
15491TIP3   OH267963   2.898   3.989   3.804 -0.4962  0.2408  0.7337
15491TIP3    H167964   2.930   4.014   3.891  0.2908  0.4987  0.3720
15491TIP3    H267965   2.835   4.058   3.781 -0.7480  0.1424  1.1211
15492TIP3   OH267966   5.783   1.723   6.450 -0.1905 -0.0173 -0.1766
15492TIP3    H167967   5.754   1.764   6.532 -1.5769 -0.8459 -0.2459
15492TIP3    H267968   5.850   1.783   6.417 -0.1683  0.7319  1.1640
15493TIP3   OH267969   4.161   3.490  13.457 -0.2886  0.2805  0.1078
15493TIP3    H167970   4.158   3.416  13.397 -1.2343  0.1001  0.3630
15493TIP3    H267971   4.100   3.554  13.418 -0.4591  0.3965  0.5617
15494TIP3   OH267972   1.454   0.392  12.537  0.5443 -0.3447  0.4290
15494TIP3    H167973   1.480   0.382  12.628 -1.9118  0.5937  1.2962
15494TIP3    H267974   1.360   0.373  12.537 -0.2616  3.1934 -1.2300
15495TIP3   OH267975   1.322   4.186  11.120 -0.1236  0.1167  0.7130
15495TIP3    H167976   1.244   4.236  11.095 -0.3303  0.6237  2.3344
15495TIP3    H267977   1.385   4.202  11.049 -0.7892  1.2828  0.3745
15496TIP3   OH267978   1.214   6.681  13.829  0.3801 -0.1723  0.3923
15496TIP3    H167979   1.121   6.700  13.813  0.1387 -2.1341 -0.7249
15496TIP3    H267980   1.217   6.649  13.919 -0.3294 -1.8277 -0.1499
15497TIP3   OH267981   0.283   2.913  10.836  0.3204  0.3713  0.1784
15497TIP3    H167982   0.272   2.944  10.746 -1.7455  1.2937  0.7052
15497TIP3    H267983   0.345   2.974  10.875  1.5580 -0.2892 -0.7268
15498TIP3   OH267984   4.764   4.418  14.398 -0.0609  0.2307 -0.0177
15498TIP3    H167985   4.803   4.422  14.485  0.8861 -0.0780 -0.4280
15498TIP3    H267986   4.761   4.510  14.369  0.0219  0.2919  0.1681
15499TIP3   OH267987   2.111   1.165   2.525  0.1892 -0.3563 -0.3660
15499TIP3    H167988   2.050   1.092   2.514 -0.2323 -0.1950  0.8004
15499TIP3    H267989   2.172   1.135   2.592  1.1759 -0.3649 -1.2545
15500TIP3   OH267990   3.977   0.767   4.505 -0.0717 -0.2587 -0.1919
15500TIP3    H167991   3.941   0.796   4.421  0.7850 -2.7680 -1.4526
15500TIP3    H267992   4.056   0.718   4.482  0.1326 -1.0364  2.0779
15501TIP3   OH267993   1.808   6.122   0.469  0.0618 -0.3530  0.3706
15501TIP3    H167994   1.795   6.152   0.379  2.0003  0.6234  0.3942
15501TIP3    H267995   1.770   6.191   0.523 -2.1132 -1.4636  0.3085
15502TIP3   OH267996   5.710   0.325   1.291  0.0658 -0.0071 -0.2076
15502TIP3    H167997   5.632   0.370   1.257  1.0870  2.5748  0.7698
15502TIP3    H267998   5.736   0.377   1.367  2.9293 -0.6574 -0.7100
15503TIP3   OH267999   5.156   1.026  13.127 -0.1725 -0.0416 -0.3159
15503TIP3    H168000   5.078   1.051  13.176 -0.4178 -0.8942 -0.2508
15503TIP3    H268001   5.179   1.103  13.076 -0.3307  0.6198  0.6088
15504TIP3   OH268002   6.586   1.841  12.382 -0.6348  0.0924  0.2242
15504TIP3    H168003   6.550   1.910  12.438 -1.9764 -1.7618  1.7276
15504TIP3    H268004   6.580   1.762  12.435  2.2856 -0.9570 -0.8853
15505TIP3   OH268005   1.435   3.065  12.644 -0.1530  0.0107 -0.2854
15505TIP3    H168006   1.524   3.060  12.678 -0.4172 -0.8591  0.2707
15505TIP3    H268007   1.415   2.977  12.613 -0.8514  0.1850 -0.3443
15506TIP3   OH268008   5.702   1.746  11.442  1.2513  0.4785  0.0883
15506TIP3    H168009   5.718   1.833  11.478 -2.8370  0.9095  1.1970
15506TIP3    H268010   5.696   1.689  11.519  0.4632 -0.0983 -0.3902
15507TIP3   OH268011   1.449   4.568  16.379  0.9410 -0.6577 -0.6900
15507TIP3    H168012   1.451   4.549  16.473 -0.3097 -1.3646 -0.8013
15507TIP3    H268013   1.513   4.639  16.367  0.3980  0.0934  0.8336
15508TIP3   OH268014   3.950   4.645  13.406 -0.3760 -0.0436  0.2547
15508TIP3    H168015   3.917   4.658  13.317  0.8484  1.3751 -0.0075
15508TIP3    H268016   3.875   4.611  13.454 -2.1347  2.6807 -0.4521
15509TIP3   OH268017   3.541   3.504   3.103 -0.2938  0.1886  0.2667
15509TIP3    H168018   3.471   3.543   3.154 -1.0800 -0.2473 -0.4509
15509TIP3    H268019   3.502   3.423   3.068 -0.3327  1.3126 -2.3783
15510TIP3   OH268020   6.786   2.515  15.843 -0.3187  0.2721 -0.2593
15510TIP3    H168021   6.754   2.495  15.931 -2.4702  0.0807 -1.0647
15510TIP3    H268022   6.797   2.430  15.801 -0.0949  0.3974 -0.4550
15511TIP3   OH268023   0.630   6.216  16.132  0.3829 -0.3668  0.3009
15511TIP3    H168024   0.578   6.242  16.056  1.1112  1.4168  0.3761
15511TIP3    H268025   0.691   6.150  16.099 -1.4036 -1.9269  0.0434
15512TIP3   OH268026   6.140   6.775   0.805  0.6342  0.3678 -0.1055
15512TIP3    H168027   6.163   6.785   0.897 -1.5913  1.6073  0.3539
15512TIP3    H268028   6.224   6.767   0.760  1.8135  1.3878  1.8516
15513TIP3   OH268029   5.039   5.072   0.885 -0.2978  0.5823  0.1882
15513TIP3    H168030   5.016   5.026   0.804 -0.4744 -0.0088  0.5770
15513TIP3    H268031   5.048   5.164   0.858  1.0745  0.1765 -0.7810
15514TIP3   OH268032   2.989   3.424   2.782 -0.3779 -0.3623 -0.2424
15514TIP3    H168033   3.043   3.355   2.744  1.7423  0.5058  1.0809
15514TIP3    H268034   2.929   3.378   2.841 -0.2643 -1.2406 -0.8006
15515TIP3   OH268035   4.044   2.722   1.867  0.6105  0.1106 -0.5170
15515TIP3    H168036   4.132   2.718   1.905  0.9346  1.4258 -1.1265
15515TIP3    H268037   4.056   2.762   1.781 -0.7776  1.6974  0.0003
15516TIP3   OH268038   0.523   5.349  14.719 -0.1542 -0.0597  0.4078
15516TIP3    H168039   0.522   5.280  14.653  0.4547 -0.2266  0.5675
15516TIP3    H268040   0.485   5.308  14.797 -0.9414  0.1604  0.1455
15517TIP3   OH268041   2.421   1.716   3.183  0.0854 -0.3029  0.0090
15517TIP3    H168042   2.385   1.784   3.127  0.2710  0.8847  1.3173
15517TIP3    H268043   2.490   1.676   3.131  1.3812  1.9077  0.0073
15518TIP3   OH268044   5.115   2.356   0.659 -0.0946  0.2456  0.2175
15518TIP3    H168045   5.172   2.412   0.607 -1.1634  0.3892 -0.8262
15518TIP3    H268046   5.065   2.418   0.713  0.4090  0.1495  0.7935
15519TIP3   OH268047   5.441   4.282   2.513  0.4444 -0.3943 -0.2154
15519TIP3    H168048   5.426   4.345   2.584  0.8686 -0.7127  0.1566
15519TIP3    H268049   5.498   4.328   2.452  1.2654 -0.6382  0.3617
15520TIP3   OH268050   3.415   5.692   4.509  0.1381 -0.0753 -0.0161
15520TIP3    H168051   3.383   5.778   4.538 -0.9816 -0.3605 -0.3609
15520TIP3    H268052   3.352   5.665   4.441  0.9807 -0.7733 -0.5340
15521TIP3   OH268053   0.359   4.900  13.976 -0.0171 -0.2058  0.1021
15521TIP3    H168054   0.410   4.871  14.052 -1.1066 -1.5409  0.3505
15521TIP3    H268055   0.269   4.905  14.009 -0.0767  2.0638 -0.3435
15522TIP3   OH268056   6.785   1.015   0.910  0.9076  0.5039  0.8212
15522TIP3    H168057   6.760   1.069   0.835 -0.0301  0.2256  0.9252
15522TIP3    H268058   6.710   1.019   0.969  0.7532 -1.0479  0.7525
15523TIP3   OH268059   5.499   3.807  17.018 -0.1042 -0.2973  0.0479
15523TIP3    H168060   5.449   3.884  17.045  1.3700  0.7154 -0.0832
15523TIP3    H268061   5.485   3.743  17.089 -1.1592  0.1506  0.2515
15524TIP3   OH268062   3.133   2.043   0.119  0.5076 -0.3375  0.1085
15524TIP3    H168063   3.110   2.089   0.199 -0.5838  0.4130 -0.6175
15524TIP3    H268064   3.219   2.077   0.095  0.4010  0.1625  0.4301
15525TIP3   OH268065   6.250   2.436   0.101 -0.0083  0.4723 -0.1918
15525TIP3    H168066   6.338   2.465   0.080  0.5579 -0.9784  0.1506
15525TIP3    H268067   6.250   2.342   0.082 -0.9938  0.1396  1.3789
15526TIP3   OH268068   2.607   4.536  13.413 -0.3934  0.2029  0.3080
15526TIP3    H168069   2.597   4.616  13.361  0.9260 -0.4176 -0.9324
15526TIP3    H268070   2.649   4.566  13.495  0.2785  0.7565 -0.2280
15527TIP3   OH268071   2.562   6.741   5.368  0.0465 -0.0794 -0.1221
15527TIP3    H168072   2.561   6.663   5.424  0.3667  0.7096  1.0009
15527TIP3    H268073   2.620   6.717   5.296  0.2076 -0.8626  0.2567
15528TIP3   OH268074   6.642   1.627  11.733 -0.2489 -0.5230 -0.7305
15528TIP3    H168075   6.681   1.662  11.653 -0.8362 -0.8685 -1.1677
15528TIP3    H268076   6.548   1.640  11.723 -0.3332 -0.6359 -0.1342
15529TIP3   OH268077   2.746   3.739   3.322 -0.0261  0.0363  0.1424
15529TIP3    H168078   2.752   3.793   3.244  0.9198 -0.1134  0.1110
15529TIP3    H268079   2.834   3.702   3.334 -0.1911 -0.0470  1.1934
15530TIP3   OH268080   3.056   6.157  13.357 -0.3232 -0.2741 -0.4639
15530TIP3    H168081   3.133   6.213  13.361 -0.1211 -0.4899 -1.3827
15530TIP3    H268082   2.995   6.204  13.299 -0.7596 -0.2663 -0.0104
15531TIP3   OH268083   3.591   0.102   4.494 -0.5210 -0.1142 -0.2338
15531TIP3    H168084   3.576   0.073   4.403  1.3452 -0.3789 -0.4901
15531TIP3    H268085   3.504   0.120   4.528 -1.2358  0.3262 -2.1993
15532TIP3   OH268086   1.048   4.996   6.124  0.3586  0.9712 -0.0301
15532TIP3    H168087   1.017   4.954   6.204 -1.3727  0.5481 -0.9123
15532TIP3    H268088   1.115   5.058   6.154 -0.8868  1.4567  1.8445
15533TIP3   OH268089   3.442   4.905  16.608 -0.3280 -0.1891 -0.2300
15533TIP3    H168090   3.478   4.826  16.567 -0.7227 -0.3122 -0.3383
15533TIP3    H268091   3.508   4.973  16.590  0.9200 -0.9114  1.5177
15534TIP3   OH268092   3.063   5.764  10.796 -0.2406  0.2463 -0.0162
15534TIP3    H168093   3.148   5.759  10.753 -0.4462 -0.6364 -0.3438
15534TIP3    H268094   3.004   5.800  10.730 -0.7908 -2.1212 -0.8896
15535TIP3   OH268095   4.957   3.570  14.412 -0.5666  0.0784  0.1060
15535TIP3    H168096   5.044   3.531  14.420 -0.5623 -0.1010 -0.8178
15535TIP3    H268097   4.936   3.564  14.319 -0.7726  1.8476  0.0202
15536TIP3   OH268098   1.311   1.616   2.835  0.1334  0.0375  1.5196
15536TIP3    H168099   1.388   1.629   2.890 -0.6717 -2.4345  3.3437
15536TIP3    H268100   1.315   1.523   2.811 -0.1593  0.8213 -1.6995
15537TIP3   OH268101   2.325   0.725  14.037  0.0044  0.1707  0.0589
15537TIP3    H168102   2.411   0.713  14.078 -0.6752  1.6936  2.0194
15537TIP3    H268103   2.283   0.639  14.046 -0.2559  0.5338  2.9883
15538TIP3   OH268104   5.761   2.131  13.298 -0.2311  0.2459  0.7556
15538TIP3    H168105   5.823   2.198  13.326 -0.5415  0.7154  0.3506
15538TIP3    H268106   5.678   2.156  13.340 -0.7637  1.1077 -0.7230
15539TIP3   OH268107   1.870   0.784  12.295  0.1388 -0.4337 -0.0446
15539TIP3    H168108   1.797   0.845  12.299 -0.1960 -0.8299 -0.0045
15539TIP3    H268109   1.849   0.726  12.221 -0.1485 -1.2447  0.6626
15540TIP3   OH268110   4.243   3.807  15.999  0.0926 -0.1358 -0.4194
15540TIP3    H168111   4.227   3.790  15.906  1.7540 -3.2603 -0.2003
15540TIP3    H268112   4.299   3.884  16.000  0.8803 -0.6644 -2.0984
15541TIP3   OH268113   0.639   6.628   0.521  0.0499 -0.3353 -0.2931
15541TIP3    H168114   0.579   6.651   0.592 -0.7965 -0.0593 -1.0960
15541TIP3    H268115   0.639   6.705   0.464 -1.3413 -1.5539 -2.0101
15542TIP3   OH268116   3.344   5.672   5.679  0.3678  0.3542 -0.2621
15542TIP3    H168117   3.359   5.614   5.603  1.7635 -0.4976  0.6459
15542TIP3    H268118   3.271   5.630   5.726  1.2955 -0.6203  0.3280
15543TIP3   OH268119   1.780   5.860  14.919 -0.0154  0.4703 -0.3205
15543TIP3    H168120   1.692   5.824  14.908 -1.0983  2.9958 -0.4926
15543TIP3    H268121   1.812   5.822  15.000 -0.0893 -2.7041 -1.7312
15544TIP3   OH268122   3.222   1.942  13.267  0.0864 -0.1231  0.6054
15544TIP3    H168123   3.154   1.957  13.201  0.1487  0.1988  0.6149
15544TIP3    H268124   3.304   1.950  13.219  0.1417  0.5154  0.8053
15545TIP3   OH268125   2.639   3.793  13.016 -0.6082  0.0388 -0.3215
15545TIP3    H168126   2.700   3.755  13.081  0.3792  1.0658 -0.6271
15545TIP3    H268127   2.584   3.720  12.989 -0.4407 -0.6003  1.0257
15546TIP3   OH268128   0.869   2.637  16.112 -0.4363  0.0017 -0.6236
15546TIP3    H168129   0.788   2.689  16.115  1.1134  2.3994  0.9919
15546TIP3    H268130   0.923   2.681  16.046 -0.0918 -1.1011 -1.0872
15547TIP3   OH268131   4.238   3.790   0.637  0.7260  0.1186  0.6339
15547TIP3    H168132   4.317   3.736   0.628  1.3796  0.8726  1.7367
15547TIP3    H268133   4.269   3.880   0.628  0.1996  0.4840  2.3890
15548TIP3   OH268134   0.666   5.546  15.026  0.1735 -0.5634 -0.6165
15548TIP3    H168135   0.653   5.575  14.935  1.3906 -0.7255 -0.8424
15548TIP3    H268136   0.583   5.567  15.069 -0.2257 -0.0017 -1.6358
15549TIP3   OH268137   2.737   2.938  15.201  0.1697  0.4428 -0.1625
15549TIP3    H168138   2.659   2.981  15.235 -1.1040  0.3365 -2.8479
15549TIP3    H268139   2.715   2.845  15.200  1.2603  0.1590  1.4088
15550TIP3   OH268140   6.362   4.604  14.404 -0.3704 -0.0790  0.6438
15550TIP3    H168141   6.277   4.574  14.374 -0.8109  0.4150  1.3757
15550TIP3    H268142   6.348   4.626  14.496  0.7948 -0.9582  1.0375
15551TIP3   OH268143   2.373   0.201  16.897 -0.2369 -0.6775 -0.2924
15551TIP3    H168144   2.293   0.195  16.845  0.5652 -1.1401 -1.4862
15551TIP3    H268145   2.427   0.266  16.852 -0.6472  0.9459  1.4880
15552TIP3   OH268146   6.178   4.897  16.847  0.3401  0.3540 -0.1383
15552TIP3    H168147   6.210   4.868  16.932 -1.0105 -1.0764 -0.1034
15552TIP3    H268148   6.143   4.985  16.863 -3.2447 -1.3249  1.6202
15553TIP3   OH268149   6.638   3.252   5.762 -0.4582 -0.0780 -0.3774
15553TIP3    H168150   6.629   3.157   5.757  1.3330 -0.3790  1.6516
15553TIP3    H268151   6.686   3.268   5.843 -0.6328  2.5620 -0.7420
15554TIP3   OH268152   5.346   6.802   2.104 -0.4099  0.6316  0.4010
15554TIP3    H168153   5.405   6.791   2.178 -0.1967  1.2050  0.3157
15554TIP3    H268154   5.298   6.719   2.099 -1.8210  1.2892  2.3996
15555TIP3   OH268155   0.163   0.133  15.571 -0.4572  0.2911 -0.4642
15555TIP3    H168156   0.170   0.207  15.512 -0.8196  1.6577  1.1519
15555TIP3    H268157   0.214   0.159  15.648 -0.9353 -0.9524  0.2864
15556TIP3   OH268158   1.830   1.300   2.268  0.1673 -0.0669 -0.3891
15556TIP3    H168159   1.856   1.342   2.186  0.5526  0.7157  0.1259
15556TIP3    H268160   1.906   1.311   2.326  0.1711 -1.2370 -0.1493
15557TIP3   OH268161   3.842   2.805  16.116 -0.1695  0.0099 -0.4146
15557TIP3    H168162   3.928   2.792  16.076 -0.2452 -0.3898 -0.4496
15557TIP3    H268163   3.849   2.762  16.201  1.0974  3.7588  1.5011
15558TIP3   OH268164   4.781   0.722  11.764 -0.6386 -0.2345 -0.1314
15558TIP3    H168165   4.751   0.641  11.805 -0.3858  1.8074  4.3839
15558TIP3    H268166   4.876   0.717  11.768 -0.6159  0.0085 -0.3737
15559TIP3   OH268167   3.867   4.426  16.779  0.4019  0.0795  0.1097
15559TIP3    H168168   3.822   4.353  16.822 -2.4736  0.7766 -1.5527
15559TIP3    H268169   3.881   4.396  16.690 -0.0407  1.2317 -0.3578
15560TIP3   OH268170   6.266   6.307   2.944  0.1762  0.1558  0.0089
15560TIP3    H168171   6.225   6.265   2.869 -2.6103  2.0634  0.3417
15560TIP3    H268172   6.245   6.250   3.018 -0.6543  0.3451 -0.0661
15561TIP3   OH268173   4.084   0.690  14.911  0.1185 -0.2647 -0.1589
15561TIP3    H168174   4.119   0.725  14.993 -1.3000  0.1747  0.2758
15561TIP3    H268175   4.144   0.620  14.887  1.9339  1.2063 -0.0384
15562TIP3   OH268176   5.784   4.813   5.510  0.3638  0.2385  0.5355
15562TIP3    H168177   5.795   4.829   5.604 -2.3990  0.2781  0.8685
15562TIP3    H268178   5.755   4.722   5.505  0.0194  0.3953 -0.2625
15563TIP3   OH268179   5.240   1.667   5.839 -0.3968 -0.2102 -1.1241
15563TIP3    H168180   5.290   1.726   5.783 -0.0708  0.4696 -0.1308
15563TIP3    H268181   5.306   1.616   5.886 -0.6616 -0.5434 -1.1098
15564TIP3   OH268182   3.597   0.534   4.721 -0.3271  0.4478  0.3469
15564TIP3    H168183   3.565   0.618   4.754 -0.5433 -0.0699  1.5148
15564TIP3    H268184   3.518   0.483   4.705 -0.2427  0.9267 -1.6561
15565TIP3   OH268185   3.286   2.775  15.211  0.4019 -0.4735  0.6892
15565TIP3    H168186   3.223   2.730  15.267 -0.7779 -1.0403 -1.0389
15565TIP3    H268187   3.293   2.720  15.134  2.0638  0.2437  0.3137
15566TIP3   OH268188   2.473   4.738  13.899 -0.3353 -0.2267  0.1071
15566TIP3    H168189   2.451   4.795  13.825  0.3982 -0.0458  0.0150
15566TIP3    H268190   2.445   4.651  13.873 -0.8237 -0.0221 -0.0480
15567TIP3   OH268191   5.208   2.724  14.860 -0.3959  0.2710 -0.0668
15567TIP3    H168192   5.150   2.721  14.936 -2.0036  1.7101 -1.2062
15567TIP3    H268193   5.150   2.705  14.786  1.2999 -1.9146 -0.8852
15568TIP3   OH268194   1.633   5.550   1.988 -0.1760  0.3041  0.1645
15568TIP3    H168195   1.681   5.621   1.946 -0.4419 -0.2632 -1.1043
15568TIP3    H268196   1.673   5.470   1.956 -0.7425 -0.1441  0.5539
15569TIP3   OH268197   2.757   1.078   4.945  0.2946 -0.1390  0.2037
15569TIP3    H168198   2.680   1.039   4.985 -0.9520  1.6913 -0.3715
15569TIP3    H268199   2.732   1.096   4.854  0.9282  1.7076  0.3705
15570TIP3   OH268200   1.300   6.561   0.706  0.5505 -0.4603  0.5296
15570TIP3    H168201   1.337   6.647   0.725  0.9195 -0.7134  0.9823
15570TIP3    H268202   1.332   6.540   0.618  0.9987 -0.4148  0.6783
15571TIP3   OH268203   0.853   1.522  14.593  0.9639 -0.9752 -0.2740
15571TIP3    H168204   0.937   1.510  14.549  0.0243  0.0666 -2.4607
15571TIP3    H268205   0.815   1.434  14.596  1.8629 -1.3507  0.1634
15572TIP3   OH268206   5.569   5.299  17.278  0.7522 -0.1500  0.0740
15572TIP3    H168207   5.483   5.274  17.312  1.2245 -0.4234  1.0632
15572TIP3    H268208   5.567   5.270  17.186 -1.4029  2.7231 -0.8633
15573TIP3   OH268209   2.248   4.849   5.493  0.3314 -0.4490  0.5285
15573TIP3    H168210   2.171   4.884   5.538  0.6895  0.5551  0.3585
15573TIP3    H268211   2.269   4.914   5.426  0.1151 -1.6706 -0.7721
15574TIP3   OH268212   5.678   6.366  11.436 -0.0211  0.2474  0.2975
15574TIP3    H168213   5.770   6.341  11.442  0.3567  1.4438 -0.2197
15574TIP3    H268214   5.630   6.291  11.471  1.0078 -1.5622 -2.0140
15575TIP3   OH268215   3.586   3.780   6.456  0.0085  0.1272 -0.1570
15575TIP3    H168216   3.526   3.761   6.529 -0.8471  1.0935 -0.6072
15575TIP3    H268217   3.670   3.743   6.485 -0.5754 -0.4486  0.8610
15576TIP3   OH268218   3.694   2.174  12.209  0.3691  0.1306 -0.5872
15576TIP3    H168219   3.697   2.171  12.305  0.1862 -1.8184 -0.6213
15576TIP3    H268220   3.786   2.182  12.183  0.4636  0.1557 -0.2502
15577TIP3   OH268221   1.643   5.241   0.069 -0.1398  0.7888  0.0556
15577TIP3    H168222   1.701   5.176   0.109  0.9954  1.2112 -0.8712
15577TIP3    H268223   1.650   5.225  -0.025 -1.4647  0.9083 -0.0638
15578TIP3   OH268224   6.170   1.163  13.942 -0.2593 -0.0674 -0.1162
15578TIP3    H168225   6.196   1.145  14.032  0.0686 -0.8633 -0.3702
15578TIP3    H268226   6.090   1.215  13.950  0.7513  1.4326  0.6665
15579TIP3   OH268227   4.328   4.833  10.805  0.6404  0.1212 -0.2823
15579TIP3    H168228   4.374   4.853  10.886 -0.3107  2.8774 -0.3957
15579TIP3    H268229   4.397   4.802  10.745  1.7264  0.5524  0.7313
15580TIP3   OH268230   6.196   6.384   6.318 -0.4435 -0.0888 -0.5435
15580TIP3    H168231   6.147   6.343   6.389 -1.2428  2.1217  0.2288
15580TIP3    H268232   6.220   6.470   6.352 -1.1946  1.1596 -3.0842
15581TIP3   OH268233   2.731   0.360  16.369  0.2447  0.7601  0.0228
15581TIP3    H168234   2.706   0.425  16.303  0.1690  1.5552  0.8251
15581TIP3    H268235   2.826   0.353  16.361  0.3109  1.3366  0.2607
15582TIP3   OH268236   6.208   1.991  15.192 -0.1391  0.5051 -0.1704
15582TIP3    H168237   6.131   2.018  15.243 -1.4974 -2.6133 -0.4641
15582TIP3    H268238   6.269   1.957  15.256 -0.8930 -1.2481 -0.3635
15583TIP3   OH268239   1.950   2.993   3.255  0.0721  0.0013 -0.8174
15583TIP3    H168240   2.002   2.988   3.174 -0.0985  0.6585 -0.9744
15583TIP3    H268241   1.869   2.948   3.235  0.2207 -0.2473 -0.8609
15584TIP3   OH268242   4.313   3.907  11.869 -0.4220 -0.2535 -0.0820
15584TIP3    H168243   4.383   3.966  11.842  0.6416 -0.5070  2.0132
15584TIP3    H268244   4.359   3.831  11.906 -1.7723 -1.8759 -1.6695
15585TIP3   OH268245   2.476   1.384  11.600 -0.1133  0.0428  0.2985
15585TIP3    H168246   2.467   1.353  11.509  1.0701 -0.3261  0.2962
15585TIP3    H268247   2.557   1.344  11.631  0.9410  2.3308  0.6329
15586TIP3   OH268248   4.902   5.427   3.203 -0.1766 -0.2054 -0.0926
15586TIP3    H168249   4.905   5.380   3.286 -1.1048 -0.9680 -0.4860
15586TIP3    H268250   4.823   5.395   3.160  1.9767 -2.3139 -2.7292
15587TIP3   OH268251   3.612   5.368  14.843 -0.5784  0.5332  0.3120
15587TIP3    H168252   3.545   5.409  14.899  0.0461  1.0421  0.6899
15587TIP3    H268253   3.670   5.440  14.819  1.8015 -0.4940  2.7813
15588TIP3   OH268254   2.102   1.906   5.381 -0.3333  0.1915 -0.2282
15588TIP3    H168255   2.174   1.965   5.357 -1.9645  2.8270  1.0833
15588TIP3    H268256   2.041   1.962   5.428 -1.5180 -2.8127  1.9302
15589TIP3   OH268257   3.376   6.395  14.621  0.3530 -0.4583 -0.5698
15589TIP3    H168258   3.378   6.368  14.529  0.8100 -0.0903 -0.6744
15589TIP3    H268259   3.370   6.491  14.617  1.4752 -0.3653 -0.2262
15590TIP3   OH268260   3.752   2.011   1.297  0.1371 -0.4711  0.2058
15590TIP3    H168261   3.735   2.017   1.203 -0.5773 -2.1009  0.2089
15590TIP3    H268262   3.667   2.032   1.338  0.0301 -1.3397  0.4364
15591TIP3   OH268263   0.017   2.763   5.992 -0.0546 -0.0815  0.1977
15591TIP3    H168264  -0.016   2.838   5.942  1.6710 -0.0102 -0.8607
15591TIP3    H268265   0.076   2.802   6.056  0.2683 -0.4679  0.1324
15592TIP3   OH268266   3.650   4.174   2.211 -0.0880 -0.3328 -0.4070
15592TIP3    H168267   3.699   4.107   2.163  0.2532 -0.4034  0.0380
15592TIP3    H268268   3.562   4.137   2.222 -0.1346 -0.3648 -0.8728
15593TIP3   OH268269   5.853   1.395   3.041  0.1512 -0.1538 -0.0449
15593TIP3    H168270   5.935   1.358   3.009 -0.2684 -0.0545 -1.2419
15593TIP3    H268271   5.873   1.488   3.055  0.7190 -0.4709  1.3150
15594TIP3   OH268272   3.538   0.769  15.388 -0.0334 -0.0038 -0.4972
15594TIP3    H168273   3.549   0.798  15.297 -0.9474  0.6426 -0.4108
15594TIP3    H268274   3.544   0.850  15.439 -2.8236  0.0891 -0.2604
15595TIP3   OH268275   1.843   6.641   1.385  0.6427  0.1748  0.1228
15595TIP3    H168276   1.789   6.650   1.463  0.1365 -1.9581  0.0439
15595TIP3    H268277   1.903   6.569   1.405  1.4199  0.5193 -0.9256
15596TIP3   OH268278   3.405   1.407   4.611  0.3946  0.0693 -0.3514
15596TIP3    H168279   3.311   1.418   4.628  0.6140  1.6350 -0.0732
15596TIP3    H268280   3.410   1.383   4.518 -0.4779 -3.4370  0.4346
15597TIP3   OH268281   0.936   4.180  15.862  0.2292 -0.2810 -0.0450
15597TIP3    H168282   0.992   4.127  15.805  1.5546  0.8731  0.1467
15597TIP3    H268283   0.971   4.269  15.854 -1.8264  0.5326 -0.2028
15598TIP3   OH268284   3.561   0.242  14.440  0.1678  0.2215 -0.1648
15598TIP3    H168285   3.527   0.168  14.389  2.2761 -1.1111  0.3016
15598TIP3    H268286   3.514   0.237  14.523  1.2199 -1.4066  0.3562
15599TIP3   OH268287   1.534   4.377  13.602 -0.1006 -0.3385  0.0723
15599TIP3    H168288   1.600   4.404  13.539 -0.2511 -0.9463 -0.3547
15599TIP3    H268289   1.464   4.442  13.593  0.1187 -0.1100  0.0109
15600TIP3   OH268290   2.898   5.519  15.074 -0.1655 -0.2821  0.7422
15600TIP3    H168291   2.830   5.494  15.012  0.0752 -0.7408  0.6669
15600TIP3    H268292   2.959   5.446  15.075  1.5915  1.1003 -0.9457
15601TIP3   OH268293   4.465   1.371   3.439  0.2049  0.6314 -0.2743
15601TIP3    H168294   4.549   1.406   3.408  0.0192  0.1900 -1.2978
15601TIP3    H268295   4.454   1.290   3.390 -0.4052  0.2414  0.5084
15602TIP3   OH268296   4.108   5.116   4.972 -0.2298  0.3618 -0.0402
15602TIP3    H168297   4.059   5.194   4.997 -2.8352 -0.0160 -3.5999
15602TIP3    H268298   4.069   5.046   5.026 -0.4470  0.8575  0.4551
15603TIP3   OH268299   5.398   3.986   3.855  0.3664 -0.2422 -0.0973
15603TIP3    H168300   5.372   3.999   3.946  1.4949 -0.4440  0.2604
15603TIP3    H268301   5.330   4.031   3.804 -0.5582 -0.5727  0.8151
15604TIP3   OH268302   1.819   6.018   2.890  0.9634  0.2359  0.3573
15604TIP3    H168303   1.827   6.075   2.966 -0.8782  1.2963 -0.1984
15604TIP3    H268304   1.903   6.027   2.844  0.8412  2.2537  0.4623
15605TIP3   OH268305   1.984   5.321  11.089 -0.7032  0.2712 -0.0524
15605TIP3    H168306   2.030   5.279  11.016 -2.0860 -1.5848  0.1085
15605TIP3    H268307   1.901   5.351  11.052 -1.2428 -0.3239  0.6605
15606TIP3   OH268308   6.130   3.421   5.609  0.1573  0.8001  0.0335
15606TIP3    H168309   6.207   3.369   5.630 -0.3973 -0.1463 -0.2361
15606TIP3    H268310   6.138   3.439   5.515 -1.0934 -1.2535 -0.4963
15607TIP3   OH268311   4.780   4.467  12.088 -0.2765  0.4562 -0.3097
15607TIP3    H168312   4.858   4.431  12.129  0.1146  0.3006 -1.1674
15607TIP3    H268313   4.734   4.512  12.158  0.9655  1.1798  0.0532
15608TIP3   OH268314   6.338   4.857   5.923 -0.2298 -0.2282  0.5256
15608TIP3    H168315   6.325   4.767   5.895  0.7188 -0.0728 -0.3953
15608TIP3    H268316   6.407   4.852   5.989  0.8645 -0.0045 -0.5810
15609TIP3   OH268317   2.649   6.080  16.145  0.2209  0.3779  0.3855
15609TIP3    H168318   2.573   6.127  16.179  0.8668  2.2675 -0.7278
15609TIP3    H268319   2.614   5.997  16.114 -1.6820  1.8003 -1.4474
15610TIP3   OH268320   5.426   3.064  14.203  0.3219  0.1013  0.1484
15610TIP3    H168321   5.371   3.009  14.259 -0.5349  0.4829 -0.3059
15610TIP3    H268322   5.434   3.015  14.121 -0.8774  0.8810 -0.4445
15611TIP3   OH268323   0.775   2.555  13.960 -0.2593 -0.2197 -0.5652
15611TIP3    H168324   0.717   2.600  13.899  0.1207 -0.5200 -1.1511
15611TIP3    H268325   0.761   2.462  13.942 -0.7833 -0.3289  0.3975
15612TIP3   OH268326   4.298   2.085  16.950 -0.0085 -0.9015  0.2085
15612TIP3    H168327   4.283   2.087  16.856  1.8020  1.0470 -0.0637
15612TIP3    H268328   4.338   2.000  16.966  1.7486 -0.3401 -1.1133
15613TIP3   OH268329   6.646   0.890  12.065  0.2993  0.1738 -0.3287
15613TIP3    H168330   6.588   0.868  11.991 -1.4620  0.5041  0.9098
15613TIP3    H268331   6.685   0.974  12.040 -0.0039  0.1076 -1.0583
15614TIP3   OH268332   4.683   2.041   2.787 -0.5052  0.1419  0.0518
15614TIP3    H168333   4.744   2.037   2.713 -1.1851 -0.8625 -0.4596
15614TIP3    H268334   4.720   2.108   2.845  0.1984  0.7243 -1.0499
15615TIP3   OH268335   1.258   3.632  11.816  0.2091  0.1894  0.1817
15615TIP3    H168336   1.172   3.604  11.787 -0.1625  2.4976 -1.1536
15615TIP3    H268337   1.317   3.604  11.745  0.5886 -1.4121  1.1052
15616TIP3   OH268338   3.599   2.379   5.196 -0.0702 -0.2010  0.5130
15616TIP3    H168339   3.683   2.360   5.237  0.0523 -1.6935 -0.4202
15616TIP3    H268340   3.598   2.326   5.116 -1.6229  0.2933  0.1871
15617TIP3   OH268341   2.260   2.559   1.183 -0.3621 -0.1308 -0.0798
15617TIP3    H168342   2.280   2.465   1.188 -0.5219 -0.1168  0.9404
15617TIP3    H268343   2.338   2.598   1.143  0.0076 -0.6087  0.1708
15618TIP3   OH268344   1.364   2.721  13.367 -0.3421  0.0295 -0.6236
15618TIP3    H168345   1.273   2.748  13.380 -0.5424 -1.0551  0.3143
15618TIP3    H268346   1.416   2.787  13.413 -0.8057 -0.9377  1.3080
15619TIP3   OH268347   4.319   1.489  11.342  0.2094  0.2338  0.4612
15619TIP3    H168348   4.370   1.556  11.388 -1.2764  1.5732  0.2043
15619TIP3    H268349   4.258   1.456  11.408 -0.1990  0.3432  0.1403
15620TIP3   OH268350   1.039   3.973   3.953  0.5461  0.1334 -0.2538
15620TIP3    H168351   1.072   4.022   3.878 -0.0223  0.4900 -0.2765
15620TIP3    H268352   0.984   3.905   3.914 -0.4188  0.8307 -0.1336
15621TIP3   OH268353   2.031   6.797  12.073  0.1041  0.2761 -0.2039
15621TIP3    H168354   2.053   6.864  12.138 -0.1592 -2.0163  2.2926
15621TIP3    H268355   2.113   6.751  12.057 -0.1728 -0.1668 -0.3516
15622TIP3   OH268356   4.701   1.281   0.375  0.4900 -0.5780 -0.3745
15622TIP3    H168357   4.679   1.220   0.446 -0.0387 -0.4804 -0.4476
15622TIP3    H268358   4.713   1.225   0.299  0.0713 -0.6037 -0.4267
15623TIP3   OH268359   2.232   4.258  16.249 -0.1099  0.4098 -0.2939
15623TIP3    H168360   2.152   4.218  16.284 -0.6707  1.6237 -0.1896
15623TIP3    H268361   2.275   4.187  16.200  0.9538 -1.5158  3.2389
15624TIP3   OH268362   2.228   0.074  15.341 -0.6464  0.3454  0.5041
15624TIP3    H168363   2.308   0.022  15.341 -1.0393 -0.4463 -3.1942
15624TIP3    H268364   2.157   0.010  15.343 -1.2110  0.9986  2.5877
15625TIP3   OH268365   5.010   5.231   1.676 -0.2670  0.5269  0.4436
15625TIP3    H168366   4.997   5.260   1.585 -1.9529  2.8547  1.3793
15625TIP3    H268367   4.952   5.155   1.685  0.3920 -0.1134 -0.5888
15626TIP3   OH268368   3.722   3.517  11.071 -0.2377  0.5261  0.3432
15626TIP3    H168369   3.715   3.595  11.017  0.2477 -0.1083 -0.6543
15626TIP3    H268370   3.787   3.463  11.026 -1.6996 -1.1260  0.1772
15627TIP3   OH268371   4.463   2.198  17.222  0.8847 -0.3146 -0.5787
15627TIP3    H168372   4.428   2.184  17.310  0.1688 -0.7181 -0.9207
15627TIP3    H268373   4.439   2.288  17.201 -0.2245 -0.6750 -0.9202
15628TIP3   OH268374   4.049   6.319  13.653  0.1811 -0.7854 -0.2182
15628TIP3    H168375   3.962   6.322  13.693  0.5531 -0.5462  0.5838
15628TIP3    H268376   4.050   6.393  13.593  0.6269  0.5960  1.4519
15629TIP3   OH268377   4.113   4.814   4.150  0.1008 -0.0231 -0.1768
15629TIP3    H168378   4.050   4.759   4.196 -0.0239  0.7587  0.6038
15629TIP3    H268379   4.066   4.843   4.072 -0.0178 -0.5765 -0.3134
15630TIP3   OH268380   6.568   2.814  16.643  0.7542  0.8221  0.0664
15630TIP3    H168381   6.524   2.852  16.719  2.1871  2.4345  0.1283
15630TIP3    H268382   6.530   2.859  16.568  0.9601  0.8741 -0.0061
15631TIP3   OH268383   0.507   3.085  11.557 -0.3657 -0.4737 -0.4505
15631TIP3    H168384   0.412   3.081  11.561 -0.4091  0.9270  0.4075
15631TIP3    H268385   0.529   3.167  11.601  1.1952 -0.4279 -1.2723
15632TIP3   OH268386   1.145   4.031   3.703  0.0429 -0.0343 -0.2967
15632TIP3    H168387   1.238   4.053   3.710 -0.3021  1.1666  0.7460
15632TIP3    H268388   1.107   4.104   3.655 -0.8170  0.8589  1.6707
15633TIP3   OH268389   5.154   4.431   4.670  0.0365  0.0855  0.1576
15633TIP3    H168390   5.249   4.429   4.661 -0.0813 -1.9731 -0.8525
15633TIP3    H268391   5.138   4.423   4.764  0.8568  0.7517  0.3600
15634TIP3   OH268392   5.315   5.509   5.419 -0.0700  0.4987 -0.6682
15634TIP3    H168393   5.264   5.565   5.477 -0.6585 -1.9709  1.3125
15634TIP3    H268394   5.266   5.508   5.337 -0.6087  1.9902 -0.3740
15635TIP3   OH268395   5.853   0.552   0.492  0.3391 -0.4451 -0.6420
15635TIP3    H168396   5.829   0.624   0.433  1.5058  0.8062  0.3743
15635TIP3    H268397   5.931   0.514   0.452 -0.8947 -1.8873 -1.7608
15636TIP3   OH268398   2.873   5.996  16.002 -0.2108  0.1893  0.0554
15636TIP3    H168399   2.836   6.073  15.960 -0.4919 -1.5017 -2.9774
15636TIP3    H268400   2.799   5.937  16.015  0.2821 -0.3155  0.6632
15637TIP3   OH268401   4.890   5.811   4.591 -0.4183 -0.0114  0.2505
15637TIP3    H168402   4.845   5.868   4.529 -0.9527 -1.8659 -1.1333
15637TIP3    H268403   4.821   5.773   4.645 -0.0196  1.0204  1.5077
15638TIP3   OH268404   3.507   2.730  15.507 -0.0239  0.0246  0.5359
15638TIP3    H168405   3.511   2.809  15.452  0.6898 -0.1341  0.3447
15638TIP3    H268406   3.527   2.761  15.595  1.3562 -0.0905  0.2853
15639TIP3   OH268407   1.993   2.305  13.223 -0.2390 -0.7005 -0.3891
15639TIP3    H168408   2.021   2.323  13.313  1.1246  3.2864 -1.5039
15639TIP3    H268409   1.898   2.311  13.225 -0.2443 -1.1696  0.8937
15640TIP3   OH268410   5.860   4.877  16.260  0.4031  0.1320  0.2763
15640TIP3    H168411   5.909   4.796  16.276  0.8555  0.1353 -1.0348
15640TIP3    H268412   5.920   4.933  16.212 -0.4105  0.6859 -0.1166
15641TIP3   OH268413   1.771   5.909  15.703  0.1912  0.5573  0.3727
15641TIP3    H168414   1.709   5.836  15.709  0.0549  0.5447 -0.9810
15641TIP3    H268415   1.717   5.983  15.674  0.0265  1.6136  3.2042
15642TIP3   OH268416   3.308   3.456  13.833 -0.2755  0.5171 -0.3828
15642TIP3    H168417   3.356   3.377  13.858 -0.9693  0.9665  2.6605
15642TIP3    H268418   3.245   3.426  13.768  0.8372 -1.0125 -0.8035
15643TIP3   OH268419   0.284   3.462  12.633  0.5667  0.1922 -0.1890
15643TIP3    H168420   0.357   3.469  12.571 -0.6518  0.3172 -1.6618
15643TIP3    H268421   0.299   3.531  12.697  3.1365 -1.4603  1.0764
15644TIP3   OH268422   3.552   3.172  11.235  0.1530 -0.6701 -0.7415
15644TIP3    H168423   3.567   3.188  11.141  0.7463 -2.2132 -0.9169
15644TIP3    H268424   3.456   3.170  11.243  0.0704  0.6981 -1.0823
15645TIP3   OH268425   1.872   3.460  10.970  0.3665 -0.1477 -0.4220
15645TIP3    H168426   1.831   3.476  10.885 -0.1137 -1.1296 -0.3854
15645TIP3    H268427   1.949   3.517  10.970  1.3105 -1.3414 -2.2223
15646TIP3   OH268428   2.957   4.600   2.963 -0.2650  0.3046  0.4773
15646TIP3    H168429   2.937   4.670   2.901 -1.3386 -0.4646 -0.0533
15646TIP3    H268430   3.040   4.627   3.003 -0.6046  1.8218  0.1980
15647TIP3   OH268431   1.376   1.962   0.520  0.5035  0.1007  0.1284
15647TIP3    H168432   1.420   1.984   0.602 -1.0620  1.2223  0.7032
15647TIP3    H268433   1.324   1.885   0.540 -0.9277  1.1568  0.5991
15648TIP3   OH268434   4.138   3.711   1.397 -0.2520 -0.6417  0.1552
15648TIP3    H168435   4.112   3.689   1.308 -1.5308  1.5556 -0.0604
15648TIP3    H268436   4.217   3.764   1.387 -0.3829 -0.4105  0.3246
15649TIP3   OH268437   0.012   6.533  16.761 -0.0586  0.3837 -0.1704
15649TIP3    H168438  -0.018   6.442  16.762 -1.0950  0.6818 -1.7469
15649TIP3    H268439   0.013   6.558  16.853  1.0946 -1.4876  0.3583
15650TIP3   OH268440   5.383   5.691   1.245 -0.0987 -0.0737  0.2284
15650TIP3    H168441   5.440   5.748   1.297 -2.5549 -0.2576  3.2881
15650TIP3    H268442   5.392   5.605   1.286 -2.3027 -0.1574  0.5881
15651TIP3   OH268443   4.167   2.873  13.494 -0.3139 -0.0049 -0.4647
15651TIP3    H168444   4.191   2.934  13.564 -2.6442  0.6657 -0.2118
15651TIP3    H268445   4.099   2.817  13.533  1.2999 -2.3543 -0.9080
15652TIP3   OH268446   1.645   5.144  12.391  0.0557 -0.2490 -0.2485
15652TIP3    H168447   1.599   5.203  12.451 -0.2509 -0.3383 -0.4006
15652TIP3    H268448   1.646   5.060  12.436 -0.6851 -0.4586 -0.6257
15653TIP3   OH268449   5.316   1.491  11.841  0.6338  0.2090 -0.3469
15653TIP3    H168450   5.369   1.486  11.921  1.5960 -0.8624 -1.0355
15653TIP3    H268451   5.258   1.565  11.855  2.0614  1.1663  0.5746
15654TIP3   OH268452   0.046   5.310   2.889 -0.2609  0.0919 -0.3886
15654TIP3    H168453  -0.038   5.263   2.881  0.5377 -1.4292 -0.0142
15654TIP3    H268454   0.082   5.309   2.800 -0.7164  0.8825 -0.5800
15655TIP3   OH268455   1.876   4.685   5.162 -0.3356 -0.5308  0.1552
15655TIP3    H168456   1.930   4.723   5.231 -1.7105  0.8373  0.4917
15655TIP3    H268457   1.923   4.605   5.136  0.2767 -0.9826  2.5507
15656TIP3   OH268458   4.350   0.719  16.392 -0.0751 -1.2189  0.8229
15656TIP3    H168459   4.418   0.659  16.425  1.8018  1.0144  1.1051
15656TIP3    H268460   4.276   0.705  16.451  0.1973 -3.5068  0.6734
15657TIP3   OH268461   6.778   0.207   4.279  0.3115 -0.1156  0.2692
15657TIP3    H168462   6.752   0.157   4.357 -1.9828 -1.3044 -1.1927
15657TIP3    H268463   6.697   0.248   4.249  1.2628  0.7108 -1.2168
15658TIP3   OH268464   3.401   4.144   0.118 -0.0894 -0.5503 -0.0436
15658TIP3    H168465   3.364   4.073   0.171  2.3105 -0.1921  2.2119
15658TIP3    H268466   3.496   4.133   0.127  0.3268  1.2285 -2.0088
15659TIP3   OH268467   3.731   4.963  16.895  0.3654 -0.1776 -0.0739
15659TIP3    H168468   3.694   5.025  16.832  0.9578  0.9057  0.6172
15659TIP3    H268469   3.773   4.896  16.841  0.1996  0.3238 -0.8339
15660TIP3   OH268470   1.151   5.881  14.229 -0.2981 -0.3659  0.4066
15660TIP3    H168471   1.197   5.805  14.194  0.5650  0.1345  0.4431
15660TIP3    H268472   1.128   5.856  14.319 -0.6281 -0.8417  0.1900
15661TIP3   OH268473   2.087   4.539   1.310  0.0611  0.1610  0.0403
15661TIP3    H168474   2.150   4.536   1.238 -2.9979  0.4214 -2.8075
15661TIP3    H268475   2.050   4.627   1.306 -0.9613 -0.1965  1.1881
15662TIP3   OH268476   4.302   3.702  13.586  0.5448 -0.1608  0.6652
15662TIP3    H168477   4.274   3.619  13.547  1.8868 -0.8292  1.0607
15662TIP3    H268478   4.282   3.768  13.520 -0.2018 -0.8556  0.1934
15663TIP3   OH268479   1.280   1.164   5.409  0.5110  0.5121 -0.2473
15663TIP3    H168480   1.344   1.094   5.427  2.1963  1.8847 -0.7395
15663TIP3    H268481   1.274   1.212   5.491 -1.3271 -0.7048  0.3642
15664TIP3   OH268482   2.179   3.772  16.920 -0.0661  0.3365  0.3104
15664TIP3    H168483   2.213   3.841  16.977  0.3788  2.2709 -2.2458
15664TIP3    H268484   2.251   3.708  16.915  0.9982  1.5687 -0.3839
15665TIP3   OH268485   2.170   6.484   2.483 -0.0230  0.5205 -0.2280
15665TIP3    H168486   2.075   6.491   2.472 -0.0406  1.9756  0.7532
15665TIP3    H268487   2.196   6.417   2.420 -1.6628  0.2987 -0.7010
15666TIP3   OH268488   2.380   2.498  10.564 -1.2301 -0.1160  0.2480
15666TIP3    H168489   2.289   2.497  10.535 -0.9584 -1.7574 -0.5514
15666TIP3    H268490   2.431   2.483  10.485 -0.1811  1.8528  0.5047
15667TIP3   OH268491   4.379   1.328   5.517 -0.1952  0.2702  0.1092
15667TIP3    H168492   4.443   1.368   5.577  2.7270 -0.7796 -2.1576
15667TIP3    H268493   4.368   1.239   5.549 -0.2318  0.3564  0.3318
15668TIP3   OH268494   0.155   5.923   2.887 -0.0463 -0.0731 -0.2078
15668TIP3    H168495   0.097   5.847   2.882 -0.1126  0.0274 -0.9888
15668TIP3    H268496   0.133   5.975   2.810 -2.2958  2.3698  1.9758
15669TIP3   OH268497   4.852   1.677   4.294 -0.2905  0.2422 -0.2123
15669TIP3    H168498   4.915   1.739   4.332  0.5409  0.3698 -1.7517
15669TIP3    H268499   4.785   1.666   4.362  1.2180  0.3575  1.3425
15670TIP3   OH268500   2.493   1.831   1.540 -0.1586  0.2155  0.0276
15670TIP3    H168501   2.453   1.896   1.482 -1.3290 -1.3860 -0.9919
15670TIP3    H268502   2.573   1.873   1.572 -1.0792  2.2799 -0.3284
15671TIP3   OH268503   6.660   4.033   6.181  0.1155  0.3182 -0.1268
15671TIP3    H168504   6.567   4.050   6.172 -0.2195 -0.7007  1.1763
15671TIP3    H268505   6.665   3.941   6.208  1.5021  0.2736 -0.5022
15672TIP3   OH268506   6.174   3.361   0.012 -0.5696  0.0487 -0.6430
15672TIP3    H168507   6.123   3.300  -0.041  0.9485 -0.8211 -1.1426
15672TIP3    H268508   6.232   3.404  -0.051 -0.1638  0.4820  0.0235
15673TIP3   OH268509   4.202   1.233   5.204 -0.0181 -0.4299 -0.2667
15673TIP3    H168510   4.232   1.158   5.255  0.6056  0.3264  0.5047
15673TIP3    H268511   4.282   1.277   5.176 -0.3579  1.4291  1.5471
15674TIP3   OH268512   2.130   6.750  10.749  0.1820  0.0591 -0.1840
15674TIP3    H168513   2.124   6.841  10.776  0.6764  0.3908 -1.1571
15674TIP3    H268514   2.049   6.734  10.700 -0.7809 -0.5831  1.5719
15675TIP3   OH268515   6.265   0.979   1.149  0.0147 -0.6737 -1.0043
15675TIP3    H168516   6.236   1.013   1.064  0.1498 -0.4035 -0.9434
15675TIP3    H268517   6.260   0.884   1.140 -1.7959 -0.6289 -0.6973
15676TIP3   OH268518   0.420   0.504   4.175 -0.0359 -1.0302  0.1536
15676TIP3    H168519   0.352   0.436   4.168 -0.2116 -0.8532  0.1305
15676TIP3    H268520   0.371   0.586   4.180  0.1743 -0.9153  0.3257
15677TIP3   OH268521   5.567   0.738  16.532  0.1712 -0.2143 -0.0613
15677TIP3    H168522   5.614   0.753  16.450  0.2740  0.4911  0.1226
15677TIP3    H268523   5.631   0.756  16.600 -0.0006 -0.5060  0.1777
15678TIP3   OH268524   0.417   4.767   3.051 -0.2638  0.5762  0.3264
15678TIP3    H168525   0.482   4.727   2.993 -0.3385 -1.2268  1.4529
15678TIP3    H268526   0.446   4.858   3.060  2.5460 -0.3411  1.3364
15679TIP3   OH268527   5.628   0.682  10.323 -0.1677 -0.3160  0.3498
15679TIP3    H168528   5.546   0.720  10.353 -0.3482 -1.1226  0.8927
15679TIP3    H268529   5.668   0.750  10.269 -1.3654 -0.0603 -0.2228
15680TIP3   OH268530   6.497   4.150  17.198  0.2280  0.0004  0.2663
15680TIP3    H168531   6.579   4.136  17.245  0.1126 -0.4348  0.3484
15680TIP3    H268532   6.441   4.077  17.227  0.3373 -0.5784 -0.9567
15681TIP3   OH268533   3.074   0.276   2.319  0.0800 -0.0178  0.4969
15681TIP3    H168534   3.165   0.286   2.350 -0.1619 -0.4896  1.3946
15681TIP3    H268535   3.028   0.352   2.356 -0.3601 -0.9487  1.9134
15682TIP3   OH268536   3.765   5.703   2.494 -0.1278 -0.8096  0.4729
15682TIP3    H168537   3.747   5.677   2.403 -0.2033 -0.5635  0.4191
15682TIP3    H268538   3.687   5.751   2.522  0.7305  0.8951  0.0032
15683TIP3   OH268539   6.678   2.655  14.912 -0.0929 -0.1818 -0.3138
15683TIP3    H168540   6.705   2.719  14.846  0.6421 -0.1971 -0.0389
15683TIP3    H268541   6.636   2.585  14.862 -1.6407  0.9016 -0.5237
15684TIP3   OH268542   2.279   0.711  16.381 -0.4606 -0.0332 -0.1795
15684TIP3    H168543   2.285   0.635  16.439 -0.8209 -0.5736 -0.8541
15684TIP3    H268544   2.275   0.675  16.293  1.4195  0.8155 -0.6429
15685TIP3   OH268545   1.685   4.272  16.989  0.5948  0.0208  0.2738
15685TIP3    H168546   1.672   4.274  17.084 -2.2619 -0.0853 -0.0877
15685TIP3    H268547   1.724   4.186  16.972  0.6404 -0.1624  1.2933
15686TIP3   OH268548   6.703   1.199   2.595  0.0164  0.0940  0.0471
15686TIP3    H168549   6.781   1.176   2.646  0.9866  1.2421 -0.8943
15686TIP3    H268550   6.727   1.183   2.504 -1.1269 -0.2928 -0.2038
15687TIP3   OH268551   5.540   2.918   0.340  0.3689 -0.0676 -0.2128
15687TIP3    H168552   5.459   2.871   0.320  0.2015  0.7146 -1.4641
15687TIP3    H268553   5.590   2.915   0.258  0.8875  0.8339  0.0694
15688TIP3   OH268554   6.084   0.528   3.465  0.5031 -0.5071  0.0552
15688TIP3    H168555   6.114   0.519   3.555  0.1879 -1.7965  0.0442
15688TIP3    H268556   6.116   0.449   3.421  0.9576  0.2861 -1.0427
15689TIP3   OH268557   2.597   6.233   1.961  0.3886  0.0502 -0.2921
15689TIP3    H168558   2.646   6.164   2.005  0.2641  0.1199 -0.0401
15689TIP3    H268559   2.606   6.214   1.868  3.3088  1.6538 -0.4020
15690TIP3   OH268560   3.354   5.362  11.257 -0.3630 -0.3187 -0.1093
15690TIP3    H168561   3.389   5.314  11.332 -2.4688  0.1273  1.1753
15690TIP3    H268562   3.353   5.453  11.285  0.8992  0.1316 -1.4950
15691TIP3   OH268563   2.545   5.545  16.218  0.3833  0.1618  0.3631
15691TIP3    H168564   2.494   5.561  16.297 -2.6012  0.0722 -1.4973
15691TIP3    H268565   2.520   5.457  16.190 -0.0767  0.9541 -1.7694
15692TIP3   OH268566   2.057   2.016  12.403  0.1019  0.4419  0.2957
15692TIP3    H168567   2.038   2.091  12.459 -0.4446  1.6574 -1.4590
15692TIP3    H268568   2.151   2.022  12.385 -0.3286  1.9373 -1.5421
15693TIP3   OH268569   1.137   0.872   6.611  0.2695 -0.5426 -0.0058
15693TIP3    H168570   1.140   0.920   6.694 -2.8025 -1.6302  0.8055
15693TIP3    H268571   1.055   0.824   6.615  1.5128 -2.9504 -2.4320
15694TIP3   OH268572   4.594   1.949  16.031 -0.0900  0.1068 -0.0845
15694TIP3    H168573   4.602   1.979  15.940  0.8092  0.5109  0.1207
15694TIP3    H268574   4.581   2.029  16.082 -1.8534 -0.2231  0.0157
15695TIP3   OH268575   5.326   0.635   6.020  0.1250 -0.6366 -0.2582
15695TIP3    H168576   5.285   0.596   6.098  0.1001 -1.4023 -0.6480
15695TIP3    H268577   5.419   0.619   6.031  0.4604  2.0976  1.1769
15696TIP3   OH268578   5.631   5.105  11.405  0.7648 -0.2289 -0.6958
15696TIP3    H168579   5.574   5.050  11.459  0.2853 -0.5580 -1.5224
15696TIP3    H268580   5.633   5.061  11.320  0.5444  0.9171 -1.3024
15697TIP3   OH268581   0.622   3.912   0.974 -0.2094 -1.0135  0.2822
15697TIP3    H168582   0.665   3.909   1.059  0.0784 -1.3066  0.1266
15697TIP3    H268583   0.648   3.830   0.931  0.0368 -0.6426 -0.2789
15698TIP3   OH268584   6.413   5.954   4.401 -0.4898  0.1852  0.0956
15698TIP3    H168585   6.356   5.877   4.410 -0.0484 -0.1760 -0.1637
15698TIP3    H268586   6.486   5.923   4.347  0.1597  0.5370  0.7713
15699TIP3   OH268587   2.758   5.014   0.004 -0.8185  0.4946 -0.2854
15699TIP3    H168588   2.701   5.062   0.064  0.3301  1.1903  0.2589
15699TIP3    H268589   2.827   5.076  -0.019  0.0177 -0.5086 -0.5203
15700TIP3   OH268590   1.625   5.670  15.559  0.6338  0.0205 -0.2339
15700TIP3    H168591   1.615   5.691  15.466 -1.8050 -2.8249 -0.6912
15700TIP3    H268592   1.719   5.661  15.572  1.0268  1.0255 -2.2994
15701TIP3   OH268593   2.696   0.448  11.621 -0.3066  0.0243  0.3503
15701TIP3    H168594   2.661   0.382  11.560  2.6453 -0.2720 -1.1050
15701TIP3    H268595   2.672   0.416  11.708 -1.3768 -1.4785 -0.4772
15702TIP3   OH268596   4.086   4.438   1.178 -0.1045  0.4070 -0.1150
15702TIP3    H168597   4.120   4.516   1.223 -0.0143  1.3000 -1.6904
15702TIP3    H268598   4.036   4.473   1.105 -1.2046 -1.0092 -0.0431
15703TIP3   OH268599   0.463   3.685   3.056  0.1061  0.0065  0.2465
15703TIP3    H168600   0.445   3.770   3.016  1.2788  0.8298  1.4368
15703TIP3    H268601   0.558   3.685   3.070 -0.1643 -0.6086  2.2141
15704TIP3   OH268602   5.122   1.406   0.991  0.1993  0.1239  0.0776
15704TIP3    H168603   5.040   1.444   0.959 -0.3259 -0.8805  0.2015
15704TIP3    H268604   5.160   1.475   1.045  1.9317  2.4929 -3.9651
15705TIP3   OH268605   6.297   5.479   2.749  0.0114  0.3527  0.5700
15705TIP3    H168606   6.345   5.559   2.773  0.0233  0.9316 -1.2742
15705TIP3    H268607   6.227   5.510   2.691  2.3089 -1.3097 -3.3203
15706TIP3   OH268608   4.617   6.765   3.085 -0.1266 -0.0299 -0.0108
15706TIP3    H168609   4.648   6.842   3.036 -0.4303 -0.8328 -1.4946
15706TIP3    H268610   4.525   6.757   3.060 -0.2474 -0.5199  0.6034
15707TIP3   OH268611   5.480   1.931   3.829 -0.6531 -0.9473  0.3670
15707TIP3    H168612   5.501   1.919   3.736 -0.1047 -1.5427  0.5670
15707TIP3    H268613   5.556   1.975   3.866 -0.4292 -1.6509  0.7532
15708TIP3   OH268614   6.684   5.727   5.045  0.3508  0.0867  0.7377
15708TIP3    H168615   6.672   5.633   5.051  0.9632  0.0100  0.7172
15708TIP3    H268616   6.650   5.761   5.128 -0.3455 -0.1028  0.5324
15709TIP3   OH268617   1.933   2.062   5.545  0.0690 -0.3244 -0.0464
15709TIP3    H168618   1.860   2.098   5.495  1.0376  0.6896 -0.7524
15709TIP3    H268619   1.989   2.137   5.563  1.0190 -1.1169  0.3632
15710TIP3   OH268620   3.165   3.465  12.449 -0.4297 -0.0886 -0.1738
15710TIP3    H168621   3.104   3.525  12.491 -1.5887 -0.7777 -0.8407
15710TIP3    H268622   3.119   3.434  12.371 -0.4362 -2.9330  0.9076
15711TIP3   OH268623   0.623   6.371   1.456 -0.8416  0.1557  0.5436
15711TIP3    H168624   0.634   6.295   1.399 -2.3223 -0.5353  1.1519
15711TIP3    H268625   0.687   6.434   1.424 -0.8995 -0.6269 -1.1899
15712TIP3   OH268626   3.097   5.567   3.423 -0.4616  0.0719 -0.1990
15712TIP3    H168627   3.118   5.503   3.491 -1.3587 -1.0646 -0.9974
15712TIP3    H268628   3.024   5.530   3.376 -1.5143  2.0434 -0.1889
15713TIP3   OH268629   6.811   2.242   0.168  0.1450 -0.2820 -0.1400
15713TIP3    H168630   6.868   2.182   0.216  0.6273  0.1868 -0.1274
15713TIP3    H268631   6.858   2.259   0.086  0.5621  0.9830  0.3430
15714TIP3   OH268632   2.570   2.707   2.005 -0.2610  0.1767 -0.3541
15714TIP3    H168633   2.630   2.649   2.052 -0.6661 -0.1045 -0.1824
15714TIP3    H268634   2.570   2.674   1.915  2.3862  2.1757 -1.1686
15715TIP3   OH268635   4.798   2.632  16.911 -0.7030  0.1974 -0.7065
15715TIP3    H168636   4.824   2.662  16.823  1.8448  0.9314  0.2372
15715TIP3    H268637   4.821   2.539  16.912 -0.1203  0.3348 -0.6322
15716TIP3   OH268638   5.998   2.439   4.194 -0.0792 -0.7804 -0.2072
15716TIP3    H168639   6.026   2.490   4.117  0.0883 -0.6918 -0.0901
15716TIP3    H268640   5.982   2.351   4.160  2.7505 -1.4763  0.1547
15717TIP3   OH268641   6.539   1.367  14.189 -0.4526 -0.5681  0.0357
15717TIP3    H168642   6.473   1.359  14.120 -1.1636 -0.7058  0.7191
15717TIP3    H268643   6.491   1.352  14.270  0.4920 -1.0334  0.5240
15718TIP3   OH268644   0.494   4.095  15.352  0.2877  0.4729 -0.6661
15718TIP3    H168645   0.571   4.043  15.332 -0.6023 -1.1833  0.0469
15718TIP3    H268646   0.518   4.145  15.430  1.6709  2.3458 -2.2446
15719TIP3   OH268647   4.405   4.170   3.342  0.2291  0.3401 -0.0236
15719TIP3    H168648   4.372   4.081   3.328  0.7641 -0.1359  1.6194
15719TIP3    H268649   4.484   4.175   3.288 -1.0333  0.6030 -1.9023
15720TIP3   OH268650   4.719   2.664  11.713  0.6459 -0.1254  0.1903
15720TIP3    H168651   4.631   2.642  11.684  0.1813  1.3471  0.4445
15720TIP3    H268652   4.717   2.654  11.808  0.7239  0.0063  0.2057
15721TIP3   OH268653   5.317   2.741   3.082  0.2368  0.3641 -0.4310
15721TIP3    H168654   5.333   2.735   3.177  2.0845  0.2862 -0.7272
15721TIP3    H268655   5.224   2.762   3.075 -0.5614 -2.2580  1.3431
15722TIP3   OH268656   0.642   2.460   3.596 -0.0866 -0.2943  0.2113
15722TIP3    H168657   0.649   2.543   3.549 -2.2207 -0.0895  0.2334
15722TIP3    H268658   0.706   2.402   3.553  0.0772  0.7825 -1.0066
15723TIP3   OH268659   6.166   0.670  12.684 -0.8168  0.2894  0.2818
15723TIP3    H168660   6.187   0.577  12.676  0.6327  0.4751  1.7531
15723TIP3    H268661   6.104   0.674  12.758  0.1357  0.6234  1.0732
15724TIP3   OH268662   5.856   6.756  12.925 -0.0075  0.0252  0.6599
15724TIP3    H168663   5.840   6.850  12.933 -0.4768 -0.1731  2.3122
15724TIP3    H268664   5.803   6.728  12.851  0.3177  1.0931  0.0111
15725TIP3   OH268665   2.940   5.701  12.916 -0.5485 -0.1827 -0.1351
15725TIP3    H168666   2.868   5.668  12.863 -1.9533 -3.5679  3.5957
15725TIP3    H268667   2.897   5.750  12.987  0.8417 -1.0231  1.3235
15726TIP3   OH268668   1.854   0.748  17.182 -0.2344  0.1496  0.2881
15726TIP3    H168669   1.850   0.730  17.088  2.3582  1.8166 -0.1966
15726TIP3    H268670   1.832   0.841  17.189  3.7831  1.1720  0.7902
15727TIP3   OH268671   1.967   1.908   1.914 -0.3720 -0.7872  0.3628
15727TIP3    H168672   1.926   1.994   1.926 -0.5998 -0.8980  0.3698
15727TIP3    H268673   2.036   1.905   1.981  0.5044 -0.0702 -0.4885
15728TIP3   OH268674   3.425   3.075   0.454 -0.2071  0.1375 -0.4112
15728TIP3    H168675   3.493   3.112   0.511 -1.8612 -0.2373  1.8855
15728TIP3    H268676   3.442   2.980   0.455 -1.8803 -0.1883  1.7875
15729TIP3   OH268677   4.797   1.778  14.968  1.0207  0.0554 -0.3264
15729TIP3    H168678   4.782   1.716  15.040 -0.4335 -0.1667 -0.8076
15729TIP3    H268679   4.828   1.857  15.011  0.2098 -0.0944  0.5512
15730TIP3   OH268680   2.952   0.031   1.052 -0.4630  0.3576  0.4934
15730TIP3    H168681   3.037  -0.003   1.079  0.0582 -1.0697 -2.6912
15730TIP3    H268682   2.973   0.094   0.983 -1.9861 -0.0337 -0.3390
15731TIP3   OH268683   6.003   6.340   2.190  0.4805  0.3398 -0.0398
15731TIP3    H168684   6.063   6.390   2.246 -0.9935  0.7148  1.2535
15731TIP3    H268685   6.029   6.249   2.203 -0.0035  0.4021  1.4877
15732TIP3   OH268686   3.542   3.218  10.956  0.5874  0.6293 -0.0640
15732TIP3    H168687   3.564   3.157  10.886  0.5205  0.0515  0.4232
15732TIP3    H268688   3.516   3.298  10.910  2.2374  0.8294 -0.6727
15733TIP3   OH268689   5.546   5.586  14.479  0.6845 -0.0489  0.2139
15733TIP3    H168690   5.466   5.543  14.449 -0.1210  1.5625 -0.0245
15733TIP3    H268691   5.527   5.611  14.570  0.7959  0.5864  0.0687
15734TIP3   OH268692   5.130   2.594  15.408  0.6334  0.4232  0.4702
15734TIP3    H168693   5.045   2.620  15.372  0.3721  0.4239  1.0731
15734TIP3    H268694   5.157   2.669  15.461  0.5723  0.0564  1.0270
15735TIP3   OH268695   5.152   6.142  16.790 -0.7199  0.2229 -0.1062
15735TIP3    H168696   5.107   6.057  16.799  0.6223 -0.4410  0.4070
15735TIP3    H268697   5.230   6.122  16.738 -0.3407  1.1255  0.1207
15736TIP3   OH268698   3.883   4.073  16.300  0.0906 -0.3736  0.0286
15736TIP3    H168699   3.825   4.047  16.228  2.2409  0.1099 -1.9630
15736TIP3    H268700   3.931   4.148  16.265  0.7219  0.2719  2.2419
15737TIP3   OH268701   4.259   5.188  12.815  0.0958 -0.8577 -0.3834
15737TIP3    H168702   4.196   5.118  12.799 -0.8687 -0.4973  1.6772
15737TIP3    H268703   4.343   5.143  12.824 -0.3335 -1.6387 -0.2094
15738TIP3   OH268704   3.628   0.231  13.772 -0.2295 -0.3639  0.2721
15738TIP3    H168705   3.646   0.220  13.679  0.9908 -0.5793  0.5317
15738TIP3    H268706   3.713   0.224  13.814 -0.2677  3.2732  1.1202
15739TIP3   OH268707   4.957   5.963   0.070  0.3138 -0.1082  0.0846
15739TIP3    H168708   4.956   5.868   0.058  1.1848 -0.0308 -0.6450
15739TIP3    H268709   4.874   5.983   0.114 -0.4895 -1.0404 -0.9948
15740TIP3   OH268710   5.367   0.850   1.838 -0.3888 -0.1489 -0.1883
15740TIP3    H168711   5.307   0.921   1.817 -0.7014  0.2764  2.0372
15740TIP3    H268712   5.417   0.836   1.758 -1.7272  1.1901 -1.2754
15741TIP3   OH268713   5.952   1.040   5.690  0.4262  0.3177  0.1648
15741TIP3    H168714   6.016   1.111   5.681 -1.1933  2.0011  1.5728
15741TIP3    H268715   5.950   1.022   5.784  0.5270 -1.3505 -0.1354
15742TIP3   OH268716   2.089   6.497  12.831 -0.0636 -0.2711 -0.1924
15742TIP3    H168717   2.155   6.551  12.874 -0.1986 -1.1194  1.1107
15742TIP3    H268718   2.102   6.410  12.868 -1.5919 -0.5501 -0.2786
15743TIP3   OH268719   4.698   5.867   0.624  0.2517 -0.1337  0.0188
15743TIP3    H168720   4.785   5.832   0.643  0.5738  1.2831  1.2541
15743TIP3    H268721   4.638   5.795   0.646  1.0097 -0.5996  0.6011
15744TIP3   OH268722   0.449   3.964   5.637 -0.3830  0.7060  0.3385
15744TIP3    H168723   0.540   3.993   5.631 -0.2515  0.5669  1.6004
15744TIP3    H268724   0.397   4.044   5.624 -0.0898  0.7701 -0.4630
15745TIP3   OH268725   6.455   3.374  15.779 -0.3381 -0.0749 -0.3678
15745TIP3    H168726   6.414   3.317  15.844 -0.2185 -0.3479 -0.5330
15745TIP3    H268727   6.540   3.335  15.762  0.7287  1.4607  1.2797
15746TIP3   OH268728   2.987   1.753  14.367  0.0183 -0.1810 -0.5514
15746TIP3    H168729   3.023   1.729  14.453  0.0358 -1.9568 -1.0395
15746TIP3    H268730   2.892   1.757  14.381  0.1164  0.8490 -0.1419
15747TIP3   OH268731   2.397   6.649   2.846 -0.5797  0.3069 -0.2766
15747TIP3    H168732   2.471   6.622   2.900  0.1767 -0.4554 -1.6555
15747TIP3    H268733   2.347   6.569   2.832 -1.1440  0.6339 -0.1541
15748TIP3   OH268734   3.542   3.313  16.371  0.0150  0.0258  0.5150
15748TIP3    H168735   3.580   3.401  16.378  0.1463  0.0719 -0.7052
15748TIP3    H268736   3.577   3.266  16.447  0.7701  0.7169  0.6042
15749TIP3   OH268737   3.728   1.229   1.705 -0.1132 -0.4413  0.1171
15749TIP3    H168738   3.663   1.299   1.710 -0.6500 -0.8661 -0.8003
15749TIP3    H268739   3.723   1.186   1.791 -0.8502 -0.2963  0.1554
15750TIP3   OH268740   0.182   3.317   0.348 -0.0261 -0.7568 -0.0796
15750TIP3    H168741   0.130   3.308   0.429 -2.2772 -0.1382 -1.4129
15750TIP3    H268742   0.185   3.228   0.313 -0.0880 -0.8117  0.0499
15751TIP3   OH268743   0.627   2.932   3.805 -0.0238 -0.0507 -1.1983
15751TIP3    H168744   0.581   2.953   3.723 -1.1681 -2.0646 -1.1302
15751TIP3    H268745   0.558   2.931   3.871  0.5259 -0.6603 -0.6280
15752TIP3   OH268746   1.836   0.112   5.040  0.2076 -0.1946 -0.2582
15752TIP3    H168747   1.929   0.132   5.043  0.1545  0.1478 -0.8107
15752TIP3    H268748   1.802   0.164   4.967 -0.2688 -0.9164 -0.5611
15753TIP3   OH268749   0.202   0.494   6.579  0.3763 -0.4189 -0.3207
15753TIP3    H168750   0.234   0.404   6.573  0.7133 -0.3440  0.2798
15753TIP3    H268751   0.198   0.512   6.673  0.0657  0.1068 -0.4308
15754TIP3   OH268752   0.320   1.339  11.094 -0.4142  0.4538 -0.5790
15754TIP3    H168753   0.360   1.331  11.008 -3.0019 -0.6823 -1.7226
15754TIP3    H268754   0.230   1.366  11.077 -1.0118  0.0698  1.7376
15755TIP3   OH268755   5.096   2.782   3.708  0.1415 -0.3821 -0.0476
15755TIP3    H168756   5.134   2.713   3.653  1.2486  1.1325 -1.1999
15755TIP3    H268757   5.132   2.766   3.795  0.5823 -1.1234 -0.3584
15756TIP3   OH268758   5.872   4.564  16.089  0.7720 -0.3722 -0.1415
15756TIP3    H168759   5.777   4.556  16.080  0.7799 -3.7044  1.6464
15756TIP3    H268760   5.908   4.513  16.016  1.1401 -0.1033 -0.1496
15757TIP3   OH268761   5.638   0.802   5.545 -0.1288  0.0896  0.4911
15757TIP3    H168762   5.725   0.796   5.506 -0.5204  0.2962 -0.4374
15757TIP3    H268763   5.652   0.783   5.638  0.7317 -1.0335  0.1512
15758TIP3   OH268764   1.580   1.500  12.159  0.2123 -0.6212 -0.3578
15758TIP3    H168765   1.518   1.561  12.118  0.5124 -0.9510 -1.3353
15758TIP3    H268766   1.541   1.478  12.243 -1.0734 -0.9544 -1.0290
15759TIP3   OH268767   0.923   0.913  16.601 -0.0836  0.0601 -0.0196
15759TIP3    H168768   1.014   0.919  16.571  0.8380 -0.1099  2.5897
15759TIP3    H268769   0.907   0.996  16.646 -0.7094 -0.5600  0.9024
15760TIP3   OH268770   2.141   0.916  16.011  0.2253  0.4871  0.5581
15760TIP3    H168771   2.132   0.825  15.982 -0.3007  0.2419  1.4668
15760TIP3    H268772   2.202   0.956  15.949  0.6455 -0.5517  0.3024
15761TIP3   OH268773   6.788   2.784  14.486 -0.0830 -0.3430 -0.4368
15761TIP3    H168774   6.716   2.723  14.470  0.1552 -0.4438 -1.1477
15761TIP3    H268775   6.832   2.792  14.401  0.3455  0.2278 -0.1650
15762TIP3   OH268776   4.664   2.620   5.855  0.0944 -0.0480  0.4514
15762TIP3    H168777   4.634   2.709   5.840 -1.9198 -0.8354 -0.2242
15762TIP3    H268778   4.618   2.592   5.934 -1.2575 -1.3875 -0.7938
15763TIP3   OH268779   3.301   4.559  13.255  1.1290 -0.2724  0.1343
15763TIP3    H168780   3.383   4.607  13.239  2.0234 -1.3702  1.2725
15763TIP3    H268781   3.249   4.618  13.309  2.0163 -0.3388  1.0989
15764TIP3   OH268782   6.355   0.747  14.488 -0.1042 -0.2106 -0.0334
15764TIP3    H168783   6.405   0.668  14.509 -1.6864 -0.8682  1.4386
15764TIP3    H268784   6.321   0.776  14.573  0.9546  2.4228 -0.4726
15765TIP3   OH268785   3.276   5.972  13.676 -0.6854 -0.6822 -0.1907
15765TIP3    H168786   3.181   5.965  13.664 -1.0381  2.0202  0.6631
15765TIP3    H268787   3.299   5.896  13.729 -2.1849 -1.9439 -1.2900
15766TIP3   OH268788   4.699   0.287   2.378 -0.3000 -0.0138 -0.2733
15766TIP3    H168789   4.614   0.245   2.386 -0.3766  0.2255  0.1964
15766TIP3    H268790   4.740   0.244   2.303 -1.0864  0.3065 -0.8914
15767TIP3   OH268791   2.224   4.751  14.981 -0.2864  0.4253  0.3207
15767TIP3    H168792   2.181   4.822  14.934 -1.3601  0.2711  1.0449
15767TIP3    H268793   2.272   4.703  14.914 -0.5779  1.0979 -0.3707
15768TIP3   OH268794   0.054   0.481   1.098 -0.0419  0.0010 -0.6612
15768TIP3    H168795  -0.006   0.407   1.094  0.5367 -0.4014 -2.8070
15768TIP3    H268796   0.123   0.453   1.157 -0.7541 -0.4641 -0.0440
15769TIP3   OH268797   6.233   4.716  15.371  0.2026  0.0410 -0.3216
15769TIP3    H168798   6.244   4.646  15.307  1.0767  0.8609 -1.0869
15769TIP3    H268799   6.317   4.762  15.371  0.3464 -0.1647  1.6848
15770TIP3   OH268800   4.851   4.165  13.884  0.2757  0.0379 -0.2450
15770TIP3    H168801   4.768   4.158  13.837  0.6568  0.2700 -0.9725
15770TIP3    H268802   4.845   4.100  13.954 -0.3470 -0.2410 -0.5563
15771TIP3   OH268803   1.316   1.998  16.640  0.0545 -0.2154 -0.2599
15771TIP3    H168804   1.364   1.933  16.589 -0.2323 -1.0198  0.4844
15771TIP3    H268805   1.255   2.037  16.578 -1.9385 -2.8274 -0.0209
15772TIP3   OH268806   3.780   5.366  16.575 -0.0419  0.4340  0.4469
15772TIP3    H168807   3.815   5.281  16.550 -1.7834  0.0069 -0.6427
15772TIP3    H268808   3.854   5.426  16.569  0.9773 -0.8303  0.2876
15773TIP3   OH268809   0.336   2.962   3.029  0.1300  0.0394  0.1388
15773TIP3    H168810   0.276   2.943   2.956  1.0073 -1.3883 -0.2307
15773TIP3    H268811   0.279   2.995   3.099 -0.9746 -0.4535 -0.5107
15774TIP3   OH268812   2.005   0.009  15.843 -0.1413  0.2728  0.0540
15774TIP3    H168813   1.918  -0.009  15.806 -0.1644 -1.3775  0.8888
15774TIP3    H268814   2.053  -0.073  15.833  0.9317  0.8212  0.6777
15775TIP3   OH268815   6.004   2.824   3.445 -0.0947 -0.1991 -0.0765
15775TIP3    H168816   5.950   2.836   3.523 -1.9340 -0.0889 -1.3318
15775TIP3    H268817   6.006   2.910   3.403 -0.7038 -0.6958 -1.1400
15776TIP3   OH268818   2.530   1.365   4.384 -0.1004 -0.4022  0.1537
15776TIP3    H168819   2.491   1.333   4.466  0.5218  0.0625  0.6339
15776TIP3    H268820   2.588   1.436   4.411 -2.6835  2.2700 -1.0614
15777TIP3   OH268821   0.394   5.802  16.231 -0.8586  0.0158 -0.5310
15777TIP3    H168822   0.443   5.754  16.164 -0.5151 -0.3978  0.0143
15777TIP3    H268823   0.336   5.737  16.270  0.0932 -0.1126  0.6727
15778TIP3   OH268824   0.559   6.682   2.424 -0.5227  0.1415 -0.1819
15778TIP3    H168825   0.620   6.742   2.466 -1.4148  0.0656  1.2485
15778TIP3    H268826   0.485   6.737   2.397 -1.1472 -0.2382  0.7427
15779TIP3   OH268827   5.406   4.188   5.112 -0.4493 -0.1207 -0.1077
15779TIP3    H168828   5.436   4.272   5.147  1.7201 -0.8050 -0.2171
15779TIP3    H268829   5.311   4.195   5.110 -0.2460  3.2393 -2.3792
15780TIP3   OH268830   4.657   4.996  17.273 -0.2372  0.5704  0.2047
15780TIP3    H168831   4.684   5.086  17.254 -0.6589  0.7259  0.3292
15780TIP3    H268832   4.733   4.956  17.314  0.5555  0.3333 -1.4800
15781TIP3   OH268833   2.914   0.176   2.035 -0.7515 -0.0456 -0.3183
15781TIP3    H168834   2.993   0.151   1.987 -0.4259  0.6686 -0.1610
15781TIP3    H268835   2.926   0.141   2.123  0.4021  1.9407  0.3545
15782TIP3   OH268836   6.387   1.179   2.218 -0.6702 -0.4215  0.0364
15782TIP3    H168837   6.367   1.185   2.312 -1.0823  0.2909 -0.0914
15782TIP3    H268838   6.416   1.089   2.206 -1.6107 -0.8240  0.6628
15783TIP3   OH268839   4.185   2.675  11.389  0.5534 -0.5407 -0.3103
15783TIP3    H168840   4.225   2.588  11.399  0.5521 -0.8458 -2.7795
15783TIP3    H268841   4.254   2.736  11.418  0.5102 -1.3401  1.5443
15784TIP3   OH268842   5.431   4.498  15.425 -0.1367  0.1650 -0.1534
15784TIP3    H168843   5.483   4.431  15.380  0.7710  0.8200 -0.1002
15784TIP3    H268844   5.354   4.451  15.458 -0.4321 -0.4787 -1.7110
15785TIP3   OH268845   4.640   2.620   3.512 -0.2478 -0.1321 -0.4062
15785TIP3    H168846   4.551   2.646   3.488  0.8218  1.9162 -2.2791
15785TIP3    H268847   4.656   2.663   3.596 -0.2356  1.3306 -1.1490
15786TIP3   OH268848   4.464   1.174   4.072 -0.0987  0.1876 -0.0585
15786TIP3    H168849   4.555   1.201   4.085 -0.0034 -0.5122  0.7492
15786TIP3    H268850   4.447   1.112   4.143 -1.1541  0.1843 -0.3080
15787TIP3   OH268851   2.427   1.953  14.429  0.0985  0.2639  0.0130
15787TIP3    H168852   2.456   2.024  14.371  0.4442 -0.8013 -1.1560
15787TIP3    H268853   2.401   1.997  14.510  1.9632  1.5600 -0.0558
15788TIP3   OH268854   4.768   6.466  14.012  0.1719  0.4994 -0.0341
15788TIP3    H168855   4.812   6.459  13.928  0.4417 -1.2358  0.2299
15788TIP3    H268856   4.825   6.420  14.074 -0.5780  0.7590  0.8709
15789TIP3   OH268857   6.545   2.445   5.723  0.0659  0.0670 -0.0658
15789TIP3    H168858   6.533   2.467   5.631  0.4754  0.4764 -0.0215
15789TIP3    H268859   6.493   2.510   5.770 -0.5890 -0.4747 -0.0224
15790TIP3   OH268860   6.807   0.448   6.243 -0.4560  0.4984 -0.3850
15790TIP3    H168861   6.718   0.417   6.225  0.4957 -0.7528 -3.2502
15790TIP3    H268862   6.858   0.368   6.255  0.5362  1.1797 -0.0137
15791TIP3   OH268863   5.059   6.116   3.873  0.0645  0.4521 -0.6498
15791TIP3    H168864   5.112   6.185   3.834  1.2512  1.1002  2.0276
15791TIP3    H268865   5.122   6.052   3.906 -0.9666 -0.9534 -1.3253
15792TIP3   OH268866   3.923   5.423   6.374  0.1365  0.1967  0.1436
15792TIP3    H168867   3.923   5.492   6.307  0.3874 -0.9889 -1.0912
15792TIP3    H268868   3.995   5.448   6.433  0.5432  0.7394 -0.5617
15793TIP3   OH268869   4.257   0.401   4.348 -0.3902  0.1474  0.0727
15793TIP3    H168870   4.183   0.369   4.296 -1.6077  0.1889  1.7714
15793TIP3    H268871   4.317   0.438   4.283 -0.7881 -1.9282 -1.5510
15794TIP3   OH268872   1.047   6.806  11.591 -0.0495 -0.1638 -0.3835
15794TIP3    H168873   1.109   6.830  11.659 -0.4267  1.0570 -0.4543
15794TIP3    H268874   1.027   6.714  11.608  1.2660 -0.3845  0.0250
15795TIP3   OH268875   4.351   6.656   2.685  0.1527  0.0466 -0.1341
15795TIP3    H168876   4.435   6.687   2.653 -0.0745  2.0585  1.1256
15795TIP3    H268877   4.294   6.657   2.608  0.4043  1.9199 -0.3120
15796TIP3   OH268878   3.661   5.667  12.883  0.3318  0.4704  0.3327
15796TIP3    H168879   3.749   5.678  12.918  0.7039  0.8277 -0.6727
15796TIP3    H268880   3.647   5.573  12.883  1.1306  0.3367 -0.4595
15797TIP3   OH268881   6.690   1.305   6.329 -0.5618  0.0397 -0.3242
15797TIP3    H168882   6.754   1.352   6.382  0.2665  0.8433 -2.0344
15797TIP3    H268883   6.685   1.218   6.369  0.2560  0.5494  0.8984
15798TIP3   OH268884   5.481   2.962   2.430 -0.4152  0.6746  0.1261
15798TIP3    H168885   5.398   3.001   2.404 -0.8429  0.0980  0.6470
15798TIP3    H268886   5.476   2.954   2.525 -0.1915 -0.3429  0.0514
15799TIP3   OH268887   1.858   3.019   6.145 -0.2410  0.0098  0.6428
15799TIP3    H168888   1.890   2.932   6.169 -1.7284 -0.0848  2.3948
15799TIP3    H268889   1.772   3.003   6.107  0.5604  0.5133 -1.4851
15800TIP3   OH268890   1.396   3.897   5.858  0.0930  0.4454 -0.1535
15800TIP3    H168891   1.487   3.922   5.841 -0.1916  0.3905 -1.8578
15800TIP3    H268892   1.398   3.858   5.946  2.1505 -1.7275 -1.1047
15801TIP3   OH268893   0.403   6.002  14.533 -0.0848  0.5147 -0.0551
15801TIP3    H168894   0.462   5.980  14.605  0.2046  2.8865  0.4580
15801TIP3    H268895   0.416   6.095  14.518 -0.4315  0.1647 -2.9358
15802TIP3   OH268896   0.801   2.995   2.702 -0.1863 -0.1836  0.5502
15802TIP3    H168897   0.742   2.978   2.775 -0.7610 -0.6585 -0.0263
15802TIP3    H268898   0.808   3.090   2.698 -2.3143 -0.0536 -0.4954
15803TIP3   OH268899   5.875   6.612   3.272  0.5465 -0.3468  0.2728
15803TIP3    H168900   5.786   6.578   3.280 -0.5437  1.9160 -1.5166
15803TIP3    H268901   5.919   6.552   3.213  0.0279 -1.1528  0.7027
15804TIP3   OH268902   3.886   3.218  14.825  0.0936 -0.4175  0.0020
15804TIP3    H168903   3.917   3.129  14.841  2.0642  0.5503  1.9235
15804TIP3    H268904   3.807   3.226  14.879  2.1324  0.2027  3.0071
15805TIP3   OH268905   2.884   3.527  12.981  0.1649 -0.2028 -0.6733
15805TIP3    H168906   2.869   3.616  12.948 -0.0666  0.1465  0.3349
15805TIP3    H268907   2.875   3.536  13.076 -1.1277 -1.5475 -0.6516
15806TIP3   OH268908   5.327   4.495   5.075 -0.1059  0.1958  0.4969
15806TIP3    H168909   5.359   4.585   5.074  1.4667 -0.3479 -0.7451
15806TIP3    H268910   5.320   4.473   5.168  1.0985  1.0584  0.8042
15807TIP3   OH268911   6.717   4.686   0.504 -0.5792  0.5811 -0.3300
15807TIP3    H168912   6.625   4.710   0.494 -0.8880 -1.5070 -3.0953
15807TIP3    H268913   6.765   4.767   0.484 -1.7717  1.0045 -1.5891
15808TIP3   OH268914   1.064   3.869  11.605  0.0279 -0.2646  0.6633
15808TIP3    H168915   1.134   3.810  11.576  0.3075  0.0072  0.7789
15808TIP3    H268916   1.102   3.956  11.598  0.1791 -0.1973  2.0143
15809TIP3   OH268917   4.882   6.283   0.327  0.1050  0.5255  0.0851
15809TIP3    H168918   4.879   6.287   0.232  0.1349  0.3329  0.0762
15809TIP3    H268919   4.834   6.202   0.349 -0.2487  0.7765  0.2496
15810TIP3   OH268920   5.499   2.449   0.152  0.4428 -0.2673  0.6016
15810TIP3    H168921   5.579   2.478   0.196  0.7205  0.4581 -0.3809
15810TIP3    H268922   5.439   2.427   0.224  0.3667  2.3599  1.3902
15811TIP3   OH268923   2.052   3.482   3.328 -0.3647 -0.3098 -0.1162
15811TIP3    H168924   2.145   3.501   3.312 -0.8185  1.4316 -0.9044
15811TIP3    H268925   2.040   3.393   3.296  1.0108 -0.4796 -0.1862
15812TIP3   OH268926   1.412   4.945   5.775 -0.1659 -0.1514  0.5658
15812TIP3    H168927   1.338   4.972   5.830  0.4161 -0.8953  1.7347
15812TIP3    H268928   1.376   4.942   5.686 -1.1067  1.1119  0.8905
15813TIP3   OH268929   5.325   6.598  14.657 -0.0295 -0.3652 -0.7054
15813TIP3    H168930   5.399   6.655  14.633  1.3557 -1.9940 -0.4266
15813TIP3    H268931   5.301   6.627  14.745  1.0461 -0.5645 -0.3350
15814TIP3   OH268932   3.826   0.267  12.884  0.4194 -0.0544 -0.4230
15814TIP3    H168933   3.885   0.341  12.901  0.5809 -0.6640  1.8322
15814TIP3    H268934   3.741   0.308  12.867  0.1658  0.6348  2.2915
15815TIP3   OH268935   5.747   3.144   2.429  0.5203  0.0386  0.1803
15815TIP3    H168936   5.810   3.079   2.459 -0.1326  0.0621  1.6401
15815TIP3    H268937   5.709   3.105   2.350 -0.0863 -1.5117  1.2016
15816TIP3   OH268938   0.610   5.035  16.452 -0.2973 -0.6185  1.0127
15816TIP3    H168939   0.679   5.101  16.458  0.1320 -1.0268  0.6194
15816TIP3    H268940   0.583   5.036  16.360 -0.0252 -1.2494  0.9222
15817TIP3   OH268941   1.991   1.983  15.026  0.3376 -0.0873 -0.2290
15817TIP3    H168942   1.952   1.944  15.104  1.0328 -1.0402 -0.3457
15817TIP3    H268943   1.948   2.068  15.018 -0.2467 -0.2724  0.7886
15818TIP3   OH268944   1.040   0.601   0.056  0.0224 -0.2399  0.2517
15818TIP3    H168945   1.100   0.619  -0.017  0.9219 -0.1731  1.0029
15818TIP3    H268946   0.955   0.634   0.025  0.6354  0.8457 -0.3137
15819TIP3   OH268947   4.434   2.373   2.868 -0.0979 -0.7503 -0.6683
15819TIP3    H168948   4.435   2.307   2.938  0.6195  0.4035  0.4182
15819TIP3    H268949   4.341   2.390   2.852 -0.2570 -0.0781  0.9121
15820TIP3   OH268950   6.259   1.367  13.276 -0.0863 -0.4501  0.2385
15820TIP3    H168951   6.308   1.292  13.243 -1.2271 -0.7251 -0.8412
15820TIP3    H268952   6.185   1.330  13.323  0.4424 -0.0193  1.4581
15821TIP3   OH268953   4.073   2.324  15.513 -0.0612 -0.8899 -0.5309
15821TIP3    H168954   4.151   2.329  15.457 -0.4621  1.3808 -0.9228
15821TIP3    H268955   4.028   2.407  15.499 -0.9717 -0.9290  2.0294
15822TIP3   OH268956   2.509   6.699   4.964 -0.0326  0.1337 -0.5784
15822TIP3    H168957   2.601   6.692   4.987  0.9352 -0.0105 -4.2505
15822TIP3    H268958   2.471   6.614   4.986  1.4445 -0.9354 -2.1282
15823TIP3   OH268959   2.638   1.206   3.205 -0.0885 -0.3982  0.1923
15823TIP3    H168960   2.659   1.113   3.193  0.1636 -0.2871 -0.2604
15823TIP3    H268961   2.542   1.209   3.202 -0.0972 -0.6423  0.1899
15824TIP3   OH268962   1.667   1.594  13.674 -0.0614  0.1294  0.1843
15824TIP3    H168963   1.732   1.569  13.608 -0.0799 -0.1539  0.2705
15824TIP3    H268964   1.583   1.581  13.630 -0.0862 -0.5135  0.4185
15825TIP3   OH268965   1.438   3.178   4.342  0.1941 -0.4780  0.1475
15825TIP3    H168966   1.347   3.202   4.356  0.7464  0.5677  2.2364
15825TIP3    H268967   1.442   3.146   4.252 -1.9242  0.8927 -0.4512
15826TIP3   OH268968   0.932   3.157  16.362 -0.0999  0.2149 -0.0044
15826TIP3    H168969   1.003   3.222  16.370  0.0937  0.0194 -0.1180
15826TIP3    H268970   0.903   3.141  16.452 -0.7267  1.0955 -0.0430
15827TIP3   OH268971   5.698   6.044  16.985  0.1152 -0.1567 -0.1820
15827TIP3    H168972   5.664   6.052  16.896 -0.3853 -1.2611 -0.0945
15827TIP3    H268973   5.710   6.135  17.014 -1.6466  0.2480 -0.6398
15828TIP3   OH268974   0.830   2.019  13.754 -0.2411 -0.6705  0.1619
15828TIP3    H168975   0.789   1.933  13.745 -2.0334  0.0525  1.2090
15828TIP3    H268976   0.820   2.059  13.668  0.3524 -1.3844 -0.2495
15829TIP3   OH268977   2.662   1.103  12.013 -0.1377 -1.0525  0.1142
15829TIP3    H168978   2.754   1.124  11.999 -0.5080  0.2019 -0.5501
15829TIP3    H268979   2.618   1.133  11.934 -1.4702  0.7598  1.4762
15830TIP3   OH268980   6.468   4.182  16.305  0.3404  0.8280  0.1355
15830TIP3    H168981   6.554   4.173  16.346  0.3095  1.3992  0.3287
15830TIP3    H268982   6.487   4.214  16.217  0.2924  1.6485  0.4167
15831TIP3   OH268983   3.772   3.350   5.491  0.1597 -0.0974 -0.3000
15831TIP3    H168984   3.867   3.342   5.497 -0.0002 -1.1722  1.2744
15831TIP3    H268985   3.749   3.311   5.407  1.1095  0.2211 -0.7144
15832TIP3   OH268986   6.732   0.750   2.089 -0.5645  0.9433 -0.1513
15832TIP3    H168987   6.756   0.743   1.997 -0.9339  0.0270 -0.1814
15832TIP3    H268988   6.732   0.660   2.121 -0.8494  1.2180  0.6367
15833TIP3   OH268989   5.147   3.768   0.449  0.0207 -0.6753  0.7928
15833TIP3    H168990   5.199   3.768   0.530 -0.6248 -0.7338  1.2045
15833TIP3    H268991   5.212   3.756   0.380  0.9144  2.2366  1.0754
15834TIP3   OH268992   4.478   4.866  11.807 -0.3705  0.7454 -0.3492
15834TIP3    H168993   4.506   4.778  11.782 -0.3112  0.5380  0.4253
15834TIP3    H268994   4.400   4.882  11.754 -1.6620 -0.6459  1.0717
15835TIP3   OH268995   1.749   4.719   5.762  0.1697 -0.6201  0.2666
15835TIP3    H168996   1.748   4.667   5.842  1.8966  0.1605  0.8279
15835TIP3    H268997   1.808   4.672   5.704  0.5249 -0.1122  0.2117
15836TIP3   OH268998   5.177   4.273  14.289  0.6207 -0.0391  0.4358
15836TIP3    H168999   5.086   4.299  14.275  0.8945  2.5675  3.1292
15836TIP3    H269000   5.181   4.183  14.257 -2.6003  0.1914 -0.8064
15837TIP3   OH269001   5.855   3.445  14.932  0.0242  0.0526 -0.2292
15837TIP3    H169002   5.919   3.476  14.997  0.7232 -3.1561  0.6957
15837TIP3    H269003   5.773   3.438  14.980  0.3211 -1.4188  0.0570
15838TIP3   OH269004   6.798   0.792  16.010 -0.2191  0.0951 -0.2230
15838TIP3    H169005   6.742   0.720  15.982 -0.0772  0.1089 -0.5497
15838TIP3    H269006   6.766   0.869  15.962  1.6611 -0.4025 -2.3758
15839TIP3   OH269007   6.342   0.086   1.904  0.0675  0.3058 -0.1752
15839TIP3    H169008   6.293   0.018   1.951  0.3008  0.8790  0.9041
15839TIP3    H269009   6.335   0.164   1.959 -0.5458  1.2846 -1.6177
15840TIP3   OH269010   1.822   2.368   0.303  0.0931 -0.5776 -0.0216
15840TIP3    H169011   1.756   2.340   0.240 -0.7021  1.5577 -0.1754
15840TIP3    H269012   1.858   2.449   0.266  2.1762 -1.2356  0.4971
15841TIP3   OH269013   0.097   2.203  11.333 -0.0362  0.0035  0.1616
15841TIP3    H169014   0.189   2.211  11.309 -0.3262  0.4580 -0.8419
15841TIP3    H269015   0.074   2.112  11.312 -0.0837  0.1836 -0.5987
15842TIP3   OH269016   2.041   6.493   6.039 -0.3718 -0.1098  0.1411
15842TIP3    H169017   2.001   6.568   6.081  0.0875  1.0066 -1.3786
15842TIP3    H269018   2.057   6.521   5.948 -0.7679 -2.2361 -0.6175
15843TIP3   OH269019   4.408   2.804   2.565 -0.3954 -0.0708 -0.6697
15843TIP3    H169020   4.326   2.833   2.525 -1.2514  1.6134  2.1378
15843TIP3    H269021   4.394   2.710   2.581 -2.4344  0.4904  1.1448
15844TIP3   OH269022   4.601   3.930   4.663 -0.1226 -0.2724 -0.4069
15844TIP3    H169023   4.570   3.842   4.682  1.2617 -1.0513 -1.6479
15844TIP3    H269024   4.694   3.928   4.686  0.9711 -0.4668 -4.5599
15845TIP3   OH269025   5.440   1.116   2.484  0.4398 -0.3250 -0.5599
15845TIP3    H169026   5.346   1.131   2.474  0.5694  0.7878 -0.1557
15845TIP3    H269027   5.467   1.081   2.400  0.0108  1.1986 -1.3584
15846TIP3   OH269028   6.333   6.419  12.478 -0.2753  0.5054  0.0649
15846TIP3    H169029   6.338   6.369  12.397  0.5759  2.0067 -0.8377
15846TIP3    H269030   6.253   6.388  12.521  0.8689 -2.5018  0.1431
15847TIP3   OH269031   0.732   6.640   1.534 -0.0030  0.1011  0.6934
15847TIP3    H169032   0.665   6.599   1.590  0.3892 -1.4561  0.0625
15847TIP3    H269033   0.761   6.569   1.476  1.2970  1.0828  0.1209
15848TIP3   OH269034   6.377   6.653   0.731 -0.4111  0.8197 -0.0677
15848TIP3    H169035   6.348   6.589   0.666  0.3770  0.9858 -0.5873
15848TIP3    H269036   6.467   6.674   0.706  0.2606  0.1085  1.6800
15849TIP3   OH269037   3.728   1.280   1.143 -0.4595  0.0359 -0.0843
15849TIP3    H169038   3.705   1.273   1.051  0.4009  0.7411 -0.3521
15849TIP3    H269039   3.662   1.226   1.188 -1.7718  0.8642 -0.9596
15850TIP3   OH269040   1.013   3.560  11.721  0.4313 -0.0355  0.1053
15850TIP3    H169041   0.959   3.542  11.644  0.3405  0.9504 -0.0658
15850TIP3    H269042   0.991   3.490  11.782 -1.2247  0.4785  0.1309
15851TIP3   OH269043   5.030   3.195  14.414  0.2554 -0.1358 -0.4213
15851TIP3    H169044   5.039   3.141  14.493  1.0005 -1.8634 -1.6815
15851TIP3    H269045   4.941   3.177  14.384  0.5221 -0.7333 -0.8723
15852TIP3   OH269046   4.904   0.130  17.120 -0.3202 -0.3484 -0.0963
15852TIP3    H169047   4.965   0.128  17.194 -0.7049  1.4103  0.2729
15852TIP3    H269048   4.944   0.071  17.055  1.9271  0.9926  0.0211
15853TIP3   OH269049   1.243   5.357  10.424  0.0645  0.1012 -0.1478
15853TIP3    H169050   1.215   5.279  10.375 -1.6228  1.1244 -0.8748
15853TIP3    H269051   1.260   5.325  10.512 -0.3409 -1.1468 -0.5060
15854TIP3   OH269052   1.420   5.936   4.579  0.2992 -0.3703 -0.0196
15854TIP3    H169053   1.404   5.951   4.485  0.8805  0.8924  0.0673
15854TIP3    H269054   1.428   6.024   4.616  0.7791 -0.8771  1.0992
15855TIP3   OH269055   4.698   1.568  10.860  0.3058 -0.0265  0.6682
15855TIP3    H169056   4.669   1.647  10.905 -1.1849 -1.2206  1.8677
15855TIP3    H269057   4.725   1.508  10.930  1.7758 -0.4565 -0.2429
15856TIP3   OH269058   0.726   4.941  15.545 -0.2892 -0.0834  0.9010
15856TIP3    H169059   0.695   4.876  15.481  0.9063 -0.3360  0.5639
15856TIP3    H269060   0.807   4.904  15.579  1.9830  2.5226 -1.3903
15857TIP3   OH269061   2.063   6.510  11.822  0.2160 -0.6062  0.0220
15857TIP3    H169062   2.157   6.492  11.828  0.7276  1.8612 -0.0846
15857TIP3    H269063   2.028   6.483  11.906  1.2537 -0.2931  0.5647
15858TIP3   OH269064   5.201   1.252   0.050  0.4334 -0.2497  0.0497
15858TIP3    H169065   5.284   1.266   0.005  0.7779 -0.4580  0.6083
15858TIP3    H269066   5.135   1.256  -0.019  0.8453  0.5506 -0.3050
15859TIP3   OH269067   2.271   2.652  16.617  0.2075  0.1309  0.1759
15859TIP3    H169068   2.195   2.667  16.673  0.1473  1.2338 -0.1829
15859TIP3    H269069   2.341   2.703  16.658 -0.1576  1.9703 -1.4139
15860TIP3   OH269070   3.306   0.080   4.233  0.2267 -0.2881 -0.8077
15860TIP3    H169071   3.306   0.162   4.183 -1.6902  0.3977  0.2676
15860TIP3    H269072   3.394   0.045   4.221  1.4900  2.5607 -0.2443
15861TIP3   OH269073   1.998   1.923  14.747 -1.1929  0.1333  0.5427
15861TIP3    H169074   1.987   1.957  14.835 -1.2892  0.5582  0.3672
15861TIP3    H269075   2.008   1.829  14.758  1.5832  0.4791  1.2185
15862TIP3   OH269076   4.461   1.356  15.659  0.1795  1.1492  0.0717
15862TIP3    H169077   4.407   1.418  15.707 -0.3298  1.4510 -0.8747
15862TIP3    H269078   4.420   1.271  15.674  1.9910  0.7409  2.9568
15863TIP3   OH269079   2.788   2.142   5.626  0.6097 -0.0679 -0.0983
15863TIP3    H169080   2.776   2.202   5.699  0.4840 -1.1851  0.8236
15863TIP3    H269081   2.857   2.082   5.655  0.9960 -0.1370 -1.1442
15864TIP3   OH269082   4.481   4.236   2.683  0.2598 -0.1372 -0.0793
15864TIP3    H169083   4.436   4.155   2.704  0.2397 -0.0473  0.2234
15864TIP3    H269084   4.542   4.213   2.613 -0.2071 -0.2779 -0.4438
15865TIP3   OH269085   2.594   2.570  16.491  0.0503 -0.5393 -0.5719
15865TIP3    H169086   2.525   2.590  16.427 -1.2185 -1.0713  0.5968
15865TIP3    H269087   2.672   2.613  16.456 -1.5462  2.6521 -0.3971
15866TIP3   OH269088   6.077   5.252   6.292  0.0332 -0.2797  0.4989
15866TIP3    H169089   6.066   5.337   6.248 -0.1902 -0.6536 -0.1634
15866TIP3    H269090   6.172   5.245   6.305  0.1829 -0.5177 -0.6245
15867TIP3   OH269091   4.449   4.863  16.393  0.1589  0.1707 -0.0186
15867TIP3    H169092   4.459   4.898  16.305  1.0216 -0.0370 -0.0184
15867TIP3    H269093   4.539   4.860  16.427  0.1208 -2.0090 -0.0317
15868TIP3   OH269094   6.363   1.116  13.202 -0.4237 -0.6626  0.5266
15868TIP3    H169095   6.389   1.023  13.204  2.0282 -0.0528 -0.4533
15868TIP3    H269096   6.383   1.143  13.112 -0.4200  0.9994  1.0281
15869TIP3   OH269097   5.881   3.268  12.990  0.3803  0.7607  1.0174
15869TIP3    H169098   5.810   3.241  13.048 -1.3186  1.0631 -0.8711
15869TIP3    H269099   5.904   3.187  12.943 -0.4019  1.1865 -0.1177
15870TIP3   OH269100   1.146   4.699  11.582 -0.0793 -0.1225  0.3257
15870TIP3    H169101   1.104   4.703  11.496 -1.7313  0.1372  1.1346
15870TIP3    H269102   1.190   4.614  11.583 -0.3564 -0.2844 -0.6362
15871TIP3   OH269103   4.752   3.203   0.906 -0.0519  0.0742 -0.7134
15871TIP3    H169104   4.688   3.133   0.896 -0.0601 -0.0165 -0.0526
15871TIP3    H269105   4.798   3.183   0.988 -1.1488  1.7091  0.3374
15872TIP3   OH269106   2.596   1.322  13.540  0.0952  0.0490  0.4006
15872TIP3    H169107   2.545   1.390  13.585 -0.2749  0.3987 -0.5334
15872TIP3    H269108   2.684   1.330  13.577 -0.2326  0.2553  1.1500
15873TIP3   OH269109   4.460   6.293  16.105 -0.1232  0.6040  0.4677
15873TIP3    H169110   4.475   6.220  16.164  0.0018  2.0197  2.2147
15873TIP3    H269111   4.542   6.342  16.105 -1.0000  2.0919  1.2198
15874TIP3   OH269112   2.431   0.784   3.632  0.4471  0.2932  0.2687
15874TIP3    H169113   2.380   0.715   3.675 -1.5694  1.6734  0.1727
15874TIP3    H269114   2.388   0.866   3.658  2.2264  1.4813 -0.3608
15875TIP3   OH269115   1.007   6.706  13.577  0.5373 -0.4414  0.7866
15875TIP3    H169116   1.002   6.779  13.639  1.2646  0.4756 -0.2198
15875TIP3    H269117   0.968   6.632  13.624 -0.7679  0.7369  1.6118
15876TIP3   OH269118   0.465   4.847   0.437  0.0125  0.2505 -0.5352
15876TIP3    H169119   0.413   4.896   0.374  0.0398  0.4440 -0.4063
15876TIP3    H269120   0.427   4.759   0.436  0.4287  0.0766 -1.3043
15877TIP3   OH269121   4.397   1.500  14.720 -0.1645  0.0584  0.0797
15877TIP3    H169122   4.404   1.595  14.709  0.9228  0.2145  1.9455
15877TIP3    H269123   4.478   1.466  14.683 -0.9776 -0.2565 -1.4772
15878TIP3   OH269124   3.334   4.562   5.630 -0.7468 -0.5584 -0.5911
15878TIP3    H169125   3.292   4.573   5.715  0.0131  0.1418 -0.2999
15878TIP3    H269126   3.262   4.551   5.569 -1.3283 -0.2042  0.0243
15879TIP3   OH269127   3.878   5.601   3.663  0.4036 -0.3950 -0.3236
15879TIP3    H169128   3.965   5.640   3.670  0.0485  0.6585 -1.5648
15879TIP3    H269129   3.858   5.604   3.569 -2.0617  1.7853  0.2032
15880TIP3   OH269130   6.677   1.329   5.596 -0.0640  0.1552  0.1442
15880TIP3    H169131   6.757   1.382   5.590  0.2443 -0.1198  1.6277
15880TIP3    H269132   6.709   1.239   5.599 -0.3615  0.0887  1.7592
15881TIP3   OH269133   3.433   5.739   1.270 -0.3331 -0.1601 -0.4807
15881TIP3    H169134   3.374   5.701   1.335 -1.3143 -1.7838 -2.2826
15881TIP3    H269135   3.378   5.756   1.194  1.2555 -0.5024 -1.7429
15882TIP3   OH269136   0.462   1.940  11.648 -0.0879  0.5850  0.0555
15882TIP3    H169137   0.489   1.862  11.600 -1.6370  0.3730 -0.4960
15882TIP3    H269138   0.435   1.907  11.734 -2.8734  0.2061 -0.9365
15883TIP3   OH269139   4.777   6.467  12.785 -0.0224  0.1276  0.1027
15883TIP3    H169140   4.720   6.417  12.843  0.6093 -0.6871  0.0344
15883TIP3    H269141   4.802   6.405  12.716 -1.0816  1.1843 -1.2735
15884TIP3   OH269142   3.203   1.935   4.607  0.0384  0.5921 -0.2614
15884TIP3    H169143   3.129   1.876   4.589 -0.9805  1.1465  1.9113
15884TIP3    H269144   3.214   1.986   4.527 -2.6916  1.2726 -0.2475
15885TIP3   OH269145   1.032   4.193   4.608 -0.5110 -0.2350  0.6306
15885TIP3    H169146   1.100   4.134   4.576 -0.2452  1.3966 -1.9669
15885TIP3    H269147   1.043   4.193   4.703  2.6091 -0.6431  0.3175
15886TIP3   OH269148   0.044   6.366   4.944 -0.2443 -0.0586  0.0067
15886TIP3    H169149  -0.050   6.357   4.931 -0.6578  0.9902  2.1987
15886TIP3    H269150   0.072   6.426   4.874 -1.1291 -0.5926 -0.8207
15887TIP3   OH269151   6.027   4.660   2.249  0.1130 -0.6436  0.0699
15887TIP3    H169152   6.054   4.717   2.177 -0.6304 -0.6655 -0.2302
15887TIP3    H269153   6.093   4.591   2.252 -0.7093 -1.5172 -1.6181
15888TIP3   OH269154   5.836   0.112   1.170  0.2247  0.4938 -0.6519
15888TIP3    H169155   5.798   0.184   1.220  0.4542  0.7848 -0.8913
15888TIP3    H269156   5.819   0.034   1.223 -0.4788  0.6541 -0.6421
15889TIP3   OH269157   3.366   0.985  17.007  1.2956  0.2812 -0.2065
15889TIP3    H169158   3.457   1.017  17.007  1.1530  0.6959 -0.4370
15889TIP3    H269159   3.328   1.024  16.928  1.8352 -2.5965 -1.9336
15890TIP3   OH269160   4.613   2.189  13.896 -0.2515  0.1441 -0.0566
15890TIP3    H169161   4.606   2.284  13.906 -2.0536 -0.0693  0.9637
15890TIP3    H269162   4.706   2.173  13.878 -0.0427  2.1415 -0.8335
15891TIP3   OH269163   6.564   3.806   4.088 -0.3675 -0.6509 -0.4992
15891TIP3    H169164   6.483   3.765   4.057  0.5919 -2.6429 -0.4459
15891TIP3    H269165   6.552   3.813   4.183 -0.7791 -0.2511 -0.5784
15892TIP3   OH269166   2.712   4.123   1.115 -0.5430 -0.1328 -0.2175
15892TIP3    H169167   2.675   4.035   1.104 -1.9207  0.6002 -1.6831
15892TIP3    H269168   2.636   4.180   1.120  0.3595  1.1295 -0.6866
15893TIP3   OH269169   6.395   3.096   4.837  0.3145  0.4428 -0.6043
15893TIP3    H169170   6.409   3.005   4.861 -0.1135  0.0643 -1.7620
15893TIP3    H269171   6.380   3.141   4.920 -0.3712 -0.7069 -0.0996
15894TIP3   OH269172   2.816   3.777  16.945 -0.1216 -0.2573  0.4591
15894TIP3    H169173   2.823   3.859  16.897 -1.2411  0.2962  1.2245
15894TIP3    H269174   2.864   3.714  16.891 -3.0654 -0.1246 -2.5250
15895TIP3   OH269175   1.579   2.435   2.540 -0.0786  0.2960  0.0563
15895TIP3    H169176   1.614   2.461   2.454 -0.4773  2.0716  0.4146
15895TIP3    H269177   1.485   2.446   2.531 -0.3010 -1.4985  0.0853
15896TIP3   OH269178   0.366   2.388  16.971  0.2430  0.2600  0.1962
15896TIP3    H169179   0.359   2.317  16.908  0.1516 -0.5016  1.0523
15896TIP3    H269180   0.367   2.345  17.057 -0.6853  1.3342  0.7685
15897TIP3   OH269181   6.448   1.752   1.724 -0.3424  0.1456 -0.4323
15897TIP3    H169182   6.482   1.665   1.743  0.4037  0.3969 -0.5801
15897TIP3    H269183   6.450   1.797   1.809  0.4703  0.4184 -0.5917
15898TIP3   OH269184   6.149   4.961   3.615  0.0494 -0.2168  0.4451
15898TIP3    H169185   6.237   4.939   3.586  0.3977  0.0642  1.2644
15898TIP3    H269186   6.094   4.890   3.583  0.7812 -1.0404  1.0025
15899TIP3   OH269187   1.364   6.525   5.571  0.1487  0.2856  0.1921
15899TIP3    H169188   1.290   6.561   5.620 -0.9762 -0.4088 -0.9584
15899TIP3    H269189   1.402   6.601   5.526  0.2393  0.6751  0.9286
15900TIP3   OH269190   6.275   4.758   0.238  0.2781  0.0190  0.6223
15900TIP3    H169191   6.199   4.810   0.212  0.4794 -1.3423 -2.9724
15900TIP3    H269192   6.242   4.668   0.242  1.3633 -0.3917  0.5404
15901TIP3   OH269193   3.778   3.741  15.040 -0.3404 -0.3205 -0.0830
15901TIP3    H169194   3.753   3.782  15.123  0.0928 -0.4292  0.1033
15901TIP3    H269195   3.813   3.813  14.987  2.5016 -0.7824  1.0603
15902TIP3   OH269196   2.883   2.863  11.756  0.0574 -0.1245  0.2772
15902TIP3    H169197   2.875   2.832  11.846 -1.2570  0.5136  0.3909
15902TIP3    H269198   2.813   2.927  11.747  0.4757  0.1505 -1.0672
15903TIP3   OH269199   2.384   5.572  16.436  0.2034 -1.3304 -0.1261
15903TIP3    H169200   2.313   5.551  16.497  1.8908 -2.6346  1.4579
15903TIP3    H269201   2.426   5.649  16.475 -0.4986 -0.3970 -1.2023
15904TIP3   OH269202   5.887   0.319   5.929 -0.2066 -0.2702 -0.0030
15904TIP3    H169203   5.882   0.280   5.842 -2.4358  3.1011 -1.4976
15904TIP3    H269204   5.798   0.313   5.963 -0.1207  1.5415  0.5896
15905TIP3   OH269205   3.117   4.111   0.020 -0.4687  0.5356  1.0254
15905TIP3    H169206   3.091   4.116  -0.072  0.8140  2.4107  0.7351
15905TIP3    H269207   3.210   4.092   0.018 -0.4098  0.7255  1.9243
15906TIP3   OH269208   2.788   5.757   4.319  0.2933  0.6348  0.3136
15906TIP3    H169209   2.843   5.820   4.273 -1.4244  1.8770 -0.1033
15906TIP3    H269210   2.847   5.712   4.379  1.7654  1.8513 -0.2125
15907TIP3   OH269211   1.256   1.455   0.649 -0.1657  0.1155  0.2833
15907TIP3    H169212   1.212   1.514   0.710 -0.4211 -1.8204  2.0392
15907TIP3    H269213   1.195   1.382   0.637  1.2962 -1.1680  0.4158
15908TIP3   OH269214   1.024   2.952  11.556  0.9410  0.0889  0.3617
15908TIP3    H169215   1.083   2.888  11.596  1.0677  0.9416  1.5587
15908TIP3    H269216   1.020   2.926  11.464  2.3896 -0.5790  0.4676
15909TIP3   OH269217   1.243   3.817  13.752  0.0281  0.5398  0.7419
15909TIP3    H169218   1.335   3.797  13.773 -0.4467 -0.9837  1.4496
15909TIP3    H269219   1.238   3.913  13.756  2.1017  0.7813 -1.5721
15910TIP3   OH269220   4.762   5.559  11.314 -0.2238  0.3736  0.3126
15910TIP3    H169221   4.818   5.607  11.252 -0.2890 -0.0721 -0.0919
15910TIP3    H269222   4.759   5.470  11.279  1.2030 -0.3451  1.9051
15911TIP3   OH269223   4.602   3.786  12.004 -0.3492  0.3888 -0.8031
15911TIP3    H169224   4.629   3.846  12.074 -0.2149 -0.6294  0.0290
15911TIP3    H269225   4.654   3.814  11.929  0.4124  0.7235 -0.1711
15912TIP3   OH269226   1.994   3.732   3.350  0.3811  0.1328  0.6085
15912TIP3    H169227   1.903   3.738   3.321 -0.5788  0.6800  3.6213
15912TIP3    H269228   2.015   3.639   3.343 -0.1743  0.0980 -0.7453
15913TIP3   OH269229   0.895   6.710  17.233  0.6212  0.0708 -0.6787
15913TIP3    H169230   0.871   6.662  17.153  1.1871  1.4074 -1.6604
15913TIP3    H269231   0.815   6.756  17.258  0.4232 -0.4049 -0.4281
15914TIP3   OH269232   6.193   1.041  15.346 -0.4771  0.0377 -0.0895
15914TIP3    H169233   6.240   1.108  15.297  0.6352 -0.9976 -0.4439
15914TIP3    H269234   6.260   0.978  15.372 -1.7755 -1.8943 -1.3063
15915TIP3   OH269235   0.519   4.962  11.171 -0.2373  0.2299  0.4201
15915TIP3    H169236   0.607   4.999  11.170  0.8206 -2.1336  2.1947
15915TIP3    H269237   0.483   4.984  11.085  2.0741  1.1906 -0.3505
15916TIP3   OH269238   1.336   5.214   5.452 -0.1785  0.3969 -0.1912
15916TIP3    H169239   1.330   5.207   5.356  0.4051  0.5197 -0.2355
15916TIP3    H269240   1.312   5.127   5.483 -1.2742  0.6101 -0.4090
15917TIP3   OH269241   6.276   4.223   1.111 -0.0553 -0.2039  0.0364
15917TIP3    H169242   6.351   4.260   1.159  0.7092 -1.7012  0.0155
15917TIP3    H269243   6.303   4.134   1.089 -1.9110 -0.8115  0.1488
15918TIP3   OH269244   2.142   6.362  13.895 -0.3121  0.1694  0.1276
15918TIP3    H169245   2.094   6.304  13.953  0.3639 -0.3760  0.1426
15918TIP3    H269246   2.185   6.425  13.954 -0.4122  0.2126  0.1558
15919TIP3   OH269247   4.221   0.818  16.695 -0.3499 -0.0428 -0.8496
15919TIP3    H169248   4.190   0.887  16.636  1.5495  0.4555 -1.2757
15919TIP3    H269249   4.191   0.846  16.782 -0.8309  0.5770 -1.2080
15920TIP3   OH269250   5.485   4.594   2.850  0.3562  0.1232  0.3768
15920TIP3    H169251   5.575   4.587   2.880  1.0030  0.1833 -1.4975
15920TIP3    H269252   5.453   4.675   2.889  1.9821  1.5121 -1.1366
15921TIP3   OH269253   3.450   4.651  13.908  0.3799  0.2268  0.2749
15921TIP3    H169254   3.459   4.739  13.872 -1.5762  0.0023 -0.8332
15921TIP3    H269255   3.516   4.599  13.862 -0.5330  0.4508 -1.3025
15922TIP3   OH269256   2.176   6.237   5.672  0.2517 -0.1981 -0.0144
15922TIP3    H169257   2.177   6.302   5.602  0.4558 -0.9256 -0.6899
15922TIP3    H269258   2.269   6.223   5.694  0.4061 -2.4740 -1.9491
15923TIP3   OH269259   0.806   4.682   4.447 -0.4900  0.1800  0.1276
15923TIP3    H169260   0.720   4.724   4.444 -0.5564  0.0291 -0.0148
15923TIP3    H269261   0.787   4.589   4.462 -0.2912  0.4639  2.3050
15924TIP3   OH269262   1.191   6.313  13.574  0.2317  0.6633 -0.1207
15924TIP3    H169263   1.274   6.349  13.607  0.2157 -0.2145  0.8950
15924TIP3    H269264   1.145   6.389  13.538  0.2989  1.6414  1.8041
15925TIP3   OH269265   6.404   6.683  12.592  0.1684 -0.1076  0.0018
15925TIP3    H169266   6.324   6.642  12.624  0.5025 -1.3255 -0.7142
15925TIP3    H269267   6.473   6.621  12.612  1.0688  1.2654  1.2996
15926TIP3   OH269268   6.005   6.697   3.532  0.3685 -0.3255  0.1767
15926TIP3    H169269   5.966   6.631   3.474  0.4758 -0.4503  0.2469
15926TIP3    H269270   5.932   6.727   3.587  0.5672 -1.2453  0.9597
15927TIP3   OH269271   0.650   2.412  15.964  0.4664  0.1974  0.2684
15927TIP3    H169272   0.696   2.483  16.008  2.1549  0.7514 -2.3141
15927TIP3    H269273   0.603   2.454  15.893  1.1969 -1.2119 -1.0762
15928TIP3   OH269274   3.732   6.750   2.236  0.2318  0.3239 -0.4826
15928TIP3    H169275   3.664   6.765   2.302 -1.4743  0.1354 -2.1519
15928TIP3    H269276   3.801   6.703   2.283 -0.5953  0.8637  1.3425
15929TIP3   OH269277   0.293   0.946   1.785  0.1956 -0.4006 -0.0484
15929TIP3    H169278   0.285   0.873   1.724 -0.1697 -1.3120  1.0684
15929TIP3    H269279   0.206   0.952   1.826  0.8669 -0.7496  1.4390
15930TIP3   OH269280   6.810   2.315   0.784  0.6037 -0.2105  0.2509
15930TIP3    H169281   6.894   2.318   0.739 -0.1006 -0.6080 -1.1352
15930TIP3    H269282   6.771   2.401   0.768 -0.1607 -0.7622 -0.9486
15931TIP3   OH269283   1.960   0.447   0.878 -0.1968  0.2865  0.4503
15931TIP3    H169284   1.887   0.450   0.939 -0.6600 -1.0242 -0.0222
15931TIP3    H269285   1.961   0.533   0.836 -1.8636  0.0978 -0.0048
15932TIP3   OH269286   4.901   2.960   4.296  0.4941  0.6727  0.3959
15932TIP3    H169287   4.927   2.978   4.386 -0.3166 -0.5686  0.8951
15932TIP3    H269288   4.821   2.907   4.304  1.3452 -0.8713 -1.0292
15933TIP3   OH269289   6.186   5.044  12.896 -0.4702  0.4043 -0.2163
15933TIP3    H169290   6.132   5.064  12.820  1.6671 -0.2931 -1.9751
15933TIP3    H269291   6.223   5.128  12.922  0.7549  0.2694 -1.5001
15934TIP3   OH269292   2.175   6.558   3.844  0.0321  0.3679 -0.1457
15934TIP3    H169293   2.082   6.566   3.866  0.1398 -0.3896  0.6183
15934TIP3    H269294   2.195   6.466   3.860  1.0194  0.6258  0.1149
15935TIP3   OH269295   3.383   1.140   2.741 -0.6137  0.2741 -0.0427
15935TIP3    H169296   3.407   1.233   2.749  0.8167  0.2220 -2.8791
15935TIP3    H269297   3.290   1.138   2.765 -0.7351  2.4980 -0.1485
15936TIP3   OH269298   3.701   2.930  11.337 -0.6848  0.3616  0.5677
15936TIP3    H169299   3.786   2.889  11.351  0.2492  1.8562 -0.6185
15936TIP3    H269300   3.716   2.994  11.267 -3.2934 -0.9194 -1.2501
15937TIP3   OH269301   0.317   3.435  11.591  0.1438 -0.1735 -0.0667
15937TIP3    H169302   0.274   3.357  11.626  0.3506 -0.2408  0.0376
15937TIP3    H269303   0.377   3.463  11.660 -1.1455  1.0672  0.5797
15938TIP3   OH269304   5.283   1.175   4.726  0.1402 -0.0894  0.1291
15938TIP3    H169305   5.336   1.247   4.690  0.5262 -1.0293 -1.2555
15938TIP3    H269306   5.262   1.121   4.649 -0.7969 -1.0310  1.0361
15939TIP3   OH269307   6.112   6.145  11.213  0.4660 -0.3209 -0.2018
15939TIP3    H169308   6.146   6.156  11.125 -0.5326  0.8311 -0.4520
15939TIP3    H269309   6.031   6.196  11.215  0.6358 -0.0664  1.4634
15940TIP3   OH269310   5.719   2.724   2.412  1.6058  0.3406  0.4100
15940TIP3    H169311   5.638   2.773   2.399  0.8774 -0.9438  0.0924
15940TIP3    H269312   5.722   2.708   2.507  1.1574 -0.1793  0.3371
15941TIP3   OH269313   5.291   5.940   3.931 -0.1592 -0.7879  0.0576
15941TIP3    H169314   5.306   5.849   3.958 -0.1887 -1.2405 -1.4069
15941TIP3    H269315   5.365   5.960   3.874 -0.6299 -0.1966 -0.3489
15942TIP3   OH269316   4.559   5.927  11.415  0.2845 -0.2129 -0.1622
15942TIP3    H169317   4.582   5.897  11.327  2.1313 -1.7414  0.8039
15942TIP3    H269318   4.618   6.000  11.431 -0.1843  0.1878 -0.2703
15943TIP3   OH269319   4.458   4.797  14.391 -0.7061  0.2620  0.0298
15943TIP3    H169320   4.425   4.836  14.310  0.4121 -0.6286 -0.8515
15943TIP3    H269321   4.541   4.841  14.408 -0.4146 -0.3281  0.1245
15944TIP3   OH269322   2.197   5.605  16.184  0.0617  0.8857  0.1979
15944TIP3    H169323   2.272   5.577  16.236 -0.2915  1.7008  1.1637
15944TIP3    H269324   2.186   5.698  16.207 -1.9641  0.4790  0.9528
15945TIP3   OH269325   5.655   4.432  15.781  0.2781  0.5841 -0.4540
15945TIP3    H169326   5.562   4.415  15.800  0.7952 -3.4034 -0.9887
15945TIP3    H269327   5.654   4.501  15.715 -2.1953  2.1840  1.1728
15946TIP3   OH269328   2.979   2.978   3.262  0.7372 -0.1744  0.0035
15946TIP3    H169329   3.015   3.034   3.194  1.5645 -0.4529  0.2094
15946TIP3    H269330   2.980   2.890   3.224  2.7273 -0.5924  0.9409
15947TIP3   OH269331   6.531   0.355   3.754 -0.4679  0.4621  0.6294
15947TIP3    H169332   6.527   0.442   3.795 -2.4548 -0.1230  1.7504
15947TIP3    H269333   6.451   0.312   3.782 -0.3465 -1.1202 -1.3694
15948TIP3   OH269334   6.434   0.625   2.402 -0.3893  0.2904 -0.2506
15948TIP3    H169335   6.355   0.572   2.407 -1.6314  2.1036 -0.3713
15948TIP3    H269336   6.420   0.683   2.327  1.2609  0.3011 -0.5785
15949TIP3   OH269337   1.228   5.231   5.967 -0.4657 -0.2138 -0.1257
15949TIP3    H169338   1.139   5.257   5.942  0.7872  2.7022 -1.7776
15949TIP3    H269339   1.238   5.265   6.055 -0.4839  0.7555 -0.4933
15950TIP3   OH269340   1.562   5.004  14.037 -1.0452  0.0757 -0.2503
15950TIP3    H169341   1.587   5.027  13.947  0.5019  0.2136  0.2097
15950TIP3    H269342   1.566   4.908  14.038 -0.4249  0.1035 -0.1427
15951TIP3   OH269343   2.564   1.044  14.620  0.1642  0.3029  0.7876
15951TIP3    H169344   2.565   0.956  14.581 -1.4766  0.5974  0.0708
15951TIP3    H269345   2.621   1.096  14.564  1.8339 -0.4888  1.7025
15952TIP3   OH269346   3.657   6.499  12.805  0.6195 -0.0153 -0.2733
15952TIP3    H169347   3.698   6.516  12.720 -0.7244 -1.1450 -1.1458
15952TIP3    H269348   3.727   6.458  12.857  0.9749 -0.7980 -1.3514
15953TIP3   OH269349   4.253   3.815  15.709 -0.3946 -0.0787 -0.1687
15953TIP3    H169350   4.186   3.868  15.666  1.6275  1.4372 -1.5477
15953TIP3    H269351   4.322   3.805  15.643  0.3724 -2.3206  0.9228
15954TIP3   OH269352   4.159   2.046  12.239  0.3329 -0.1661  0.1471
15954TIP3    H169353   4.197   2.072  12.323 -0.9174  0.2880  0.5858
15954TIP3    H269354   4.065   2.058  12.251  0.0585 -1.1045 -0.9726
15955TIP3   OH269355   0.162   0.914  15.203  0.2942  0.6516  0.5492
15955TIP3    H169356   0.240   0.875  15.244  1.0899  0.4027 -1.1679
15955TIP3    H269357   0.169   1.008  15.224  2.3720  1.0277 -1.6140
15956TIP3   OH269358   1.344   5.462   3.611  0.0518 -0.1330  0.2799
15956TIP3    H169359   1.408   5.398   3.580  0.0543  0.0894 -0.1795
15956TIP3    H269360   1.263   5.412   3.623  0.2037 -0.3339  0.4752
15957TIP3   OH269361   1.643   1.633  11.729 -0.2497 -0.1651  0.2897
15957TIP3    H169362   1.609   1.699  11.789 -0.8599 -1.5145  1.4726
15957TIP3    H269363   1.589   1.641  11.651 -1.4811 -0.4393  1.1013
15958TIP3   OH269364   4.068   3.409  14.164 -0.0603 -0.2921  0.4114
15958TIP3    H169365   4.092   3.429  14.073 -1.3898 -3.3570 -0.6935
15958TIP3    H269366   4.150   3.384  14.206  0.1307 -2.0294 -0.8990
15959TIP3   OH269367   4.056   5.918   6.016  0.2247 -0.3618  0.3618
15959TIP3    H169368   4.136   5.889   5.971  0.5723  1.8527 -0.5459
15959TIP3    H269369   4.009   5.838   6.037  0.7226 -1.5438 -2.7573
15960TIP3   OH269370   6.043   3.271  14.061 -0.0068 -0.8288 -0.2466
15960TIP3    H169371   5.993   3.196  14.030 -0.8735 -0.0560 -0.7132
15960TIP3    H269372   6.045   3.260  14.157  0.3041 -1.7094 -0.3508
15961TIP3   OH269373   5.272   6.766  14.866  0.3917 -0.5271 -0.1699
15961TIP3    H169374   5.216   6.756  14.943  0.8765 -0.7073  0.1619
15961TIP3    H269375   5.214   6.802  14.798  0.1812  0.5506  0.5659
15962TIP3   OH269376   4.267   4.189  16.874 -0.0830  0.4021 -0.3592
15962TIP3    H169377   4.188   4.142  16.901  0.6295  0.1595  1.3492
15962TIP3    H269378   4.235   4.264  16.823 -1.3822  0.0796 -0.0229
15963TIP3   OH269379   3.131   4.788   0.163 -0.4885 -0.4724 -0.0698
15963TIP3    H169380   3.130   4.840   0.083  0.4393 -0.6385 -0.1912
15963TIP3    H269381   3.063   4.827   0.218  0.6761  1.3126  0.1187
15964TIP3   OH269382   3.056   2.135  11.644  0.4535  0.4671  0.3760
15964TIP3    H169383   3.050   2.212  11.700 -1.5177 -0.3488  1.3044
15964TIP3    H269384   3.086   2.065  11.702  1.7076  0.3746 -0.3466
15965TIP3   OH269385   3.385   3.976   0.814  0.4441  0.5175 -0.9519
15965TIP3    H169386   3.329   4.054   0.807 -0.0651  0.0593 -1.9847
15965TIP3    H269387   3.391   3.960   0.909  0.3299  1.6523 -0.7518
15966TIP3   OH269388   6.380   3.638  14.070  0.0897  0.1280 -0.1099
15966TIP3    H169389   6.318   3.590  14.015 -2.2422  1.8207  0.9236
15966TIP3    H269390   6.407   3.713  14.016  0.5444 -0.1142 -0.2227
15967TIP3   OH269391   3.204   6.686   6.398  0.2280 -0.2436  0.4113
15967TIP3    H169392   3.274   6.750   6.382  0.8683 -1.6242 -2.5654
15967TIP3    H269393   3.246   6.616   6.447  0.1565  0.3379  1.3289
15968TIP3   OH269394   6.750   4.308  14.071 -0.0902 -0.2100 -0.1929
15968TIP3    H169395   6.749   4.403  14.081  0.1198 -0.3501  1.1805
15968TIP3    H269396   6.715   4.274  14.153  0.0427 -1.3225 -0.5885
15969TIP3   OH269397   2.615   1.570  12.734 -0.1473 -0.1927 -0.1468
15969TIP3    H169398   2.567   1.646  12.700 -0.1597  0.7759  1.9481
15969TIP3    H269399   2.626   1.512  12.658  0.3589  2.1473 -1.9132
15970TIP3   OH269400   5.766   5.941   1.825  0.5447 -0.4947 -0.3771
15970TIP3    H169401   5.713   5.986   1.758  0.7357  0.1310 -0.1164
15970TIP3    H269402   5.708   5.873   1.858  0.7090 -1.3096 -1.7093
15971TIP3   OH269403   3.176   3.751   2.684  0.7366 -0.2100 -0.0932
15971TIP3    H169404   3.267   3.726   2.701  0.4656 -1.2340 -0.0861
15971TIP3    H269405   3.159   3.823   2.745  1.0269 -1.1409  1.1169
15972TIP3   OH269406   0.438   5.260   3.918  0.6597  0.6178  0.3234
15972TIP3    H169407   0.502   5.331   3.911  0.6470  0.7704  1.6156
15972TIP3    H269408   0.358   5.302   3.949 -0.3449  0.5599 -2.0616
15973TIP3   OH269409   6.003   4.150   2.962 -0.2337  0.1878 -0.3065
15973TIP3    H169410   6.035   4.193   2.883  0.7834  0.1453  0.0715
15973TIP3    H269411   5.945   4.080   2.930  4.5421 -3.5646 -1.3398
15974TIP3   OH269412   4.565   5.864   1.324 -0.0164 -0.1158 -0.0033
15974TIP3    H169413   4.650   5.878   1.283 -0.1845 -2.2067 -1.0906
15974TIP3    H269414   4.503   5.865   1.251 -0.4677 -2.4906  0.3338
15975TIP3   OH269415   2.028   1.116  16.345 -0.2037  0.1603 -0.0472
15975TIP3    H169416   1.958   1.147  16.402 -0.2063 -0.4315  0.2860
15975TIP3    H269417   1.988   1.046  16.293 -0.0221  0.2273 -0.2816
15976TIP3   OH269418   1.607   5.086  16.041  0.2863  0.1626 -0.2040
15976TIP3    H169419   1.625   5.072  15.948  0.5289  0.9055 -0.2708
15976TIP3    H269420   1.637   5.175  16.059 -1.7916  0.8354  0.0699
15977TIP3   OH269421   5.644   5.235  16.189 -0.0217 -0.1241  0.4072
15977TIP3    H169422   5.696   5.310  16.162 -1.0210  0.1462 -0.7747
15977TIP3    H269423   5.599   5.207  16.110 -1.1275 -0.8032  1.2664
15978TIP3   OH269424   0.506   3.087   2.579 -0.3695 -0.2874 -0.8059
15978TIP3    H169425   0.545   3.087   2.666 -0.5329 -0.2742 -0.7313
15978TIP3    H269426   0.457   3.169   2.575 -0.9805 -0.6385 -0.6276
15979TIP3   OH269427   1.632   1.329   5.754 -0.2101  0.2969 -0.3100
15979TIP3    H169428   1.577   1.272   5.700  0.3775 -1.3439  0.7874
15979TIP3    H269429   1.719   1.320   5.716 -0.5980  2.7993 -1.9691
15980TIP3   OH269430   4.959   0.982   0.248 -0.3395  0.1038 -0.4092
15980TIP3    H169431   4.886   1.043   0.244  1.5696  2.5496  1.1770
15980TIP3    H269432   4.921   0.898   0.224 -3.8693  1.1409  1.2864
15981TIP3   OH269433   6.634   4.203  16.956 -0.2370 -0.1130 -0.0500
15981TIP3    H169434   6.627   4.172  17.046  0.7017  0.2757  0.1601
15981TIP3    H269435   6.606   4.295  16.960  1.3174  0.3578  0.1281
15982TIP3   OH269436   4.577   4.834  12.081  0.1254 -0.3258 -1.0248
15982TIP3    H169437   4.484   4.856  12.087 -0.0228 -1.1966 -0.0266
15982TIP3    H269438   4.598   4.845  11.989 -0.8692  0.2761 -1.1876
15983TIP3   OH269439   2.367   4.345   6.017  0.1854  0.0861 -0.7925
15983TIP3    H169440   2.442   4.325   5.962  1.4365  1.8164  0.2358
15983TIP3    H269441   2.365   4.441   6.021  0.2412  0.0038  2.3092
15984TIP3   OH269442   1.652   3.522  15.824  0.6529 -0.0166  0.0755
15984TIP3    H169443   1.719   3.584  15.853 -0.3700  0.6006  1.1676
15984TIP3    H269444   1.577   3.577  15.799 -0.3880 -0.8157  1.3745
15985TIP3   OH269445   0.303   2.979  14.808  0.1432 -0.0049  0.3027
15985TIP3    H169446   0.271   2.920  14.877 -0.2370  0.8857  0.9012
15985TIP3    H269447   0.350   3.048  14.855  0.7663  0.0641 -0.4074
15986TIP3   OH269448   3.531   2.961  11.972  0.0130  0.3393 -0.0878
15986TIP3    H169449   3.582   3.013  11.909 -0.2721 -0.5846 -1.0992
15986TIP3    H269450   3.454   3.015  11.991  1.1933  1.6020  1.2060
15987TIP3   OH269451   3.397   0.034   1.466 -0.1496 -0.2321 -0.4907
15987TIP3    H169452   3.463   0.103   1.459  0.7246 -0.9065  0.7792
15987TIP3    H269453   3.421  -0.014   1.546 -1.3049 -1.4036 -0.8223
15988TIP3   OH269454   6.691   5.407   5.763  0.5149  0.9386  0.5350
15988TIP3    H169455   6.741   5.337   5.806  1.2227  0.8429 -0.4254
15988TIP3    H269456   6.627   5.434   5.828  1.6791  0.9138  1.7243
15989TIP3   OH269457   1.272   0.185  16.820 -0.7867 -0.2931 -0.1250
15989TIP3    H169458   1.233   0.106  16.856  1.7687 -0.8881  1.5036
15989TIP3    H269459   1.352   0.198  16.872  2.0059  0.0033 -4.2688
15990TIP3   OH269460   4.287   6.118   0.960 -0.1044 -0.1144 -0.4531
15990TIP3    H169461   4.271   6.095   1.052  0.4851 -3.0504 -1.0485
15990TIP3    H269462   4.211   6.172   0.936 -0.5950  0.1510  1.5622
15991TIP3   OH269463   4.515   0.217  16.232 -0.7159 -0.2195 -0.2496
15991TIP3    H169464   4.494   0.305  16.201  0.6316 -0.0433 -0.6792
15991TIP3    H269465   4.557   0.174  16.157 -0.2437 -0.8075  0.3431
15992TIP3   OH269466   1.064   0.085   6.538  0.3640 -0.5375  0.7301
15992TIP3    H169467   1.071   0.008   6.482  2.1773 -2.1973  3.1040
15992TIP3    H269468   0.985   0.071   6.589 -0.6752  0.4360 -0.5622
15993TIP3   OH269469   2.295   3.797   3.665  0.8835  0.3325 -0.0664
15993TIP3    H169470   2.241   3.720   3.686 -0.8319  1.5304  0.0348
15993TIP3    H269471   2.376   3.783   3.713 -0.1143 -0.5669  1.4179
15994TIP3   OH269472   6.560   2.456   3.596 -0.4026 -0.1419  0.4681
15994TIP3    H169473   6.596   2.469   3.508  0.4529  1.2238  0.9973
15994TIP3    H269474   6.477   2.505   3.595 -0.1021  0.3743  0.6009
15995TIP3   OH269475   3.140   4.846   3.703  0.5830  0.0988 -0.1327
15995TIP3    H169476   3.230   4.849   3.737  0.4616  1.3042  0.1037
15995TIP3    H269477   3.141   4.904   3.627  1.1206 -3.3804 -2.9352
15996TIP3   OH269478   6.318   6.504  14.970  0.6684 -0.1077 -0.4733
15996TIP3    H169479   6.407   6.513  15.003  0.0205 -0.6064  1.5242
15996TIP3    H269480   6.300   6.410  14.976  0.1258 -0.0500 -1.1449
15997TIP3   OH269481   3.406   0.695   4.484  0.6559 -0.5344 -0.3218
15997TIP3    H169482   3.351   0.714   4.560  1.8579 -1.7808  0.8928
15997TIP3    H269483   3.479   0.756   4.491  1.9156 -2.1129  0.7971
15998TIP3   OH269484   2.453   5.394   1.331 -0.2280  0.0769 -0.2830
15998TIP3    H169485   2.386   5.327   1.315  0.2676 -0.6522  0.6648
15998TIP3    H269486   2.468   5.433   1.245 -1.2947 -0.2928 -0.6527
15999TIP3   OH269487   0.861   0.503  11.658 -0.0147 -0.4364  0.2038
15999TIP3    H169488   0.853   0.596  11.678  1.9094 -0.0184 -0.8658
15999TIP3    H269489   0.887   0.464  11.742 -1.1311 -0.0750  0.7325
16000TIP3   OH269490   2.787   4.496  11.539  0.7906 -0.6715 -0.1659
16000TIP3    H169491   2.844   4.513  11.463 -0.0966 -1.8294 -1.1073
16000TIP3    H269492   2.797   4.402  11.556 -1.0252 -0.9504 -0.5132
16001TIP3   OH269493   0.955   4.882   4.571  0.5087  0.1761 -0.1847
16001TIP3    H169494   0.960   4.887   4.666 -0.2938  1.0422 -0.1821
16001TIP3    H269495   0.896   4.810   4.553  0.0126  0.5408 -0.0171
16002TIP3   OH269496   2.082   5.235  16.557  0.5537  0.0886 -0.4192
16002TIP3    H169497   2.014   5.223  16.490  0.9036 -0.0033 -0.7577
16002TIP3    H269498   2.036   5.279  16.628  0.4173  1.0941 -1.1213
16003TIP3   OH269499   1.352   5.606  15.107 -0.2399 -0.1853 -0.6838
16003TIP3    H169500   1.394   5.529  15.145 -0.4060  0.4505  0.8069
16003TIP3    H269501   1.299   5.571  15.035  1.9334 -1.1278 -1.9012
16004TIP3   OH269502   1.864   4.824   2.544  0.4856  0.3967  0.1727
16004TIP3    H169503   1.946   4.780   2.520  0.6593  0.3504  0.8621
16004TIP3    H269504   1.876   4.851   2.635 -0.9817 -1.2775  0.8914
16005TIP3   OH269505   5.581   0.860   1.359  0.2568 -0.1457  0.3894
16005TIP3    H169506   5.505   0.804   1.344 -0.1403 -0.7744  4.3208
16005TIP3    H269507   5.655   0.800   1.356  0.1430 -0.3345  1.2521
16006TIP3   OH269508   3.897   3.831   4.003  0.0643 -0.2293 -0.0028
16006TIP3    H169509   3.910   3.736   4.008 -1.1659 -0.3084  2.3727
16006TIP3    H269510   3.950   3.866   4.076  0.7721  0.9577 -1.0532
16007TIP3   OH269511   3.445   4.605  10.969 -0.3636 -0.4320 -0.4047
16007TIP3    H169512   3.451   4.701  10.969  0.2493 -0.4698 -0.4962
16007TIP3    H269513   3.533   4.576  10.946 -0.1704 -1.0449  1.0684
16008TIP3   OH269514   0.550   4.442   0.258 -0.6686  0.0603 -0.2775
16008TIP3    H169515   0.472   4.391   0.240 -0.5203 -0.2550 -0.0165
16008TIP3    H269516   0.542   4.469   0.350 -0.1871 -0.4668 -0.0757
16009TIP3   OH269517   0.390   1.801  11.392  0.1818 -0.3822  0.3411
16009TIP3    H169518   0.486   1.794  11.393  0.0935 -1.7531  2.4347
16009TIP3    H269519   0.360   1.715  11.364 -0.4451 -0.2592  0.6330
16010TIP3   OH269520   1.159   5.620   3.877  0.0922  0.5647 -0.4898
16010TIP3    H169521   1.222   5.684   3.912  0.2690  0.2518 -0.2375
16010TIP3    H269522   1.121   5.664   3.801  1.8043  0.1138 -1.6345
16011TIP3   OH269523   4.919   2.737  15.356 -0.0318 -0.3867 -0.0387
16011TIP3    H169524   4.954   2.808  15.302  1.2197 -1.1156 -0.1908
16011TIP3    H269525   4.825   2.738  15.339  0.1718  0.2880 -1.1584
16012TIP3   OH269526   5.263   3.728  13.066  0.3294 -0.8420  0.4006
16012TIP3    H169527   5.342   3.722  13.011  0.7087 -0.5511  0.9137
16012TIP3    H269528   5.250   3.639  13.099  0.2414 -0.9654  0.0447
16013TIP3   OH269529   4.179   3.931  10.821  0.6479 -0.0863  0.1460
16013TIP3    H169530   4.249   3.867  10.809  0.9916  0.4354 -0.6965
16013TIP3    H269531   4.211   3.988  10.891  1.1366  0.2348 -0.3325
16014TIP3   OH269532   4.916   6.386   0.024 -0.2288 -0.2005  0.2600
16014TIP3    H169533   4.871   6.468   0.044  0.2070  0.2267 -0.4649
16014TIP3    H269534   4.921   6.385  -0.072  0.3302 -0.7687  0.2969
16015TIP3   OH269535   0.508   3.991  13.419 -0.0015 -0.1212 -0.3053
16015TIP3    H169536   0.513   3.898  13.442  0.2687 -0.4311 -1.5791
16015TIP3    H269537   0.526   4.037  13.501  0.2527 -1.1912  0.2493
16016TIP3   OH269538   5.023   4.880  15.149 -0.0452 -0.0218 -0.1390
16016TIP3    H169539   5.003   4.787  15.151 -0.6284  0.1073  2.2827
16016TIP3    H269540   4.937   4.923  15.150  0.2049  0.5620 -1.8860
16017TIP3   OH269541   6.716   0.016  10.789  0.4204  0.0376  0.0799
16017TIP3    H169542   6.655   0.082  10.755  0.9851  2.0313  2.7503
16017TIP3    H269543   6.799   0.063  10.797  0.3861 -0.4017  3.7862
16018TIP3   OH269544   4.962   1.899  16.975 -0.7433 -0.4332 -0.1998
16018TIP3    H169545   4.871   1.879  16.993 -0.9915  0.5040 -0.3989
16018TIP3    H269546   4.966   1.994  16.973  0.5361 -0.4194  1.3820
16019TIP3   OH269547   3.460   0.241   4.785 -0.3203  0.2224 -0.5483
16019TIP3    H169548   3.413   0.310   4.738 -1.5132 -0.1891  0.0170
16019TIP3    H269549   3.392   0.196   4.835  0.7898  0.1034  0.8932
16020TIP3   OH269550   4.646   6.810   5.357  0.1009 -1.0771 -0.2901
16020TIP3    H169551   4.593   6.862   5.295  0.1808  1.3866  1.6287
16020TIP3    H269552   4.734   6.847   5.350  0.5025 -1.9602  0.0347
16021TIP3   OH269553   0.466   3.128  14.994 -0.5067 -0.0222 -0.0330
16021TIP3    H169554   0.452   3.223  14.985  1.1065  0.1469 -1.0456
16021TIP3    H269555   0.398   3.099  15.054 -1.2975  1.7179 -0.0567
16022TIP3   OH269556   4.827   4.304  16.091 -0.2018  0.5398  0.1145
16022TIP3    H169557   4.874   4.261  16.020  1.5746  1.9197  0.4297
16022TIP3    H269558   4.839   4.398  16.075 -1.0744  0.8758  1.3798
16023TIP3   OH269559   0.511   2.700   5.239 -0.0846 -0.2072 -0.3577
16023TIP3    H169560   0.541   2.609   5.233 -1.0353 -0.5621  0.0401
16023TIP3    H269561   0.415   2.693   5.242 -0.1367  0.7571  0.5016
16024TIP3   OH269562   2.623   3.459  15.781  0.2972 -0.8462  0.0068
16024TIP3    H169563   2.643   3.381  15.728  0.8502 -0.8677  0.2402
16024TIP3    H269564   2.629   3.532  15.720  0.7045 -0.8945 -0.0148
16025TIP3   OH269565   6.734   0.037   3.275  0.0068  0.4353 -0.1294
16025TIP3    H169566   6.794   0.101   3.237 -2.9655  2.2382 -1.9972
16025TIP3    H269567   6.667   0.090   3.317 -2.3699 -1.4315 -1.4829
16026TIP3   OH269568   2.131   3.342   2.103 -0.2922 -0.0178 -0.0016
16026TIP3    H169569   2.105   3.325   2.013  0.3926 -1.0436 -0.0116
16026TIP3    H269570   2.150   3.436   2.106  1.9309 -0.3929 -1.5062
16027TIP3   OH269571   5.650   5.943   2.394  0.2532  0.2994 -0.1877
16027TIP3    H169572   5.732   5.980   2.362  0.1223 -0.8070 -1.8482
16027TIP3    H269573   5.641   5.978   2.483  3.1786 -0.6311  0.5303
16028TIP3   OH269574   4.637   2.698   2.986  0.2077  0.1671  0.3263
16028TIP3    H169575   4.637   2.737   3.074  1.4235  0.0469  0.3882
16028TIP3    H269576   4.591   2.762   2.931  1.7377  1.4591  0.5246
16029TIP3   OH269577   4.443   3.615  14.981  0.3857  0.0135  0.2696
16029TIP3    H169578   4.437   3.682  14.913  2.0415  1.1646  1.2176
16029TIP3    H269579   4.537   3.595  14.986  0.2154 -0.4635  1.8133
16030TIP3   OH269580   6.259   3.653   1.533 -0.6114  0.6387 -0.1675
16030TIP3    H169581   6.239   3.712   1.605  1.4581  0.8674  0.2430
16030TIP3    H269582   6.268   3.567   1.573  1.8443  0.9713  0.1099
16031TIP3   OH269583   5.025   2.345  16.402  0.9561 -0.1999 -0.2778
16031TIP3    H169584   4.976   2.417  16.363  0.1871 -0.3970  0.3306
16031TIP3    H269585   5.116   2.376  16.404  0.2272  1.8808  2.5538
16032TIP3   OH269586   2.857   0.601  15.449  0.5953  0.0500  0.4655
16032TIP3    H169587   2.805   0.634  15.375  0.4536  0.7468  0.8636
16032TIP3    H269588   2.867   0.508  15.432  0.1745  0.1211 -0.2017
16033TIP3   OH269589   5.666   3.266   0.898  0.6478  0.3200  0.2397
16033TIP3    H169590   5.683   3.347   0.850  1.4926 -0.6271 -1.1023
16033TIP3    H269591   5.697   3.284   0.987 -0.5695  1.9616  0.3487
16034TIP3   OH269592   0.283   3.930  12.913 -0.0701  0.1334  0.5572
16034TIP3    H169593   0.317   3.952  13.000 -0.0650  0.4942  0.4643
16034TIP3    H269594   0.322   3.995  12.854  0.3872 -0.4639  0.1875
16035TIP3   OH269595   5.690   2.244  11.788  0.3946  0.2273 -0.3474
16035TIP3    H169596   5.709   2.329  11.827  2.4209  0.8856 -2.6136
16035TIP3    H269597   5.595   2.234  11.799  0.4384  1.7755  1.8485
16036TIP3   OH269598   3.958   1.529   5.582 -0.0369 -0.3729  0.2384
16036TIP3    H169599   3.982   1.610   5.628 -1.2835 -0.6996  1.5070
16036TIP3    H269600   4.038   1.502   5.537  0.8357  0.6996  1.1169
16037TIP3   OH269601   2.527   3.099  16.728  1.1360  0.1252 -0.2817
16037TIP3    H169602   2.613   3.055  16.730  1.3453  0.5609  0.1674
16037TIP3    H269603   2.519   3.141  16.813  0.4988  0.1408 -0.3473
16038TIP3   OH269604   6.449   6.491   0.473 -0.5802 -0.1666  0.4333
16038TIP3    H169605   6.392   6.450   0.408  2.1947 -2.3811 -0.6757
16038TIP3    H269606   6.477   6.573   0.432  0.1114 -0.9333 -0.6478
16039TIP3   OH269607   3.317   4.720  14.160  0.6654  0.2811  0.0601
16039TIP3    H169608   3.345   4.726  14.251  0.5433 -0.2861  0.1410
16039TIP3    H269609   3.396   4.695  14.112  0.5889 -0.0501  0.1046
16040TIP3   OH269610   1.041   0.147   1.511 -0.1607 -0.0171 -0.6118
16040TIP3    H169611   1.017   0.139   1.603  1.7456 -0.6456 -0.1501
16040TIP3    H269612   1.016   0.236   1.487  0.2081  0.4761  0.7804
16041TIP3   OH269613   5.455   5.008  15.790 -0.0962 -0.0317 -0.4529
16041TIP3    H169614   5.443   4.925  15.836 -2.1712  0.7309  0.4431
16041TIP3    H269615   5.483   4.983  15.702  0.7418 -1.6121  0.2395
16042TIP3   OH269616   2.050   5.765  16.849 -0.0595 -0.4573  0.0732
16042TIP3    H169617   2.048   5.769  16.945  1.5578 -0.7446  0.1285
16042TIP3    H269618   2.127   5.816  16.824 -0.1272 -0.8866 -1.0378
16043TIP3   OH269619   3.329   2.352  14.732 -0.1620  0.3693  0.3651
16043TIP3    H169620   3.261   2.284  14.730 -0.6637  0.8695  0.3141
16043TIP3    H269621   3.286   2.427  14.774 -0.1537  1.2422 -1.1790
16044TIP3   OH269622   1.598   5.644  12.774  0.0845 -0.5047  0.3387
16044TIP3    H169623   1.535   5.673  12.709  0.2902 -0.8675 -0.0224
16044TIP3    H269624   1.545   5.606  12.844 -0.1434  0.0180  0.4522
16045TIP3   OH269625   4.101   6.057   1.966  0.1924  0.3400 -0.2043
16045TIP3    H169626   4.016   6.100   1.965 -0.3958 -0.7659  1.0497
16045TIP3    H269627   4.165   6.128   1.972 -0.6908  1.1058  0.1283
16046TIP3   OH269628   3.281   0.751   3.637 -0.3711 -0.5372 -0.1270
16046TIP3    H169629   3.226   0.801   3.576  1.2228  1.0660 -0.2788
16046TIP3    H269630   3.221   0.726   3.708 -1.3296  1.0321 -0.3699
16047TIP3   OH269631   1.896   4.130  16.796 -0.0044 -0.0098  0.3421
16047TIP3    H169632   1.896   4.042  16.832 -0.3201  0.6780  2.0714
16047TIP3    H269633   1.853   4.122  16.711 -1.1725 -1.3075  1.0425
16048TIP3   OH269634   3.378   6.224  16.425 -0.0553 -0.6026 -0.1331
16048TIP3    H169635   3.371   6.156  16.492 -0.9027 -0.7495 -0.3657
16048TIP3    H269636   3.301   6.279  16.439  1.8771  1.7665  1.6282
16049TIP3   OH269637   4.771   2.970  16.548  0.0266 -0.2900 -0.0938
16049TIP3    H169638   4.751   2.876  16.546  2.2425 -0.7937 -2.9389
16049TIP3    H269639   4.695   3.011  16.507  0.4017 -1.1650 -1.7090
16050TIP3   OH269640   2.764   0.169  12.386 -0.1217 -0.1456 -0.0015
16050TIP3    H169641   2.745   0.115  12.463  0.7814  0.0311  0.3504
16050TIP3    H269642   2.702   0.242  12.392 -1.0860 -0.9278 -0.2708
16051TIP3   OH269643   5.539   1.220   1.551  0.5631 -0.4711 -0.3454
16051TIP3    H169644   5.497   1.270   1.481 -0.4162  0.6227  1.0080
16051TIP3    H269645   5.493   1.135   1.551 -1.3781  0.5482  0.8284
16052TIP3   OH269646   3.628   1.756  11.801 -0.2135 -0.4595  0.6687
16052TIP3    H169647   3.684   1.796  11.868  2.3567  2.1119 -2.8208
16052TIP3    H269648   3.565   1.824  11.779 -0.9302 -1.2233  0.3250
16053TIP3   OH269649   0.505   4.384   3.246 -0.3362  0.2256  0.0613
16053TIP3    H169650   0.562   4.329   3.300 -1.3471  1.1050  2.1159
16053TIP3    H269651   0.564   4.444   3.202  0.4316  0.3973  1.2952
16054TIP3   OH269652   5.861   4.578  14.154 -0.0268 -0.6403 -0.3056
16054TIP3    H169653   5.949   4.563  14.188 -0.6795 -0.3978  1.5202
16054TIP3    H269654   5.835   4.663  14.189 -0.8237 -0.5067 -1.1981
16055TIP3   OH269655   3.769   2.029  14.195 -0.0777 -0.5218 -0.1061
16055TIP3    H169656   3.681   2.024  14.158 -0.1659 -1.6065  0.2533
16055TIP3    H269657   3.794   1.939  14.211  1.4502 -0.2662 -0.9929
16056TIP3   OH269658   5.076   6.402  11.004  0.0783  0.5145  0.7037
16056TIP3    H169659   5.074   6.323  11.058  1.4037  0.4389  0.6557
16056TIP3    H269660   4.985   6.415  10.977  0.0387 -1.7115 -0.3107
16057TIP3   OH269661   5.682   2.581   3.320 -0.5557 -0.3665  1.0103
16057TIP3    H169662   5.626   2.535   3.382  0.2252 -0.2427  1.8244
16057TIP3    H269663   5.770   2.574   3.358  0.1204 -1.2697 -0.6491
16058TIP3   OH269664   2.353   4.214  11.534  0.0605  0.8779 -0.2307
16058TIP3    H169665   2.445   4.190  11.519 -0.6139 -1.1087 -1.2586
16058TIP3    H269666   2.343   4.296  11.486  1.3980  1.3131  0.1927
16059TIP3   OH269667   0.453   3.327   1.645 -0.1177  0.4478 -0.6504
16059TIP3    H169668   0.435   3.245   1.599 -2.6011 -0.1733  1.3310
16059TIP3    H269669   0.548   3.326   1.658 -0.0301 -1.8552 -1.1546
16060TIP3   OH269670   2.793   5.175   6.136  0.2053 -0.0397  0.1931
16060TIP3    H169671   2.715   5.204   6.088 -1.4758 -2.6828  1.1988
16060TIP3    H269672   2.852   5.250   6.133 -2.6895  2.3457  0.0794
16061TIP3   OH269673   0.638   3.802  13.179 -0.0693 -0.1768 -0.3540
16061TIP3    H169674   0.652   3.861  13.105 -1.1349  0.0747 -0.3676
16061TIP3    H269675   0.669   3.717  13.148  1.5254  0.3780 -0.3162
16062TIP3   OH269676   6.557   4.859  12.376 -0.3574  0.2246 -0.2598
16062TIP3    H169677   6.519   4.826  12.458  0.2449 -1.7405 -0.7347
16062TIP3    H269678   6.649   4.834  12.382 -0.5275 -0.8706 -1.9936
16063TIP3   OH269679   3.121   3.781   5.542 -0.0965 -0.3185  0.2174
16063TIP3    H169680   3.180   3.856   5.543  1.5653 -1.5905  1.8301
16063TIP3    H269681   3.162   3.719   5.482 -1.5617  0.0939 -1.2632
16064TIP3   OH269682   2.926   6.042   0.509 -0.0157 -0.0870 -0.3654
16064TIP3    H169683   2.853   6.063   0.451  0.1649  0.6592 -0.3225
16064TIP3    H269684   2.908   6.090   0.590  0.7725  0.4852 -0.5315
16065TIP3   OH269685   5.407   0.773  11.104 -0.4432  0.3982  0.1491
16065TIP3    H169686   5.335   0.835  11.097 -0.8643 -0.1404 -0.3612
16065TIP3    H269687   5.390   0.708  11.035  0.0798 -0.1868  0.5615
16066TIP3   OH269688   1.080   1.478  12.076 -0.0872  0.0823 -0.3976
16066TIP3    H169689   1.142   1.430  12.132 -2.3008  1.0899  3.0444
16066TIP3    H269690   1.055   1.415  12.009  1.9389 -1.4916  0.2624
16067TIP3   OH269691   3.906   1.293  12.066 -0.1643  0.4466  0.6428
16067TIP3    H169692   3.877   1.345  12.141  1.5499  0.4813  1.3063
16067TIP3    H269693   3.980   1.242  12.099 -1.8592 -2.5233  0.0281
16068TIP3   OH269694   0.329   1.257  12.127  0.5497 -0.9432  0.8075
16068TIP3    H169695   0.265   1.186  12.121 -0.0842 -0.3350  0.1480
16068TIP3    H269696   0.313   1.296  12.213 -1.2746  0.3815 -0.0769
16069TIP3   OH269697   0.077   0.505   5.286 -0.2879  0.7317 -0.3892
16069TIP3    H169698   0.106   0.475   5.372  0.6826  1.3526 -0.4813
16069TIP3    H269699   0.062   0.425   5.236 -1.0846  0.3648  0.4267
16070TIP3   OH269700   3.598   4.014   0.632 -0.3259 -0.2192 -0.2940
16070TIP3    H169701   3.673   3.961   0.659  0.1136  0.6603  0.2497
16070TIP3    H269702   3.525   3.977   0.681 -0.2706 -1.1465 -0.9022
16071TIP3   OH269703   1.361   3.469   0.023 -0.2960 -0.4033  0.1805
16071TIP3    H169704   1.452   3.446   0.044  0.6846  2.2954 -0.9550
16071TIP3    H269705   1.361   3.481  -0.072 -1.6692  0.3401  0.2655
16072TIP3   OH269706   4.764   3.928   3.438 -0.3610  0.4071  0.7244
16072TIP3    H169707   4.718   3.997   3.485  0.0985  1.8793 -0.9362
16072TIP3    H269708   4.803   3.972   3.362  1.3684 -1.3397  0.5419
16073TIP3   OH269709   1.347   2.322  15.813 -0.3932  0.2948 -0.2537
16073TIP3    H169710   1.322   2.411  15.837 -0.3426  0.4983 -0.9413
16073TIP3    H269711   1.402   2.291  15.885 -0.6188  0.7331  0.0986
16074TIP3   OH269712   6.225   4.959  16.418 -0.1202  0.7417 -0.6589
16074TIP3    H169713   6.234   5.048  16.451  1.2497  0.8912 -1.3827
16074TIP3    H269714   6.207   4.970  16.325 -0.0700  0.2654 -0.7222
16075TIP3   OH269715   5.424   1.386   4.621 -0.5723  0.7402  0.4489
16075TIP3    H169716   5.517   1.363   4.613 -1.0756 -1.3895  0.5428
16075TIP3    H269717   5.413   1.460   4.561  1.1093  0.8342  0.2173
16076TIP3   OH269718   2.101   0.677  13.136 -0.0377 -0.6339 -0.1532
16076TIP3    H169719   2.136   0.730  13.064 -0.0136 -0.9522 -0.3789
16076TIP3    H269720   2.123   0.727  13.215 -4.1355  2.0745 -0.5860
16077TIP3   OH269721   0.173   5.754  16.026  0.8285 -0.3192  0.6701
16077TIP3    H169722   0.269   5.746  16.030  1.1344  0.3306 -3.3957
16077TIP3    H269723   0.143   5.666  16.001  0.7563  0.4837 -2.2018
16078TIP3   OH269724   0.316   6.368  16.965 -0.0389 -0.1729  0.2713
16078TIP3    H169725   0.407   6.364  16.994 -0.1718 -2.7051  0.4610
16078TIP3    H269726   0.320   6.399  16.875  0.8600  1.4769  0.8607
16079TIP3   OH269727   3.818   0.530  14.733 -0.1036  0.2882  0.7777
16079TIP3    H169728   3.804   0.496  14.645 -1.8590  1.2407  0.6820
16079TIP3    H269729   3.844   0.453  14.784 -0.0075 -0.4391 -0.3443
16080TIP3   OH269730   3.953   6.255  15.611 -0.0381 -0.1693 -0.2657
16080TIP3    H169731   3.867   6.236  15.575  0.1600 -1.1352 -0.2476
16080TIP3    H269732   4.013   6.242  15.538  0.1268  0.1994 -0.1971
16081TIP3   OH269733   4.071   5.822   6.501  0.7111 -0.6815  1.1026
16081TIP3    H169734   3.987   5.846   6.463  2.0897 -0.9642 -2.3160
16081TIP3    H269735   4.049   5.785   6.587 -2.5638 -0.2102  0.5371
16082TIP3   OH269736   3.372   1.505  12.221 -0.7353  0.1935  0.4469
16082TIP3    H169737   3.445   1.447  12.202 -0.9684 -0.4476  1.4436
16082TIP3    H269738   3.385   1.581  12.164  0.4146 -0.1453  0.2574
16083TIP3   OH269739   5.922   4.778  12.176 -0.0905 -0.0319 -0.3552
16083TIP3    H169740   5.922   4.740  12.088  0.9303 -1.2008  0.1443
16083TIP3    H269741   5.829   4.793  12.195 -0.4160 -1.0130 -1.1065
16084TIP3   OH269742   4.062   1.362   0.212  0.1180 -0.6326 -0.3137
16084TIP3    H169743   4.099   1.409   0.287  0.4284 -0.2392 -0.7085
16084TIP3    H269744   4.114   1.282   0.205  1.1053  0.0672 -1.0579
16085TIP3   OH269745   3.337   2.256  15.691  0.5853  0.0311  0.1128
16085TIP3    H169746   3.349   2.176  15.743  0.0712 -0.5258 -0.6085
16085TIP3    H269747   3.411   2.256  15.631  0.8987  0.4010  0.5021
16086TIP3   OH269748   4.850   1.246  15.081  0.0811  0.0857  0.3274
16086TIP3    H169749   4.763   1.241  15.041 -0.4237  1.0460  1.2947
16086TIP3    H269750   4.906   1.199  15.020 -1.0955 -0.4509 -0.3662
16087TIP3   OH269751   4.020   0.314   6.116  0.0931  0.7062 -0.0339
16087TIP3    H169752   3.957   0.276   6.177 -1.1173  0.5855 -1.3542
16087TIP3    H269753   4.103   0.314   6.164 -0.5742 -0.6202  1.1282
16088TIP3   OH269754   3.750   2.584   0.854 -0.3272  0.1267  1.0113
16088TIP3    H169755   3.844   2.577   0.872 -0.2960  0.2944  0.9093
16088TIP3    H269756   3.744   2.580   0.759 -0.3843  0.5985  0.9928
16089TIP3   OH269757   0.594   3.659   3.856 -0.2499  0.2217 -0.1677
16089TIP3    H169758   0.619   3.648   3.947 -1.2312  0.2342  0.1082
16089TIP3    H269759   0.603   3.571   3.818  1.9274  0.5685 -0.5286
16090TIP3   OH269760   1.326   5.165   2.526 -0.4030 -0.6270  0.2765
16090TIP3    H169761   1.331   5.152   2.431  0.2153 -1.7636  0.4522
16090TIP3    H269762   1.254   5.110   2.555 -0.8807  0.0663  0.4121
16091TIP3   OH269763   4.557   0.704  16.758 -0.0391  0.5296 -0.5087
16091TIP3    H169764   4.474   0.664  16.784  1.4284 -1.6556  0.9213
16091TIP3    H269765   4.594   0.644  16.693 -0.1276  2.1429 -2.1114
16092TIP3   OH269766   6.354   5.337   3.518  0.0148 -0.0931  0.1825
16092TIP3    H169767   6.347   5.320   3.612 -0.5676 -2.8136 -0.3337
16092TIP3    H269768   6.442   5.374   3.506 -0.3693  1.4791  1.9327
16093TIP3   OH269769   2.525   6.699  15.100 -0.8907 -0.2399  0.6151
16093TIP3    H169770   2.471   6.631  15.140  2.1340 -2.3240  1.3650
16093TIP3    H269771   2.615   6.669  15.115  0.4467  2.3608 -1.8630
16094TIP3   OH269772   5.953   1.735  14.711 -0.4892  0.1550 -0.4282
16094TIP3    H169773   5.945   1.827  14.735  1.8548  0.2786  0.0434
16094TIP3    H269774   5.883   1.691  14.758  0.4939  1.2187  2.1475
16095TIP3   OH269775   0.796   6.625  12.562 -0.4737 -0.6171 -0.0773
16095TIP3    H169776   0.806   6.687  12.490 -0.0695 -2.0916 -1.3157
16095TIP3    H269777   0.761   6.545  12.521 -1.2929 -1.1197  1.5297
16096TIP3   OH269778   3.385   5.924   3.806 -0.0819  0.0905 -0.0420
16096TIP3    H169779   3.463   5.931   3.751  0.1880 -0.3599  0.2752
16096TIP3    H269780   3.312   5.924   3.745 -0.0464  3.9908 -0.1690
16097TIP3   OH269781   4.214   4.333  11.139  0.6391  0.3725 -0.2242
16097TIP3    H169782   4.280   4.370  11.197  1.8938 -1.4065 -0.4845
16097TIP3    H269783   4.165   4.273  11.193 -0.4899  1.3407 -0.1526
16098TIP3   OH269784   0.471   3.119   2.145  0.3442 -0.1871  0.4587
16098TIP3    H169785   0.541   3.176   2.177 -0.5259  1.9780 -1.3762
16098TIP3    H269786   0.512   3.065   2.077  0.1411  1.5329 -1.0755
16099TIP3   OH269787   5.003   2.375  12.879  0.2116  0.1316  0.0396
16099TIP3    H169788   5.006   2.381  12.784  0.1809 -2.2697 -0.1384
16099TIP3    H269789   5.058   2.299  12.900 -0.7854 -0.1215  1.8544
16100TIP3   OH269790   2.834   6.558   1.417 -0.0291 -0.0027 -0.2083
16100TIP3    H169791   2.918   6.536   1.378 -0.6788  0.3514 -1.8544
16100TIP3    H269792   2.769   6.519   1.358 -1.0557  1.1815  0.1051
16101TIP3   OH269793   6.684   0.604  10.688 -0.2893 -0.0393  0.2795
16101TIP3    H169794   6.608   0.619  10.745 -1.2114  2.1240 -1.4488
16101TIP3    H269795   6.717   0.691  10.669  1.9485 -0.9121  0.0583
16102TIP3   OH269796   3.392   6.180  11.412 -0.5434  0.0157 -0.4642
16102TIP3    H169797   3.316   6.215  11.365 -0.3739  1.3264  0.1890
16102TIP3    H269798   3.462   6.242  11.393 -0.0145 -0.4075  0.0895
16103TIP3   OH269799   0.725   0.584  16.074  0.2467 -0.3909 -0.8455
16103TIP3    H169800   0.742   0.641  15.998  0.8552 -1.3300 -1.4229
16103TIP3    H269801   0.648   0.533  16.048  0.2873 -0.5168 -0.7124
16104TIP3   OH269802   2.973   3.606  12.583 -0.2227 -0.0622  0.6620
16104TIP3    H169803   3.035   3.586  12.653  0.7132  0.8044  0.0997
16104TIP3    H269804   2.920   3.527  12.574  0.1111 -0.4262  1.8671
16105TIP3   OH269805   0.151   2.292  11.593 -0.4443 -0.2095  0.7164
16105TIP3    H169806   0.143   2.308  11.499 -0.0159  0.0512  0.7187
16105TIP3    H269807   0.231   2.240  11.602 -0.0276  0.4725  1.0032
16106TIP3   OH269808   4.725   5.157  16.868  0.5178 -0.2333  0.0484
16106TIP3    H169809   4.761   5.152  16.957  0.2045 -3.4094  0.0377
16106TIP3    H269810   4.792   5.204  16.818  1.3423  0.2998  1.6148
16107TIP3   OH269811   1.885   6.367   1.251 -0.2678  1.0499 -0.1855
16107TIP3    H169812   1.800   6.393   1.288 -0.3699  0.9333 -0.3365
16107TIP3    H269813   1.867   6.283   1.208  0.7903 -0.9895  3.1406
16108TIP3   OH269814   3.532   0.871  12.956 -0.2528  0.1682  0.3711
16108TIP3    H169815   3.554   0.950  12.907 -0.5718  0.6220  0.9565
16108TIP3    H269816   3.587   0.875  13.034 -0.7169  0.1213  0.7008
16109TIP3   OH269817   5.308   0.952   3.817 -0.0507  0.2820 -0.3278
16109TIP3    H169818   5.401   0.948   3.792  0.2682 -1.4010  1.0640
16109TIP3    H269819   5.280   1.039   3.788  1.6791  0.4214 -1.7091
16110TIP3   OH269820   6.450   4.333  13.430 -0.2618  0.1994 -0.3485
16110TIP3    H169821   6.486   4.337  13.519  1.1252 -0.6164 -0.8754
16110TIP3    H269822   6.431   4.241  13.416 -2.1516  0.5517 -0.2547
16111TIP3   OH269823   0.628   6.186  16.392  0.1912  0.4879 -1.0089
16111TIP3    H169824   0.612   6.202  16.299  0.5753  0.5507 -1.0616
16111TIP3    H269825   0.576   6.108  16.412  0.7500  0.0033 -1.4644
16112TIP3   OH269826   6.148   3.107   5.938 -0.0640 -0.3017 -0.1170
16112TIP3    H169827   6.065   3.155   5.931 -0.9842 -2.1771 -2.9484
16112TIP3    H269828   6.136   3.048   6.012  0.4582  2.5562  2.3334
16113TIP3   OH269829   0.396   3.562  16.912  0.3413 -0.0173 -0.1626
16113TIP3    H169830   0.477   3.545  16.961  1.6102  1.2016 -1.7614
16113TIP3    H269831   0.425   3.609  16.834 -2.0834  1.6762 -0.0986
16114TIP3   OH269832   2.464   6.602  16.297  0.1452 -0.6553 -0.2533
16114TIP3    H169833   2.406   6.537  16.257 -1.1972  0.9342 -0.9163
16114TIP3    H269834   2.432   6.611  16.387 -3.1412  2.9781 -1.6485
16115TIP3   OH269835   5.473   2.521  11.196  0.4264  0.2019 -0.4175
16115TIP3    H169836   5.482   2.590  11.130  1.1035 -0.1451 -0.6795
16115TIP3    H269837   5.516   2.445  11.159  0.5137 -0.0959  0.2852
16116TIP3   OH269838   5.454   4.900  16.900 -0.0828 -0.0623 -0.2361
16116TIP3    H169839   5.457   4.908  16.995 -0.2422  1.5779 -0.3704
16116TIP3    H269840   5.541   4.867  16.877 -0.0648 -0.5319  0.4739
16117TIP3   OH269841   5.896   1.967  12.527 -0.1379  0.5311  0.0143
16117TIP3    H169842   5.956   1.909  12.480  0.1159 -0.4209  1.4926
16117TIP3    H269843   5.938   1.982  12.612 -1.5007  0.6518  0.6808
16118TIP3   OH269844   6.157   0.860  16.720  0.1978  0.3107 -0.7277
16118TIP3    H169845   6.114   0.941  16.747 -0.4527  0.7887 -3.1296
16118TIP3    H269846   6.227   0.889  16.661  2.4745 -0.6183  1.4343
16119TIP3   OH269847   3.496   6.044  15.148 -0.9275  0.5994 -0.2972
16119TIP3    H169848   3.484   5.958  15.188  1.4144  1.0504  1.5225
16119TIP3    H269849   3.591   6.052  15.136 -1.0886  2.9985 -0.2522
16120TIP3   OH269850   1.667   2.827   2.643  0.4019  0.1440  0.1192
16120TIP3    H169851   1.736   2.869   2.592 -0.0790 -0.8841 -1.4104
16120TIP3    H269852   1.591   2.826   2.584 -0.4195 -0.3093  1.1625
16121TIP3   OH269853   1.843   0.492  12.867  1.2575  0.4365  0.1314
16121TIP3    H169854   1.806   0.412  12.904  2.0626 -0.3508 -0.7564
16121TIP3    H269855   1.768   0.538  12.830  0.9213 -0.3230 -0.1352
16122TIP3   OH269856   1.055   2.851   0.583 -0.0730  0.2490  0.1934
16122TIP3    H169857   0.965   2.884   0.575 -0.3185 -0.3966  0.2464
16122TIP3    H269858   1.107   2.927   0.608 -0.8047  0.3664  1.3616
16123TIP3   OH269859   5.216   4.133   3.127 -0.4619  0.0089 -0.5905
16123TIP3    H169860   5.266   4.156   3.205 -0.2828 -0.1112 -0.6696
16123TIP3    H269861   5.271   4.070   3.081 -0.4947  0.2053 -0.8997
16124TIP3   OH269862   5.584   0.844  12.959  0.1502 -0.2991  0.2943
16124TIP3    H169863   5.600   0.897  13.037  0.7259 -0.0249 -0.0048
16124TIP3    H269864   5.491   0.857  12.940  0.0167 -0.3461  0.9167
16125TIP3   OH269865   3.388   3.299   3.870 -0.5494 -0.2434 -0.6080
16125TIP3    H169866   3.323   3.242   3.910 -0.5319  1.0772  1.3445
16125TIP3    H269867   3.373   3.385   3.909  0.6461  0.6868 -2.1077
16126TIP3   OH269868   4.185   3.922  15.178 -0.1272 -0.2743  0.0167
16126TIP3    H169869   4.151   3.995  15.125  0.5672 -0.5087 -0.7595
16126TIP3    H269870   4.279   3.925  15.165  0.1934  0.4677  2.2966
16127TIP3   OH269871   4.097   4.097   1.190  0.3895 -0.0018 -0.1299
16127TIP3    H169872   4.148   4.040   1.133  0.3034  1.5726 -1.8313
16127TIP3    H269873   4.163   4.146   1.239  0.4954  0.4622 -0.7333
16128TIP3   OH269874   1.091   1.244  11.405 -0.0088  0.2857 -0.0708
16128TIP3    H169875   1.108   1.337  11.397 -1.6075  0.6275  0.2654
16128TIP3    H269876   1.055   1.219  11.320 -1.9335  0.5279  0.6430
16129TIP3   OH269877   1.497   0.440   2.557 -0.3653  0.2316  0.3550
16129TIP3    H169878   1.517   0.498   2.631 -1.3203 -0.3717  1.1026
16129TIP3    H269879   1.501   0.352   2.594  0.3989 -0.1553 -0.6191
16130TIP3   OH269880   3.244   6.337   4.631  0.4734  0.3770  0.5672
16130TIP3    H169881   3.280   6.417   4.670 -0.7642  0.4943  1.5209
16130TIP3    H269882   3.253   6.350   4.537  3.8950 -0.0938  0.7752
16131TIP3   OH269883   1.789   2.693   1.123 -0.0744 -0.2274  0.0067
16131TIP3    H169884   1.756   2.753   1.056  0.8032  0.9625  0.6240
16131TIP3    H269885   1.789   2.745   1.204 -2.8604 -2.1733  1.3602
16132TIP3   OH269886   3.541   2.373   4.449 -0.5524 -0.1333 -0.3773
16132TIP3    H169887   3.489   2.398   4.373 -1.5254 -2.5179 -0.5134
16132TIP3    H269888   3.575   2.456   4.482 -1.2020  1.0753 -2.6050
16133TIP3   OH269889   5.433   5.222   3.415  0.1592  0.5152 -0.7563
16133TIP3    H169890   5.385   5.296   3.378  0.6119  1.5849  0.7830
16133TIP3    H269891   5.524   5.250   3.415  0.3274 -0.0179 -0.1198
16134TIP3   OH269892   4.484   1.016   1.382  0.2175  0.3599  0.2533
16134TIP3    H169893   4.394   1.015   1.413 -0.4879  0.7849 -1.7309
16134TIP3    H269894   4.521   0.934   1.414  0.1571  1.6386  3.9051
16135TIP3   OH269895   1.078   2.411   6.077  0.1321  0.0930  0.1109
16135TIP3    H169896   1.132   2.487   6.096  0.7524 -0.0369 -1.0773
16135TIP3    H269897   1.023   2.400   6.155  1.6563  0.3651  1.2419
16136TIP3   OH269898   2.609   2.632   3.410 -0.5934 -0.4294 -0.0469
16136TIP3    H169899   2.660   2.711   3.393 -1.3053 -0.1474 -0.9187
16136TIP3    H269900   2.575   2.645   3.499  0.0038 -0.1566  0.1487
16137TIP3   OH269901   5.380   4.986   3.220  0.5541  0.0344 -0.4886
16137TIP3    H169902   5.384   4.918   3.287 -1.1437 -0.4707 -0.8644
16137TIP3    H269903   5.394   5.068   3.267  2.1376 -0.5301  0.0423
16138TIP3   OH269904   0.588   1.989  14.322 -0.3407  0.0800 -0.6022
16138TIP3    H169905   0.526   1.916  14.321 -0.4987  0.2127 -0.4329
16138TIP3    H269906   0.602   2.009  14.229 -0.3319 -0.1333 -0.6471
16139TIP3   OH269907   5.577   4.891  15.580  0.7499  0.0470 -0.1436
16139TIP3    H169908   5.544   4.898  15.491  1.7373  0.9366 -0.4605
16139TIP3    H269909   5.577   4.798  15.599 -1.9414  0.0315 -0.1018
16140TIP3   OH269910   0.004   5.610   0.881 -0.1111  0.1971 -0.1492
16140TIP3    H169911  -0.066   5.675   0.883 -0.5361 -0.1186 -3.3635
16140TIP3    H269912  -0.034   5.533   0.840  1.6496 -0.5417 -0.4717
16141TIP3   OH269913   4.612   4.245  12.270 -0.1150 -0.3992 -0.3767
16141TIP3    H169914   4.686   4.210  12.220  1.3517  2.0132  0.0082
16141TIP3    H269915   4.535   4.224  12.216  1.2177  0.2135 -2.5918
16142TIP3   OH269916   1.807   4.677   3.278  0.2969 -0.1912  0.1394
16142TIP3    H169917   1.790   4.583   3.282 -0.0103 -0.1647 -0.5200
16142TIP3    H269918   1.790   4.708   3.367  2.8208 -1.1484  1.0061
16143TIP3   OH269919   2.023   1.477   5.401  0.1246  0.0389  0.1383
16143TIP3    H169920   2.031   1.525   5.319  2.5753 -3.0234 -1.4709
16143TIP3    H269921   1.929   1.480   5.420 -0.4268  1.2253 -2.4626
16144TIP3   OH269922   3.754   6.583   1.723 -0.5389 -0.0396 -0.5926
16144TIP3    H169923   3.758   6.603   1.629  0.1972  1.3425 -0.2809
16144TIP3    H269924   3.745   6.488   1.727  0.2000 -0.1838 -2.0492
16145TIP3   OH269925   1.114   5.886   5.452  0.8013 -0.4277 -0.5512
16145TIP3    H169926   1.104   5.926   5.366  1.8300  0.8634 -0.0917
16145TIP3    H269927   1.208   5.868   5.459  0.5515 -1.6142 -0.1711
16146TIP3   OH269928   3.117   6.219   0.361  0.1181  0.0771  0.1972
16146TIP3    H169929   3.048   6.165   0.400  1.0592 -0.6199  0.9071
16146TIP3    H269930   3.198   6.184   0.396  0.9439  0.0145 -1.7258
16147TIP3   OH269931   1.850   5.284  11.883  0.6917 -0.1370 -0.0778
16147TIP3    H169932   1.851   5.263  11.977  2.2748 -1.3557 -0.3508
16147TIP3    H269933   1.939   5.312  11.864  0.1874  0.8291 -1.0870
16148TIP3   OH269934   5.100   6.697  13.230 -0.5094 -0.1542 -0.9285
16148TIP3    H169935   5.011   6.731  13.232  0.3053  2.1075 -1.3231
16148TIP3    H269936   5.109   6.658  13.143 -1.4298 -1.3407 -0.5045
16149TIP3   OH269937   2.330   1.401   0.027  0.1213 -0.1971 -0.1315
16149TIP3    H169938   2.314   1.366  -0.061 -0.3542  0.4844 -0.3143
16149TIP3    H269939   2.243   1.409   0.066  0.1817  1.2049 -0.2532
16150TIP3   OH269940   3.588   6.296   6.535  0.0905 -0.1207 -0.1854
16150TIP3    H169941   3.494   6.295   6.519 -0.2928 -0.6689  1.8811
16150TIP3    H269942   3.619   6.213   6.498 -0.3596 -0.2717 -0.2318
16151TIP3   OH269943   0.098   1.207   5.988 -0.3042 -0.4735 -0.2005
16151TIP3    H169944   0.045   1.280   6.020  0.2371 -0.5793  0.9419
16151TIP3    H269945   0.114   1.153   6.065 -2.8536 -3.1888 -1.4714
16152TIP3   OH269946   1.147   6.116   3.089  0.3000 -0.1121  0.6849
16152TIP3    H169947   1.105   6.142   3.007  0.7021  0.7057  0.7372
16152TIP3    H269948   1.078   6.121   3.154 -0.2420 -1.5827  0.2651
16153TIP3   OH269949   2.532   2.171   1.785  0.1890 -0.2346  0.1669
16153TIP3    H169950   2.449   2.180   1.739  0.9244 -1.4179 -1.4793
16153TIP3    H269951   2.528   2.084   1.825  1.5582 -1.3077 -1.9361
16154TIP3   OH269952   0.426   2.324  15.429 -0.2665  0.2130 -0.5939
16154TIP3    H169953   0.481   2.356  15.358 -0.8191 -0.7897 -1.4852
16154TIP3    H269954   0.481   2.263  15.477  0.0439  0.7449 -0.2665
16155TIP3   OH269955   5.761   1.289  13.456 -0.3614  0.1629  0.0986
16155TIP3    H169956   5.847   1.283  13.497  0.9125  0.2034 -2.4474
16155TIP3    H269957   5.722   1.370  13.491 -0.1442 -0.8250  2.6443
16156TIP3   OH269958   2.105   3.472   2.605  0.2066 -0.2747  0.0860
16156TIP3    H169959   2.178   3.462   2.544  1.1132 -1.6621  1.3673
16156TIP3    H269960   2.039   3.410   2.574 -0.0205  0.2343 -0.4623
16157TIP3   OH269961   1.649   1.576   3.841 -0.3999 -0.8526  0.2386
16157TIP3    H169962   1.643   1.504   3.777  0.9865 -2.2847  1.6609
16157TIP3    H269963   1.741   1.601   3.840 -0.5334 -0.3090  1.0442
16158TIP3   OH269964   5.790   6.780  14.394 -0.1033 -0.4971  0.1533
16158TIP3    H169965   5.799   6.874  14.381  0.3997 -0.1598  2.5979
16158TIP3    H269966   5.780   6.744  14.306  1.9327  1.5932 -0.9911
16159TIP3   OH269967   6.488   4.714   0.950  0.6662  0.1225  0.2512
16159TIP3    H169968   6.406   4.701   0.902  1.0378  0.6057 -0.5227
16159TIP3    H269969   6.502   4.808   0.948  2.0420 -0.0929 -0.9733
16160TIP3   OH269970   4.207   3.636   5.858 -0.0527  0.5577 -0.3123
16160TIP3    H169971   4.290   3.642   5.810 -0.0972  1.0694 -0.3313
16160TIP3    H269972   4.158   3.713   5.831 -0.6498  0.1145 -0.5056
16161TIP3   OH269973   2.639   3.737  15.125  0.1844 -0.0762  0.1098
16161TIP3    H169974   2.607   3.810  15.179  0.8930  0.9514 -0.8444
16161TIP3    H269975   2.560   3.704  15.083 -0.1852 -0.0380  0.7614
16162TIP3   OH269976   5.477   1.308  13.064 -0.0274 -0.1633 -0.0102
16162TIP3    H169977   5.469   1.375  13.131  1.1030 -0.5416  0.5210
16162TIP3    H269978   5.550   1.336  13.010  0.2025 -0.7592 -0.0176
16163TIP3   OH269979   4.908   6.522  16.321  0.9423 -0.1025 -0.6982
16163TIP3    H169980   4.975   6.588  16.301  1.6960 -0.5823  0.2229
16163TIP3    H269981   4.862   6.557  16.397 -0.2178  0.4811 -1.6537
16164TIP3   OH269982   5.326   0.792  12.873  0.0424 -0.0981 -0.0016
16164TIP3    H169983   5.237   0.811  12.904 -0.2043  1.7111 -1.6883
16164TIP3    H269984   5.318   0.708  12.829 -0.6712 -0.3162  0.5375
16165TIP3   OH269985   5.871   2.833  16.311  0.3769  0.0258  0.4380
16165TIP3    H169986   5.797   2.894  16.316  1.1016  0.9382  0.3022
16165TIP3    H269987   5.871   2.789  16.396 -0.4535 -0.1257  0.3578
16166TIP3   OH269988   3.360   3.005  12.664 -0.1345  0.0928 -0.0272
16166TIP3    H169989   3.280   3.058  12.661  0.0631  0.4168  0.4488
16166TIP3    H269990   3.406   3.027  12.583 -0.3350  0.2081 -0.1096
16167TIP3   OH269991   6.377   2.421   6.385 -0.1989  0.2184  0.1222
16167TIP3    H169992   6.281   2.415   6.384 -0.3179  1.8154  0.4115
16167TIP3    H269993   6.406   2.337   6.423 -1.4283 -0.6459 -0.8097
16168TIP3   OH269994   5.562   4.048   2.821 -0.1382  0.1072  0.4029
16168TIP3    H169995   5.558   4.143   2.806  0.7712  0.2664  1.0649
16168TIP3    H269996   5.518   4.010   2.746 -0.2139  1.0521 -0.0446
16169TIP3   OH269997   5.006   3.360  14.841  0.4387  0.0487  0.6134
16169TIP3    H169998   5.010   3.428  14.909 -0.3072 -1.2195  1.9361
16169TIP3    H269999   4.930   3.383  14.789  0.0735  0.1231  1.1761
16170TIP3   OH270000   5.311   2.566  17.290  0.2194  0.2090  0.0576
16170TIP3    H170001   5.372   2.505  17.331  0.4890  0.8681  0.6586
16170TIP3    H270002   5.323   2.648  17.339 -1.5839  0.1697  0.6026
16171TIP3   OH270003   4.029   0.838  17.181 -0.1119 -0.3281  0.0167
16171TIP3    H170004   3.982   0.784  17.244 -0.0263  0.3003  0.6288
16171TIP3    H270005   3.963   0.898  17.145  0.0004 -0.1431  0.1152
16172TIP3   OH270006   6.214   6.652  13.220  0.2044  0.9079 -0.7852
16172TIP3    H170007   6.157   6.607  13.159  0.5849 -0.0691 -0.4221
16172TIP3    H270008   6.300   6.652  13.177  0.2802  0.9872 -0.6346
16173TIP3   OH270009   2.335   6.315  13.677  0.4924 -0.5775  0.3059
16173TIP3    H170010   2.311   6.288  13.766  0.7006 -2.9137 -0.3041
16173TIP3    H270011   2.293   6.250  13.621  1.1067  0.3608 -1.2594
16174TIP3   OH270012   4.792   6.210  10.720 -0.5419 -0.0552 -0.0793
16174TIP3    H170013   4.834   6.168  10.645  2.6520  0.7108  1.1855
16174TIP3    H270014   4.776   6.139  10.782 -1.5017 -0.4104 -0.7215
16175TIP3   OH270015   4.458   3.231   5.811  0.4848  0.0257 -0.2134
16175TIP3    H170016   4.477   3.319   5.843 -2.9515 -0.0414  2.3138
16175TIP3    H270017   4.504   3.173   5.871 -0.1667  0.0466  0.3121
16176TIP3   OH270018   0.958   3.343  14.795 -0.4587  0.1364 -0.3304
16176TIP3    H170019   0.997   3.425  14.764  0.0025  0.2136  0.4565
16176TIP3    H270020   1.009   3.275  14.751  0.1068  0.2482  0.1497
16177TIP3   OH270021   6.279   0.909   2.104 -0.6230  0.2021 -0.1995
16177TIP3    H170022   6.293   0.917   2.198  0.1230 -1.1251 -0.1801
16177TIP3    H270023   6.187   0.932   2.091 -0.8194  0.0291  0.9037
16178TIP3   OH270024   2.107   5.649  13.989  0.2441  0.1272 -0.0748
16178TIP3    H170025   2.114   5.586  14.060  0.6577  1.1532  0.8152
16178TIP3    H270026   2.196   5.657  13.954  0.3183  0.6817  0.2329
16179TIP3   OH270027   1.212   3.452   4.017  0.3001  0.2173 -0.2425
16179TIP3    H170028   1.204   3.456   3.922 -0.1617  0.5609 -0.1915
16179TIP3    H270029   1.219   3.543   4.044 -0.4263  0.1719  0.1200
16180TIP3   OH270030   1.313   0.333  14.192  0.3183  0.2111  0.2861
16180TIP3    H170031   1.247   0.306  14.128 -0.5173  0.5967  0.9899
16180TIP3    H270032   1.268   0.330  14.276  0.7501  2.0167  0.5854
16181TIP3   OH270033   5.414   1.390   1.356 -0.6701 -0.3035 -0.8283
16181TIP3    H170034   5.398   1.483   1.373 -0.2977 -0.3056 -0.4643
16181TIP3    H270035   5.476   1.390   1.282 -0.6871 -0.2623 -0.8427
16182TIP3   OH270036   0.759   0.475   0.529  0.0701  0.1486 -0.2814
16182TIP3    H170037   0.674   0.518   0.520  0.7250  1.8123  1.1674
16182TIP3    H270038   0.819   0.528   0.477  0.0882 -1.5780 -2.1138
16183TIP3   OH270039   4.430   0.351  16.718 -0.2740  0.1209 -0.3992
16183TIP3    H170040   4.343   0.384  16.741 -0.9092 -1.1908 -0.8975
16183TIP3    H270041   4.467   0.321  16.801 -0.1493  0.9744 -0.1324
16184TIP3   OH270042   5.007   3.788   5.010 -0.2434  0.5225 -0.9962
16184TIP3    H170043   5.013   3.693   5.020 -1.5920  0.6589  1.4432
16184TIP3    H270044   4.925   3.802   4.963 -0.7618  0.5256 -0.1072
16185TIP3   OH270045   1.018   3.194   2.516  0.0311  0.4002 -0.1796
16185TIP3    H170046   1.076   3.135   2.469 -1.3122  0.0043 -1.3581
16185TIP3    H270047   0.938   3.197   2.464 -0.5820  1.8725  0.7914
16186TIP3   OH270048   0.912   6.153  13.956 -0.1611  0.2293 -0.0404
16186TIP3    H170049   1.002   6.155  13.987 -0.0755  0.4967 -0.2979
16186TIP3    H270050   0.862   6.113  14.027  0.2603 -0.5196 -0.1516
16187TIP3   OH270051   2.187   6.272   5.058  0.3885 -0.0714 -0.2548
16187TIP3    H170052   2.144   6.294   4.976  1.7904 -0.9217 -1.2485
16187TIP3    H270053   2.167   6.180   5.072 -0.3298  0.2161  0.6771
16188TIP3   OH270054   0.370   1.671  16.293  0.5412  0.2314  0.3573
16188TIP3    H170055   0.368   1.600  16.228 -0.7004 -1.5789  2.3092
16188TIP3    H270056   0.278   1.685  16.315  0.9046  1.3778  1.1401
16189TIP3   OH270057   6.771   0.503   3.161  0.0829  0.5677  0.2790
16189TIP3    H170058   6.710   0.552   3.218 -0.0996 -0.5241  1.0280
16189TIP3    H270059   6.795   0.426   3.212  1.9259  0.8612 -0.1089
16190TIP3   OH270060   5.452   0.895   0.970  0.5510  0.0233  0.9353
16190TIP3    H170061   5.400   0.945   1.033 -1.7273 -0.9252 -0.1284
16190TIP3    H270062   5.418   0.921   0.884  0.5912 -1.9507  0.2936
16191TIP3   OH270063   4.959   0.150   6.254 -0.3051 -0.9224 -0.0215
16191TIP3    H170064   4.912   0.066   6.256  0.1618 -1.1656  1.9514
16191TIP3    H270065   4.990   0.162   6.344  1.0013  0.6021 -0.6519
16192TIP3   OH270066   3.977   4.127   0.087  0.3570  0.2285  0.0414
16192TIP3    H170067   3.976   4.203   0.030 -1.3140 -0.1327 -0.4536
16192TIP3    H270068   4.044   4.146   0.152  1.7600  0.9836 -1.5893
16193TIP3   OH270069   2.750   2.433  16.184 -0.0904  0.4133 -0.7451
16193TIP3    H170070   2.840   2.400  16.187 -0.3419 -0.2023  0.5039
16193TIP3    H270071   2.745   2.495  16.257 -0.8736 -0.0727 -0.3810
16194TIP3   OH270072   4.788   5.643  12.020 -0.4238  0.1889  0.0986
16194TIP3    H170073   4.842   5.722  12.018 -0.5345  0.2203 -1.8482
16194TIP3    H270074   4.733   5.655  12.098  0.3322  1.4950  0.4646
16195TIP3   OH270075   4.155   3.522  13.937 -0.1719  0.0274  0.6719
16195TIP3    H170076   4.189   3.594  13.884 -1.1382  0.7367  1.0074
16195TIP3    H270077   4.187   3.443  13.893  1.9225  0.6738  1.0119
16196TIP3   OH270078   2.482   6.650   6.453  0.2313 -0.2646 -0.2880
16196TIP3    H170079   2.559   6.696   6.487  0.0029 -0.0282 -0.0912
16196TIP3    H270080   2.466   6.691   6.367 -1.4362  1.7149  0.9260
16197TIP3   OH270081   3.481   0.376   0.803  0.1878 -0.1480 -0.1901
16197TIP3    H170082   3.483   0.348   0.894 -0.8631 -1.8998 -0.6827
16197TIP3    H270083   3.393   0.356   0.773  1.1532 -1.5961 -2.1857
16198TIP3   OH270084   4.134   6.505  12.441  0.0992  0.3201 -0.0358
16198TIP3    H170085   4.149   6.511  12.535 -1.8296 -0.8723  0.3650
16198TIP3    H270086   4.208   6.453  12.408 -0.8092 -1.8754  1.2827
16199TIP3   OH270087   1.610   1.828  15.575 -0.2223  0.3924  0.1641
16199TIP3    H170088   1.649   1.741  15.582 -1.5826 -0.3013 -0.5978
16199TIP3    H270089   1.575   1.832  15.486 -1.0515  1.3436  0.5098
16200TIP3   OH270090   4.540   0.426   2.874  0.3681 -0.0887 -0.3089
16200TIP3    H170091   4.488   0.498   2.836  1.2864  0.4342 -0.5888
16200TIP3    H270092   4.517   0.426   2.967 -0.2947  0.0017 -0.4723
16201TIP3   OH270093   4.870   4.361   0.538  0.0444 -0.7677  0.4138
16201TIP3    H170094   4.925   4.394   0.467  0.3730 -1.3855  0.3789
16201TIP3    H270095   4.807   4.303   0.495 -1.4529  0.9018  0.2881
16202TIP3   OH270096   1.693   3.068   0.246  0.2433 -0.4897  0.0085
16202TIP3    H170097   1.687   3.164   0.247 -0.6844 -0.5013 -1.7610
16202TIP3    H270098   1.665   3.044   0.157  1.0759 -2.3576  0.2384
16203TIP3   OH270099   3.586   5.085  16.455 -0.8094  0.1870  0.0940
16203TIP3    H170100   3.552   5.126  16.375 -0.3242  2.2911  0.9119
16203TIP3    H270101   3.680   5.106  16.454 -1.1709  2.1327  2.2505
16204TIP3   OH270102   4.798   1.180  14.105  0.5293 -1.0020 -0.2281
16204TIP3    H170103   4.740   1.111  14.136 -1.0231 -0.4323 -1.8032
16204TIP3    H270104   4.744   1.234  14.047  2.1691  0.5256 -0.4149
16205TIP3   OH270105   3.329   6.220  16.109 -0.3902 -0.3374 -0.0056
16205TIP3    H170106   3.301   6.157  16.176 -0.8934 -2.2428 -1.9504
16205TIP3    H270107   3.338   6.302  16.157 -1.0744 -1.5542  2.3445
16206TIP3   OH270108   3.652   2.498  16.172 -0.1030 -0.0946  0.4505
16206TIP3    H170109   3.661   2.544  16.088  0.9126 -2.6570 -0.9119
16206TIP3    H270110   3.738   2.506  16.213  1.1158 -3.3507 -1.2432
16207TIP3   OH270111   3.029   1.181   3.044  0.2705  0.2191  0.1655
16207TIP3    H170112   3.062   1.150   3.128  2.7138  0.7966 -0.5591
16207TIP3    H270113   2.942   1.217   3.065  0.2701 -0.8717  2.1748
16208TIP3   OH270114   3.531   5.858  16.369 -0.1556  0.4953 -0.0004
16208TIP3    H170115   3.553   5.830  16.458  0.2326  0.9350  0.0438
16208TIP3    H270116   3.436   5.849  16.364  0.2192 -4.4532 -1.1896
16209TIP3   OH270117   5.010   5.240   1.984 -0.0162  0.2233  0.6524
16209TIP3    H170118   5.074   5.194   1.931 -0.3325 -0.9845  1.2920
16209TIP3    H270119   5.057   5.315   2.020  0.9832 -0.5465  0.9651
16210TIP3   OH270120   0.447   2.852   4.047 -0.2533 -0.0329 -0.3430
16210TIP3    H170121   0.358   2.843   4.080 -0.1715 -0.4224 -0.2164
16210TIP3    H270122   0.501   2.806   4.111 -0.2032 -1.6733 -1.5274
16211TIP3   OH270123   4.399   1.827   0.154  0.2598 -0.2670  0.2404
16211TIP3    H170124   4.486   1.847   0.189  0.9508 -1.0885 -0.9947
16211TIP3    H270125   4.410   1.829   0.059 -0.7468 -1.8036  0.0800
16212TIP3   OH270126   2.826   5.288  16.218  0.8251  0.3303  0.1626
16212TIP3    H170127   2.796   5.379  16.215  1.4619  0.5458  0.2629
16212TIP3    H270128   2.893   5.288  16.287 -0.0425 -0.4726  1.0203
16213TIP3   OH270129   4.922   6.798   5.479  0.5101 -0.0391 -0.1565
16213TIP3    H170130   4.979   6.874   5.485 -1.3435  1.5320 -1.7181
16213TIP3    H270131   4.928   6.771   5.387  0.8334 -1.5293  0.2905
16214TIP3   OH270132   4.520   5.504  16.229  0.1106 -0.5233 -0.0284
16214TIP3    H170133   4.442   5.553  16.206  0.9122 -0.1944 -2.1702
16214TIP3    H270134   4.579   5.568  16.268  0.1265 -0.3284 -0.3717
16215TIP3   OH270135   2.535   6.387  11.561 -0.3183 -0.0944 -0.2738
16215TIP3    H170136   2.600   6.402  11.630 -0.9867  2.6688 -0.1687
16215TIP3    H270137   2.570   6.433  11.484 -1.4880  0.3107 -0.5797
16216TIP3   OH270138   0.801   3.304  10.644  0.5077 -0.1623  0.2178
16216TIP3    H170139   0.717   3.329  10.682 -0.9210 -2.0197 -1.6206
16216TIP3    H270140   0.786   3.304  10.549  2.9855  0.8622 -0.2170
16217TIP3   OH270141   3.534   3.743  10.659  0.3357 -0.3605 -0.5810
16217TIP3    H170142   3.613   3.752  10.606  0.5341  0.0130 -0.2287
16217TIP3    H270143   3.523   3.829  10.700 -0.0883 -0.5000 -0.4016
16218TIP3   OH270144   6.466   6.730   6.850  0.5451  0.2836  0.3951
16218TIP3    H170145   6.539   6.673   6.826  0.8723 -0.1567  2.3511
16218TIP3    H270146   6.404   6.722   6.778  1.6514 -0.6956 -0.4561
16219TIP3   OH270147   3.630   1.802   3.829  0.1784 -0.1992  0.0154
16219TIP3    H170148   3.690   1.767   3.763 -1.4086  1.7208 -2.5621
16219TIP3    H270149   3.684   1.863   3.880  0.7518  0.6004 -1.5008
16220TIP3   OH270150   3.720   6.181   0.596  0.3097  0.7336  0.1280
16220TIP3    H170151   3.805   6.209   0.630 -0.3412  0.2397  2.2348
16220TIP3    H270152   3.661   6.253   0.618 -0.1638  0.3101  0.2510
16221TIP3   OH270153   3.333   3.828   3.368  0.1785 -0.4237 -0.2364
16221TIP3    H170154   3.284   3.910   3.359  0.6450 -0.2525 -1.2258
16221TIP3    H270155   3.302   3.791   3.451 -1.9105 -0.4975 -1.0030
16222TIP3   OH270156   1.034   3.697   6.281 -0.0352  0.1734 -0.1929
16222TIP3    H170157   1.104   3.757   6.306 -0.7663  0.3244  1.5494
16222TIP3    H270158   0.982   3.747   6.218  0.0247  0.9452  0.3632
16223TIP3   OH270159   6.576   6.082   3.881 -0.4198  0.8352  0.1844
16223TIP3    H170160   6.600   6.095   3.789 -0.9946  0.5027 -0.0171
16223TIP3    H270161   6.594   6.166   3.923  0.9229  0.6447  0.0095
16224TIP3   OH270162   2.942   2.345   3.488 -0.0074  0.1401 -0.3783
16224TIP3    H170163   2.995   2.276   3.447 -0.4750 -0.1667 -0.4692
16224TIP3    H270164   2.912   2.307   3.570  1.4533  0.9780  0.5804
16225TIP3   OH270165   3.328   6.205   4.060  0.0730 -0.2336 -0.1471
16225TIP3    H170166   3.354   6.179   4.149 -1.2123 -1.3412 -0.0792
16225TIP3    H270167   3.372   6.289   4.046 -0.2758  0.2947  1.8068
16226TIP3   OH270168   3.233   5.909   6.436 -0.1431  0.1980 -0.0631
16226TIP3    H170169   3.255   5.865   6.354  2.6674 -2.9359  2.2277
16226TIP3    H270170   3.162   5.856   6.473 -0.7460  1.0472  0.0153
16227TIP3   OH270171   5.933   4.581  11.974 -0.0951  0.3693 -0.4472
16227TIP3    H170172   5.865   4.526  12.012 -0.1636  1.8113  1.5873
16227TIP3    H270173   6.008   4.523  11.963 -1.0144 -0.7537 -0.8431
16228TIP3   OH270174   2.689   5.503  13.494  0.0386  0.5872 -0.6706
16228TIP3    H170175   2.668   5.417  13.531 -0.0492  0.6787 -0.5062
16228TIP3    H270176   2.604   5.546  13.485  0.2920  1.6707  1.7409
16229TIP3   OH270177   1.480   2.488   5.386  0.2604 -0.6392 -0.2421
16229TIP3    H170178   1.546   2.547   5.422 -1.8646  1.6150  0.0416
16229TIP3    H270179   1.419   2.473   5.458 -1.1107 -0.3688 -1.3342
16230TIP3   OH270180   2.385   6.675   2.547  0.0809  0.0931 -0.1752
16230TIP3    H170181   2.386   6.678   2.643 -0.8393  0.6819 -0.1805
16230TIP3    H270182   2.304   6.627   2.526 -0.4584  1.2198 -0.6810
16231TIP3   OH270183   1.786   3.596   4.138  0.1374  0.2706 -0.1903
16231TIP3    H170184   1.780   3.533   4.065 -0.6343 -0.4876  0.5164
16231TIP3    H270185   1.868   3.642   4.123  1.4139 -1.8716  0.0305
16232TIP3   OH270186   0.535   5.840  12.224 -0.0866  0.1880  0.1531
16232TIP3    H170187   0.451   5.802  12.197  0.3561  0.2278 -1.3354
16232TIP3    H270188   0.511   5.905  12.291 -1.1921 -0.1803  0.1230
16233TIP3   OH270189   0.440   6.763  11.717  0.6635 -0.2244 -0.8386
16233TIP3    H170190   0.380   6.707  11.766  0.9058 -1.4530 -1.9138
16233TIP3    H270191   0.386   6.799  11.646  0.8028 -0.0261 -0.8453
16234TIP3   OH270192   0.943   5.576  14.468  0.1882  0.1947 -0.4240
16234TIP3    H170193   1.026   5.601  14.508  0.6959 -0.6605 -0.9335
16234TIP3    H270194   0.966   5.508  14.405 -0.9565 -0.3882 -0.2294
16235TIP3   OH270195   4.960   5.310   1.064 -0.0111  0.2105  0.0992
16235TIP3    H170196   4.979   5.302   1.157  0.8772  0.9017 -0.0159
16235TIP3    H270197   4.882   5.256   1.051 -0.7474  0.9204  1.4282
16236TIP3   OH270198   3.787   0.826   4.744 -0.1448 -0.1170 -0.2548
16236TIP3    H170199   3.733   0.846   4.821  0.6034 -1.9436  0.7814
16236TIP3    H270200   3.877   0.838   4.774  0.0889  0.8485 -1.3533
16237TIP3   OH270201   1.085   3.420   4.529  0.1142  0.4291  0.0498
16237TIP3    H170202   1.078   3.327   4.508 -0.4404  0.6000 -0.5493
16237TIP3    H270203   1.086   3.423   4.625 -0.7069 -0.1388  0.0843
16238TIP3   OH270204   3.000   1.573  15.894 -0.4374  0.0287 -0.0599
16238TIP3    H170205   2.970   1.490  15.932 -0.6994  0.8043  1.4830
16238TIP3    H270206   2.925   1.604  15.843 -0.2541 -0.7864 -0.8515
16239TIP3   OH270207   2.391   4.775  11.569  0.4485  0.0572  0.0653
16239TIP3    H170208   2.460   4.731  11.620  0.7839 -1.3745 -1.5587
16239TIP3    H270209   2.430   4.787  11.483 -1.8555 -2.2029 -1.3660
16240TIP3   OH270210   3.993   4.054   1.435 -0.0998  0.0522  0.5754
16240TIP3    H170211   4.040   4.027   1.357  0.0480 -0.1846  0.7478
16240TIP3    H270212   3.961   4.142   1.414  0.0722  0.0517  0.3087
16241TIP3   OH270213   2.432   2.340  16.513 -0.2380  0.0849  0.3335
16241TIP3    H170214   2.478   2.422  16.529 -1.3858  0.4501  1.8430
16241TIP3    H270215   2.476   2.276  16.569 -0.0782 -0.0837  0.0188
16242TIP3   OH270216   1.442   6.007   2.142 -0.0143 -0.1954 -0.0134
16242TIP3    H170217   1.455   5.942   2.211 -0.6735  0.2315  0.5340
16242TIP3    H270218   1.347   6.006   2.127  0.0757  0.0362 -0.5920
16243TIP3   OH270219   3.963   6.328   1.987 -1.0162 -0.0144  0.2133
16243TIP3    H170220   3.891   6.300   2.045  0.1706 -0.9127  1.2734
16243TIP3    H270221   4.021   6.379   2.044 -1.0651  1.1433 -0.7609
16244TIP3   OH270222   2.354   5.414   3.478 -0.2021  0.0370  0.3719
16244TIP3    H170223   2.340   5.329   3.437 -0.8895 -0.0093  0.6907
16244TIP3    H270224   2.280   5.467   3.449  1.1929  1.1212 -1.3481
16245TIP3   OH270225   6.404   6.075  11.550  0.2211  0.6255 -0.0780
16245TIP3    H170226   6.432   6.076  11.459  0.9029  0.7153  0.1228
16245TIP3    H270227   6.410   5.983  11.576  0.6308  0.6878  0.0523
16246TIP3   OH270228   2.305   2.207   3.385 -0.5986  0.0700 -0.1854
16246TIP3    H170229   2.210   2.206   3.402 -0.6522 -0.2187 -0.4961
16246TIP3    H270230   2.332   2.296   3.407 -1.0342  0.3114 -0.6055
16247TIP3   OH270231   1.185   3.234  14.721  0.2919  0.2432 -0.0104
16247TIP3    H170232   1.252   3.303  14.720  0.7790 -0.2200  0.9016
16247TIP3    H270233   1.232   3.154  14.697 -0.1428  0.1016 -0.4014
16248TIP3   OH270234   5.893   1.566   4.071 -0.1903  0.1120  0.2365
16248TIP3    H170235   5.897   1.662   4.076  1.6591  0.2269 -2.5154
16248TIP3    H270236   5.961   1.542   4.008  0.4395 -3.1684  2.0551
16249TIP3   OH270237   4.784   4.989  13.585 -0.0164 -0.7672 -0.3655
16249TIP3    H170238   4.880   4.990  13.590 -0.0440  1.0714  0.2955
16249TIP3    H270239   4.760   4.898  13.602  1.5684 -1.0670  0.3825
16250TIP3   OH270240   0.723   4.685   1.330 -0.3327 -0.3313  0.0157
16250TIP3    H170241   0.660   4.617   1.310 -0.9432  0.4539 -0.7665
16250TIP3    H270242   0.707   4.707   1.422 -0.7167 -0.6252  0.0192
16251TIP3   OH270243   4.679   1.943  15.193  0.2056  0.1163 -0.0314
16251TIP3    H170244   4.605   1.882  15.198  0.2876 -0.1330 -1.5578
16251TIP3    H270245   4.664   2.004  15.265 -0.2848 -1.2454  1.0609
16252TIP3   OH270246   2.213   2.381   4.340 -0.0039  0.7537 -0.2372
16252TIP3    H170247   2.148   2.367   4.271 -1.1869  2.4913  0.5312
16252TIP3    H270248   2.221   2.476   4.347 -0.1136  0.5948  2.2462
16253TIP3   OH270249   0.835   6.357   5.195 -0.3950 -0.1708  0.2799
16253TIP3    H170250   0.891   6.280   5.191 -1.4969 -1.0684  1.5429
16253TIP3    H270251   0.755   6.331   5.149 -0.0022  0.9099 -1.0454
16254TIP3   OH270252   3.424   0.786  15.785 -0.1666  1.0219  1.4155
16254TIP3    H170253   3.514   0.789  15.753  0.2164 -0.0181  2.3733
16254TIP3    H270254   3.371   0.788  15.705  0.7385  0.0013  0.7645
16255TIP3   OH270255   2.490   5.483   2.514 -0.0758  0.4072 -0.0923
16255TIP3    H170256   2.488   5.576   2.537  0.9028 -0.0085  1.7251
16255TIP3    H270257   2.488   5.483   2.418 -0.6920  2.2809 -0.1062
16256TIP3   OH270258   4.153   0.974   6.063  0.2121 -0.9813  0.6352
16256TIP3    H170259   4.116   1.048   6.112  1.9329 -0.3329  1.0188
16256TIP3    H270260   4.150   0.901   6.124 -2.1752 -1.4499  0.0111
16257TIP3   OH270261   2.834   4.457  10.767  0.0220 -0.3421 -0.1495
16257TIP3    H170262   2.859   4.366  10.787  2.0165  0.4966  1.3537
16257TIP3    H270263   2.899   4.510  10.814 -1.9411  1.8966  0.0901
16258TIP3   OH270264   6.149   2.563   5.499 -0.2725  0.3071  0.6491
16258TIP3    H170265   6.140   2.535   5.590 -0.4373 -2.2253 -0.1044
16258TIP3    H270266   6.120   2.487   5.447  0.5334  1.4230 -1.5165
16259TIP3   OH270267   3.756   4.925   4.218 -0.1673  0.1527 -0.4685
16259TIP3    H170268   3.759   4.835   4.185 -0.3398 -0.2603  0.5962
16259TIP3    H270269   3.678   4.963   4.178  0.2856  0.0453 -1.4589
16260TIP3   OH270270   1.967   4.814  15.745  0.0515  0.0460  0.1852
16260TIP3    H170271   1.959   4.785  15.835 -1.0522 -1.7463 -0.4674
16260TIP3    H270272   2.054   4.786  15.717 -0.8393 -2.3025 -0.3034
16261TIP3   OH270273   4.182   5.546  11.792 -0.2419 -0.3058 -0.4638
16261TIP3    H170274   4.104   5.593  11.763  0.2021  0.0155 -1.1268
16261TIP3    H270275   4.241   5.548  11.717  1.2967  1.3717  0.7636
16262TIP3   OH270276   6.132   0.838   5.347 -0.0810 -0.3209  0.4793
16262TIP3    H170277   6.209   0.847   5.402  0.6857  0.6836 -0.7166
16262TIP3    H270278   6.126   0.744   5.328  0.0846 -0.5702  1.6124
16263TIP3   OH270279   0.224   0.373  12.459  0.0538 -0.2254 -0.3442
16263TIP3    H170280   0.156   0.332  12.405 -0.7748 -0.1679  0.6512
16263TIP3    H270281   0.231   0.462  12.426  1.3851 -0.9265 -2.0704
16264TIP3   OH270282   3.328   2.683  13.280  0.5709  0.2900  0.3775
16264TIP3    H170283   3.380   2.607  13.306  1.5464  1.2048  1.0975
16264TIP3    H270284   3.287   2.713  13.361  1.9328  1.8547  0.5079
16265TIP3   OH270285   2.159   2.781  14.983 -0.3561 -0.0206  0.4035
16265TIP3    H170286   2.242   2.777  14.936 -0.1937  0.1275  0.6743
16265TIP3    H270287   2.163   2.865  15.030 -0.3344 -0.3576  1.0048
16266TIP3   OH270288   1.798   2.233   3.733  0.2631  0.3104  0.3566
16266TIP3    H170289   1.766   2.145   3.711 -1.7259  0.8871  0.8694
16266TIP3    H270290   1.888   2.218   3.763  0.9639 -1.1951 -2.2796
16267TIP3   OH270291   2.431   6.426   2.097  0.0485 -0.4395 -0.0193
16267TIP3    H170292   2.388   6.457   2.017  1.3466 -0.4844 -0.7472
16267TIP3    H270293   2.473   6.344   2.071 -0.7694 -1.2230  1.1005
16268TIP3   OH270294   1.330   0.126   2.984  0.0412  0.2504  0.5002
16268TIP3    H170295   1.398   0.077   2.939 -1.1407 -0.6652 -0.2897
16268TIP3    H270296   1.355   0.123   3.077  1.2291  0.1844  0.1761
16269TIP3   OH270297   1.664   0.266   2.882 -0.1013  0.5715 -0.2311
16269TIP3    H170298   1.676   0.353   2.846  0.4642  0.6750  0.2028
16269TIP3    H270299   1.601   0.224   2.824  0.3319  0.9524 -0.9734
16270TIP3   OH270300   4.939   5.425   0.440 -0.4616  0.1910  0.3197
16270TIP3    H170301   4.934   5.520   0.447 -0.6711  0.1616  0.5690
16270TIP3    H270302   4.973   5.397   0.525 -0.2970  0.0512  0.2080
16271TIP3   OH270303   5.093   4.774  17.079  0.6095 -0.1676  0.0103
16271TIP3    H170304   5.047   4.717  17.141  3.3198 -1.7893  0.6067
16271TIP3    H270305   5.097   4.859  17.124  0.7131 -0.7726  1.1566
16272TIP3   OH270306   2.487   5.707   0.898  0.1110  0.4081 -0.0812
16272TIP3    H170307   2.435   5.749   0.829  1.6976 -0.3743 -1.7948
16272TIP3    H270308   2.576   5.706   0.863  0.3006 -3.3555  0.3832
16273TIP3   OH270309   0.280   6.323   2.072  0.1117 -0.3697 -0.6951
16273TIP3    H170310   0.318   6.342   2.158  0.5332  2.5663 -1.4707
16273TIP3    H270311   0.187   6.314   2.089  0.5132 -2.8357  0.4877
16274TIP3   OH270312   4.604   0.090  13.708  0.1164 -0.0381 -0.4713
16274TIP3    H170313   4.692   0.123  13.691  0.2580 -0.2939 -0.2417
16274TIP3    H270314   4.618  -0.001  13.733 -0.1058  0.2856  0.8411
16275TIP3   OH270315   2.558   0.003  11.028  1.0194  0.2972 -0.1153
16275TIP3    H170316   2.624   0.013  11.096 -0.7362  1.7963  1.4228
16275TIP3    H270317   2.539  -0.091  11.027  1.4401  0.1866  1.0821
16276TIP3   OH270318   0.299   4.147  16.351 -0.6259  0.1886 -0.0032
16276TIP3    H170319   0.272   4.140  16.443 -0.2426  1.1526  0.1898
16276TIP3    H270320   0.230   4.199  16.310 -0.4660  0.3168 -0.1126
16277TIP3   OH270321   1.221   4.005   5.693  0.2763 -0.2397 -0.2389
16277TIP3    H170322   1.208   4.094   5.658  0.6764  0.4354  1.3046
16277TIP3    H270323   1.307   4.008   5.734 -0.1893 -1.0112  0.8115
16278TIP3   OH270324   5.517   4.974   6.132  0.0181  0.0300 -0.7004
16278TIP3    H170325   5.524   4.891   6.178  0.5832  0.6405  0.3472
16278TIP3    H270326   5.596   4.979   6.079  0.2068  0.0906 -0.4186
16279TIP3   OH270327   3.984   3.714   4.387 -0.1548  0.2340  0.1418
16279TIP3    H170328   4.025   3.701   4.472  0.9216  2.4471 -0.0172
16279TIP3    H270329   4.044   3.671   4.325 -0.1293 -0.0095  0.3348
16280TIP3   OH270330   1.857   0.956   2.826 -0.6864 -0.1970  0.0523
16280TIP3    H170331   1.911   1.006   2.765 -1.3921 -0.5224 -0.8578
16280TIP3    H270332   1.846   0.870   2.784 -2.3649  0.0535 -0.0446
16281TIP3   OH270333   5.301   3.815  15.363 -0.0292 -0.3235  0.0489
16281TIP3    H170334   5.348   3.816  15.447 -0.7044 -0.8435  0.4294
16281TIP3    H270335   5.210   3.798  15.386 -0.3808  0.4815 -0.7142
16282TIP3   OH270336   2.331   1.657   1.277  0.2758 -0.3637 -0.1127
16282TIP3    H170337   2.406   1.717   1.285  1.2215 -1.5147 -0.2753
16282TIP3    H270338   2.254   1.714   1.285  1.1633  0.7727  0.4950
16283TIP3   OH270339   1.833   6.305   0.822  0.1881 -0.3283  0.0048
16283TIP3    H170340   1.751   6.354   0.817  0.1842 -0.4886 -1.5593
16283TIP3    H270341   1.854   6.305   0.916 -1.5233 -0.1770  0.4181
16284TIP3   OH270342   0.062   0.771  11.836  0.2470 -0.4434 -0.1108
16284TIP3    H170343   0.077   0.720  11.756  0.1669 -1.1137  0.3026
16284TIP3    H270344   0.062   0.862  11.806 -0.2167 -0.7123 -0.9412
16285TIP3   OH270345   1.930   1.794  12.419  0.5818  0.2733  0.0143
16285TIP3    H170346   2.014   1.751  12.404  0.4094 -0.0910  0.0872
16285TIP3    H270347   1.952   1.886  12.429  1.0207  0.1282  0.4352
16286TIP3   OH270348   2.471   2.454  14.024  0.3622  0.2157  0.1045
16286TIP3    H170349   2.391   2.470  14.075  0.8362  1.6776  0.4279
16286TIP3    H270350   2.522   2.393  14.078  0.0147  0.2501  0.4767
16287TIP3   OH270351   4.285   2.515   0.845 -0.0003 -0.1256 -0.5796
16287TIP3    H170352   4.268   2.448   0.778 -0.5628  1.1722 -1.7567
16287TIP3    H270353   4.371   2.550   0.822 -1.1681  1.8914 -1.9941
16288TIP3   OH270354   4.598   2.317   1.619 -0.0027 -0.4020  0.3110
16288TIP3    H170355   4.683   2.309   1.576  0.7545 -0.1284  1.7501
16288TIP3    H270356   4.616   2.309   1.712 -1.5698 -0.4431  0.6324
16289TIP3   OH270357   1.985   4.853   4.285  0.3370  0.0055 -0.7468
16289TIP3    H170358   1.931   4.790   4.332  0.2213 -1.1503 -2.4129
16289TIP3    H270359   2.073   4.842   4.322  0.3557 -1.2643 -1.1714
16290TIP3   OH270360   5.524   5.687   5.324 -0.1624 -0.3128  0.2725
16290TIP3    H170361   5.459   5.624   5.354 -0.1647 -0.2722  0.3509
16290TIP3    H270362   5.510   5.765   5.378  0.0432 -0.3531  0.3840
16291TIP3   OH270363   0.813   3.065   3.962 -0.2479  0.2173 -0.8535
16291TIP3    H170364   0.752   3.037   3.895 -1.1971  1.8275 -0.6878
16291TIP3    H270365   0.874   3.124   3.917 -0.4770  0.7706 -0.4507
16292TIP3   OH270366   4.022   4.924   0.584  0.1333 -0.3168 -0.2687
16292TIP3    H170367   4.055   4.952   0.499 -0.5836 -0.3257 -0.5592
16292TIP3    H270368   3.954   4.988   0.605  0.6725 -0.0081  0.5470
16293TIP3   OH270369   4.422   6.148   5.218  0.0873  0.4831  0.6413
16293TIP3    H170370   4.379   6.230   5.194 -0.5011 -0.0994 -0.3376
16293TIP3    H270371   4.438   6.155   5.312  1.7195  2.4993  0.2410
16294TIP3   OH270372   0.248   2.785   1.069 -0.1482  0.0315  0.1677
16294TIP3    H170373   0.185   2.811   1.136  0.4227  0.0019  0.7087
16294TIP3    H270374   0.194   2.770   0.991 -0.3710  3.8816 -0.4789
16295TIP3   OH270375   3.449   1.757  12.133  0.4425 -0.6549 -0.1156
16295TIP3    H170376   3.501   1.826  12.093 -0.9116 -0.7620 -2.1515
16295TIP3    H270377   3.511   1.708  12.187  1.8922  0.7488 -0.4725
16296TIP3   OH270378   0.353   0.783  12.159  0.0735 -0.3356  0.1626
16296TIP3    H170379   0.384   0.805  12.072  0.7018  0.9909  0.7111
16296TIP3    H270380   0.416   0.718  12.191 -0.3147 -1.0230 -0.4687
16297TIP3   OH270381   5.273   0.672   2.461 -0.1898  0.9771 -0.4363
16297TIP3    H170382   5.258   0.766   2.472 -1.2573  0.9214 -1.2750
16297TIP3    H270383   5.251   0.655   2.369 -1.0699 -0.2758 -0.0158
16298TIP3   OH270384   6.621   0.715   4.882  0.9765 -0.3363 -0.3482
16298TIP3    H170385   6.530   0.731   4.858  1.3033  0.9476 -0.7655
16298TIP3    H270386   6.633   0.621   4.868  0.6054  0.0197 -3.4605
16299TIP3   OH270387   6.210   4.663   3.203  0.5702  0.0172 -0.5269
16299TIP3    H170388   6.156   4.638   3.127 -0.3669 -2.6059  0.9171
16299TIP3    H270389   6.233   4.754   3.187 -1.4266  0.1772 -2.9072
16300TIP3   OH270390   1.271   2.843   1.098 -0.3669 -0.2682  0.6096
16300TIP3    H170391   1.219   2.794   1.034  0.8692 -0.8893  0.0728
16300TIP3    H270392   1.252   2.935   1.077 -1.1714 -0.4829  0.3590
16301TIP3   OH270393   6.595   0.320   5.193  0.2055  0.0266  0.6102
16301TIP3    H170394   6.570   0.411   5.207 -1.5263  0.0415 -2.1913
16301TIP3    H270395   6.682   0.324   5.154  0.6714  0.4087  1.6717
16302TIP3   OH270396   5.630   1.057  12.079  0.2892 -0.6997 -0.3801
16302TIP3    H170397   5.667   1.144  12.062  0.3252 -0.7171 -0.3894
16302TIP3    H270398   5.629   1.014  11.994 -1.2641 -0.1172 -0.6812
16303TIP3   OH270399   0.523   6.321  14.530 -0.4736 -0.6153  0.4715
16303TIP3    H170400   0.615   6.311  14.551 -0.5597  0.5450  1.4411
16303TIP3    H270401   0.481   6.341  14.614 -0.9247  3.3738 -0.6061
16304TIP3   OH270402   0.994   3.342   0.935  0.3052  0.3472 -0.1140
16304TIP3    H170403   1.089   3.352   0.941  0.0108  3.2355  0.4774
16304TIP3    H270404   0.963   3.355   1.025 -0.5236 -2.5246  0.0518
16305TIP3   OH270405   2.295   3.585   0.310 -0.3226  0.0325 -0.0672
16305TIP3    H170406   2.384   3.607   0.335 -1.0250  0.0343  2.5330
16305TIP3    H270407   2.254   3.669   0.290  0.4065 -0.0216 -1.9062
16306TIP3   OH270408   5.852   5.370  16.085 -0.1614  0.0112 -0.1620
16306TIP3    H170409   5.943   5.391  16.062  0.2464  0.5245  1.8593
16306TIP3    H270410   5.812   5.455  16.103 -1.1160 -0.1968 -1.2294
16307TIP3   OH270411   3.848   4.314  14.353  0.2860  0.5537  0.1774
16307TIP3    H170412   3.885   4.280  14.434  1.9225  1.4599 -0.1666
16307TIP3    H270413   3.753   4.307  14.365  0.5093  0.6649  2.1683
16308TIP3   OH270414   4.104   5.629  15.234  0.2246  0.5261  0.1991
16308TIP3    H170415   4.185   5.668  15.200  1.0136  0.6440  2.1405
16308TIP3    H270416   4.082   5.560  15.172  2.6636 -0.5153  0.4333
16309TIP3   OH270417   6.169   5.281   2.463  0.1389  0.2835 -0.4864
16309TIP3    H170418   6.090   5.249   2.420 -0.7906 -1.3178  2.2948
16309TIP3    H270419   6.145   5.367   2.498  0.0633  0.4146 -0.8641
16310TIP3   OH270420   3.493   1.846  12.477 -0.0485  0.2455  0.0149
16310TIP3    H170421   3.413   1.895  12.460 -0.8309 -1.6263 -1.9635
16310TIP3    H270422   3.468   1.778  12.538  0.5855  1.0305  1.1807
16311TIP3   OH270423   0.599   4.685  11.777  0.1011 -0.8231  0.2427
16311TIP3    H170424   0.611   4.613  11.839 -0.4111 -1.9535 -0.9526
16311TIP3    H270425   0.654   4.662  11.702  0.3064  0.2718  0.0448
16312TIP3   OH270426   5.237   3.914   5.797  0.1983 -0.6370  0.6775
16312TIP3    H170427   5.251   3.940   5.888  0.7361  1.7433 -0.0215
16312TIP3    H270428   5.244   3.997   5.748 -0.6578 -1.7867 -1.4508
16313TIP3   OH270429   2.585   6.223   1.394 -0.1929 -0.0571 -0.3290
16313TIP3    H170430   2.631   6.140   1.384  1.1899  0.6787 -0.1870
16313TIP3    H270431   2.631   6.283   1.336 -1.3488  0.5565 -0.6309
16314TIP3   OH270432   5.832   3.763   4.473 -0.5439  0.2325 -0.2152
16314TIP3    H170433   5.844   3.734   4.383  3.6571 -0.8529  0.5619
16314TIP3    H270434   5.803   3.685   4.520 -2.9336  0.8481 -0.6153
16315TIP3   OH270435   3.268   5.318   1.551 -0.9125  0.0778 -0.0326
16315TIP3    H170436   3.195   5.356   1.501 -1.9223 -2.0119 -0.2045
16315TIP3    H270437   3.231   5.240   1.592  1.1240 -0.7889  0.2168
16316TIP3   OH270438   0.238   0.174   1.207  0.3657  0.3955 -0.1537
16316TIP3    H170439   0.211   0.177   1.299 -1.1514 -0.6312 -0.5356
16316TIP3    H270440   0.199   0.093   1.174  1.0548  0.6613 -1.6576
16317TIP3   OH270441   2.403   1.372  13.900 -0.4319  0.7778 -0.4029
16317TIP3    H170442   2.476   1.394  13.958 -0.9911 -1.7048  1.3421
16317TIP3    H270443   2.347   1.314  13.953 -1.3216 -1.0061 -3.1882
16318TIP3   OH270444   6.619   2.414  12.492  0.2557  1.4263 -0.2136
16318TIP3    H170445   6.584   2.483  12.549  2.9628  2.0417  0.7619
16318TIP3    H270446   6.651   2.347  12.553  0.7459  0.8749 -1.0770
16319TIP3   OH270447   3.091   6.266   6.510 -0.0684 -0.0083  0.2116
16319TIP3    H170448   3.019   6.328   6.518  0.4636  0.4437  1.6968
16319TIP3    H270449   3.049   6.184   6.483 -1.3727 -0.1477  2.4749
16320TIP3   OH270450   3.338   5.504  16.312 -0.0828 -0.0763  0.3499
16320TIP3    H170451   3.351   5.519  16.406 -0.1677 -1.6734  0.6345
16320TIP3    H270452   3.248   5.534  16.295 -0.8018 -1.6745  1.2188
16321TIP3   OH270453   6.716   5.734   4.481  0.2573 -0.6149  0.3216
16321TIP3    H170454   6.685   5.789   4.552 -2.4666 -1.2466 -0.3344
16321TIP3    H270455   6.797   5.695   4.514  0.3271  0.9919  2.1150
16322TIP3   OH270456   2.280   0.332  13.348  0.2164 -0.2160  0.3045
16322TIP3    H170457   2.368   0.367  13.361  1.0309 -2.1120  0.0914
16322TIP3    H270458   2.263   0.282  13.428 -0.2085 -0.8091 -0.1612
16323TIP3   OH270459   4.304   0.832  12.860 -0.4876  0.3001  0.1383
16323TIP3    H170460   4.367   0.789  12.917 -1.3682 -0.1470  0.7735
16323TIP3    H270461   4.319   0.926  12.874  0.0056  0.1954  0.3111
16324TIP3   OH270462   5.615   5.850   0.595  0.2661  0.5973 -0.5310
16324TIP3    H170463   5.557   5.810   0.660  1.2820  1.7426  1.1095
16324TIP3    H270464   5.564   5.922   0.558  0.2214  0.8879  0.0885
16325TIP3   OH270465   0.526   5.920   6.021  0.4373  0.0787 -0.6534
16325TIP3    H170466   0.473   5.847   5.991 -2.2325  0.1494  3.4383
16325TIP3    H270467   0.479   5.998   5.991  1.2158  0.1322 -1.7413
16326TIP3   OH270468   0.153   3.148   2.173  0.3730  0.9504  0.5124
16326TIP3    H170469   0.171   3.057   2.197  0.2013  0.2876 -1.7359
16326TIP3    H270470   0.236   3.180   2.139 -0.4359  0.5048 -1.9997
16327TIP3   OH270471   0.351   5.864   6.249  0.1063 -0.4897 -0.6102
16327TIP3    H170472   0.435   5.837   6.212  0.4072  0.0755 -0.3346
16327TIP3    H270473   0.372   5.894   6.338 -0.4724 -0.9116 -0.3259
16328TIP3   OH270474   6.555   5.720  13.384  0.3769 -0.0637  1.0580
16328TIP3    H170475   6.578   5.632  13.413 -0.1407 -0.3101  0.7230
16328TIP3    H270476   6.527   5.765  13.464 -1.2369 -0.8037  0.9221
16329TIP3   OH270477   5.028   2.527   1.606  0.2974  0.2174 -0.2848
16329TIP3    H170478   5.094   2.528   1.675 -1.1155 -0.2607  1.1038
16329TIP3    H270479   4.962   2.591   1.635 -0.4925 -0.2618 -0.9914
16330TIP3   OH270480   3.193   2.869   4.959  0.1855  0.4557  0.1566
16330TIP3    H170481   3.215   2.832   4.874 -1.6622 -3.6043  1.2811
16330TIP3    H270482   3.101   2.893   4.952  0.3854  1.3742  0.5989
16331TIP3   OH270483   2.292   4.871   4.053  0.6976  0.2808  0.0736
16331TIP3    H170484   2.312   4.962   4.075 -2.3304  0.4991  2.2315
16331TIP3    H270485   2.286   4.827   4.138  1.7004 -1.8360 -0.9366
16332TIP3   OH270486   5.091   2.940  15.171 -0.7158  0.3766  0.4903
16332TIP3    H170487   5.075   3.010  15.108  0.4977 -0.6516 -0.9969
16332TIP3    H270488   5.093   2.985  15.256 -3.0749  1.6695 -0.1057
16333TIP3   OH270489   3.497   2.380   3.144 -0.1155  0.4096  0.2881
16333TIP3    H170490   3.432   2.343   3.084 -0.7662 -0.2453  1.3772
16333TIP3    H270491   3.573   2.399   3.089  1.0061 -4.4267  0.0065
16334TIP3   OH270492   5.997   3.953  12.279 -0.2354 -0.4023 -0.3233
16334TIP3    H170493   6.059   4.020  12.309 -0.6173 -0.1988  0.0032
16334TIP3    H270494   6.009   3.951  12.183  0.6076 -0.6902 -0.2214
16335TIP3   OH270495   0.924   0.314   5.617  0.5854 -0.2519  0.6915
16335TIP3    H170496   0.856   0.363   5.663 -0.5051 -1.4745  0.3790
16335TIP3    H270497   0.967   0.380   5.562 -1.5288  0.1599 -0.5000
16336TIP3   OH270498   3.225   5.045  11.615  0.0977  0.1536 -0.3189
16336TIP3    H170499   3.253   5.023  11.705 -0.4353  0.6163 -0.0389
16336TIP3    H270500   3.274   5.124  11.595 -1.0626  1.0144  0.2033
16337TIP3   OH270501   3.889   1.829  12.258 -0.1691 -0.2902  0.3137
16337TIP3    H170502   3.888   1.831  12.162  0.9690 -0.7836  0.2862
16337TIP3    H270503   3.966   1.777  12.280 -0.5169 -0.3120  1.4980
16338TIP3   OH270504   2.821   2.712   4.474  0.2381 -0.5020 -0.0517
16338TIP3    H170505   2.826   2.694   4.568  1.1566 -5.1080 -0.8600
16338TIP3    H270506   2.727   2.720   4.457 -0.3046 -4.4785  0.5593
16339TIP3   OH270507   6.670   5.850  14.333 -0.0872  0.0947 -0.1382
16339TIP3    H170508   6.648   5.940  14.358 -0.1069  0.6869 -2.1917
16339TIP3    H270509   6.763   5.842  14.353  0.1864  0.9677 -0.9819
16340TIP3   OH270510   1.964   3.007   4.650  0.2868 -0.4528  0.2115
16340TIP3    H170511   1.888   3.029   4.596 -0.2130 -0.6929  0.8034
16340TIP3    H270512   2.006   3.091   4.668  1.3193 -0.5110 -1.7803
16341TIP3   OH270513   0.053   5.513   2.197 -0.0828  0.6445 -0.1763
16341TIP3    H170514   0.052   5.455   2.121  0.5789 -1.4843  1.3816
16341TIP3    H270515  -0.038   5.538   2.209 -0.6785 -1.6181  0.2477
16342TIP3   OH270516   1.702   2.732   5.898  0.3295  0.3123 -1.0937
16342TIP3    H170517   1.664   2.804   5.949  2.8497  0.3388  0.8184
16342TIP3    H270518   1.730   2.668   5.964  1.8145 -0.5863 -2.5650
16343TIP3   OH270519   6.224   4.042   5.919  0.0364 -1.0387 -0.5025
16343TIP3    H170520   6.178   4.090   5.851 -0.2591  2.0491  1.7799
16343TIP3    H270521   6.159   3.982   5.955 -1.0389  0.3731 -0.0723
16344TIP3   OH270522   3.368   4.448  14.877 -0.3396  0.0551 -0.3838
16344TIP3    H170523   3.445   4.406  14.916 -0.5995  1.6326  1.8870
16344TIP3    H270524   3.312   4.375  14.851 -0.3036 -1.0723  2.5165
16345TIP3   OH270525   2.548   3.385   3.391  0.0758  0.1169  0.3341
16345TIP3    H170526   2.573   3.450   3.457  0.5449 -0.9676  1.2511
16345TIP3    H270527   2.568   3.301   3.432 -1.2719 -0.6324 -0.5221
16346TIP3   OH270528   4.127   6.411  14.148  0.4800  0.7725 -0.2755
16346TIP3    H170529   4.152   6.381  14.061  0.0290 -0.0275 -0.1341
16346TIP3    H270530   4.067   6.484  14.133 -0.2291  0.1142 -0.6445
16347TIP3   OH270531   6.014   4.858  12.678  0.0306 -0.6105 -0.1713
16347TIP3    H170532   5.961   4.798  12.627  3.5234 -3.3551 -0.7476
16347TIP3    H270533   6.028   4.933  12.620 -0.5685 -1.2738 -1.1882
16348TIP3   OH270534   3.557   0.035   5.222  0.6906 -0.5831 -0.1900
16348TIP3    H170535   3.494  -0.030   5.252 -1.6026  1.2162 -0.9500
16348TIP3    H270536   3.517   0.072   5.144  1.4945  2.3632  0.7351
16349TIP3   OH270537   1.348   5.630  13.021 -0.3547  0.3198  0.3267
16349TIP3    H170538   1.394   5.546  13.016  1.8323  1.5220 -0.2115
16349TIP3    H270539   1.262   5.612  12.983  0.4073 -1.4619 -0.6158
16350TIP3   OH270540   3.658   4.304   1.262 -0.0167 -0.1756  0.0686
16350TIP3    H170541   3.697   4.365   1.201  0.3381  0.6358  1.0863
16350TIP3    H270542   3.727   4.286   1.326 -0.8475  0.1727  1.0833
16351TIP3   OH270543   3.256   5.385  12.725  0.5470  0.0818 -0.2074
16351TIP3    H170544   3.255   5.474  12.689  0.1223  0.2314  0.1664
16351TIP3    H270545   3.333   5.383  12.783  0.5800  0.1934 -0.2492
16352TIP3   OH270546   1.560   3.795   0.613  0.8861  0.2528  0.4325
16352TIP3    H170547   1.494   3.821   0.549  0.5683 -1.6926 -0.0848
16352TIP3    H270548   1.536   3.841   0.694 -1.3151 -0.7010  0.3533
16353TIP3   OH270549   1.576   6.501  13.055 -0.1309  0.7857  0.6598
16353TIP3    H170550   1.611   6.589  13.069 -0.1352  0.9980 -0.5681
16353TIP3    H270551   1.651   6.449  13.026 -0.2630  0.5626  0.7120
16354TIP3   OH270552   2.399   1.655   0.128  0.5411  0.1082 -0.2305
16354TIP3    H170553   2.376   1.566   0.102  0.7414  0.3338 -1.2094
16354TIP3    H270554   2.486   1.646   0.169 -0.0359 -0.3326  0.9188
16355TIP3   OH270555   2.729   0.247   0.069 -0.4435  0.0745 -0.4905
16355TIP3    H170556   2.736   0.222  -0.023  2.2484  0.5483 -0.4480
16355TIP3    H270557   2.706   0.340   0.066 -0.4614  0.0647 -0.6674
16356TIP3   OH270558   3.504   2.390   1.215 -0.5427  0.2066  0.8342
16356TIP3    H170559   3.478   2.313   1.265 -0.9516 -0.4140 -0.3334
16356TIP3    H270560   3.449   2.461   1.250 -0.4259 -0.0957  1.6458
16357TIP3   OH270561   2.578   3.973  16.660 -0.1634  0.0378  0.2277
16357TIP3    H170562   2.653   3.961  16.602 -1.3029 -0.2757 -1.2066
16357TIP3    H270563   2.504   3.986  16.602 -1.4299 -0.7903  1.6059
16358TIP3   OH270564   6.147   4.503   0.309 -0.4084  0.3261 -0.0697
16358TIP3    H170565   6.122   4.519   0.400  0.6661  0.2577  0.2475
16358TIP3    H270566   6.072   4.457   0.271 -1.7622  2.2532  0.1780
16359TIP3   OH270567   0.584   1.783   0.981  0.5146  0.6373 -0.1666
16359TIP3    H170568   0.611   1.789   1.073 -1.7100  0.4997  0.5429
16359TIP3    H270569   0.606   1.868   0.943  1.4037  0.7139  0.5194
16360TIP3   OH270570   4.619   5.942  13.215 -0.0942 -0.4851 -0.3039
16360TIP3    H170571   4.585   6.019  13.169 -2.9216 -1.8485 -0.5799
16360TIP3    H270572   4.638   5.974  13.304 -0.3890  0.7364 -0.6683
16361TIP3   OH270573   2.451   2.375  15.345  0.1677 -0.0992 -0.2303
16361TIP3    H170574   2.524   2.390  15.285 -0.4928 -1.7698 -1.4932
16361TIP3    H270575   2.492   2.358  15.430  1.1816  0.5574 -0.5846
16362TIP3   OH270576   2.665   1.282   2.741  0.9443  0.3886  0.0007
16362TIP3    H170577   2.661   1.190   2.715  0.4389  0.8204 -1.4674
16362TIP3    H270578   2.609   1.328   2.679 -1.0030  1.3472  2.3621
16363TIP3   OH270579   3.365   1.851   5.389  0.3248  0.6381 -0.2106
16363TIP3    H170580   3.313   1.807   5.322  1.8772 -1.3206 -0.1907
16363TIP3    H270581   3.331   1.818   5.472 -0.1603  1.3995 -0.1032
16364TIP3   OH270582   4.225   4.995  13.684 -0.1819  0.3154  0.0559
16364TIP3    H170583   4.178   4.973  13.604  0.2845 -0.9459  0.1290
16364TIP3    H270584   4.184   5.076  13.714 -0.5058  0.6757 -1.3320
16365TIP3   OH270585   1.271   1.498   3.304  0.2067  0.5427 -0.5229
16365TIP3    H170586   1.188   1.541   3.285  0.4715  0.5793 -1.6512
16365TIP3    H270587   1.248   1.424   3.360 -0.6747  0.1805 -1.3503
16366TIP3   OH270588   3.355   6.667   5.256 -0.4857 -0.2570  0.5964
16366TIP3    H170589   3.325   6.735   5.317 -1.4573 -0.2954  0.1733
16366TIP3    H270590   3.324   6.697   5.171 -0.1155 -0.7772  0.2788
16367TIP3   OH270591   0.720   5.816  12.754  0.3425 -0.1283 -1.0202
16367TIP3    H170592   0.761   5.765  12.683  2.6217 -0.4425  0.4648
16367TIP3    H270593   0.747   5.771  12.834 -1.7209  0.5781  0.1035
16368TIP3   OH270594   0.794   1.829   5.397  0.0935 -0.2070  0.6768
16368TIP3    H170595   0.725   1.804   5.336 -1.5534 -0.3109  2.5240
16368TIP3    H270596   0.761   1.907   5.440  3.2469  2.6786 -1.8142
16369TIP3   OH270597   5.276   5.329  15.306  0.2513  0.0569  0.0885
16369TIP3    H170598   5.308   5.270  15.238 -0.8709 -1.5253  0.9106
16369TIP3    H270599   5.195   5.289  15.337  2.1151 -0.7632  4.2679
16370TIP3   OH270600   5.115   2.943   1.835 -0.7513  0.8134  0.0958
16370TIP3    H170601   5.051   2.970   1.900 -0.6858 -1.4878  1.1668
16370TIP3    H270602   5.064   2.923   1.757 -0.9698  2.3033 -0.1446
16371TIP3   OH270603   0.829   5.875   0.385 -0.3405 -0.0610 -0.0661
16371TIP3    H170604   0.866   5.791   0.412  0.1298 -0.4557 -1.9117
16371TIP3    H270605   0.904   5.935   0.386 -0.5241  0.1668  0.4762
16372TIP3   OH270606   5.717   4.788   1.479  0.1970 -0.1286 -0.5491
16372TIP3    H170607   5.702   4.696   1.500  1.2443 -0.1010  0.3834
16372TIP3    H270608   5.646   4.834   1.524  1.3912 -0.2335  1.5083
16373TIP3   OH270609   1.017   5.001  12.594  0.3679  0.7526 -0.4002
16373TIP3    H170610   1.096   5.035  12.552  1.2006 -0.2577  0.3294
16373TIP3    H270611   1.048   4.927  12.646 -0.7513  1.5541  1.4524
16374TIP3   OH270612   4.884   1.385   6.680  0.0327 -0.3998  0.2627
16374TIP3    H170613   4.907   1.470   6.642  0.1645 -0.7144 -0.3661
16374TIP3    H270614   4.795   1.368   6.649  0.3236 -0.8854 -0.3090
16375TIP3   OH270615   1.579   0.038  15.758 -0.1999 -0.2733  0.1811
16375TIP3    H170616   1.604   0.107  15.820  1.6084 -0.5746 -0.1651
16375TIP3    H270617   1.574   0.082  15.673  1.3875 -0.6291 -0.1110
16376TIP3   OH270618   6.353   1.177   2.773 -0.0275 -0.1703 -0.5417
16376TIP3    H170619   6.347   1.128   2.854  0.2116  0.2897 -0.2409
16376TIP3    H270620   6.427   1.237   2.787  0.3596 -0.4627 -1.2934
16377TIP3   OH270621   6.305   3.534  12.949  0.1538 -0.4495  0.3622
16377TIP3    H170622   6.211   3.527  12.960  0.0104  1.0914  0.2140
16377TIP3    H270623   6.337   3.567  13.033  0.7392 -2.3012  0.8949
16378TIP3   OH270624   1.302   6.811   0.980  0.6860  0.0079  0.0391
16378TIP3    H170625   1.238   6.836   0.914  0.2399 -2.5369 -0.5388
16378TIP3    H270626   1.387   6.832   0.940  0.2839  3.6660  0.9260
16379TIP3   OH270627   5.712   0.952  11.860 -0.1385  0.3532  0.1289
16379TIP3    H170628   5.695   0.858  11.869  0.4693  0.2190 -0.0902
16379TIP3    H270629   5.666   0.978  11.781  0.2833  0.0844 -0.2113
16380TIP3   OH270630   2.830   1.255  12.404  0.6973  0.1085  0.0178
16380TIP3    H170631   2.913   1.291  12.433  0.9363  0.6389 -1.2683
16380TIP3    H270632   2.816   1.294  12.317 -0.5715 -0.4693 -0.0504
16381TIP3   OH270633   4.692   1.840  16.550 -0.2494 -0.3721 -0.0471
16381TIP3    H170634   4.726   1.769  16.605 -0.3263  0.3754  0.9888
16381TIP3    H270635   4.601   1.852  16.578 -0.5946 -0.6325 -1.0211
16382TIP3   OH270636   5.645   5.415   5.449  0.2698 -0.5531  0.0346
16382TIP3    H170637   5.723   5.383   5.403  1.5191  0.9703  1.0505
16382TIP3    H270638   5.634   5.505   5.418 -1.0073 -0.7048  0.0132
16383TIP3   OH270639   4.091   3.179   2.976 -0.1510 -0.6603 -0.9481
16383TIP3    H170640   4.049   3.158   3.059 -0.7876 -0.3137 -1.1836
16383TIP3    H270641   4.042   3.254   2.942  0.2021 -0.7030 -1.5646
16384TIP3   OH270642   5.654   5.715   3.650  0.0980 -0.0412 -0.5969
16384TIP3    H170643   5.734   5.767   3.653 -0.1825  0.4255 -0.9568
16384TIP3    H270644   5.633   5.709   3.556  0.9271 -2.0611 -0.6814
16385TIP3   OH270645   4.108   2.320   5.367 -0.0682 -0.5945  0.3832
16385TIP3    H170646   4.164   2.356   5.436  1.3442  0.1334 -1.1181
16385TIP3    H270647   4.096   2.393   5.306  1.5217 -2.1829 -1.8903
16386TIP3   OH270648   6.226   0.158  14.124  0.2280 -0.4165  0.1602
16386TIP3    H170649   6.236   0.252  14.133  0.1958 -0.1772 -1.9196
16386TIP3    H270650   6.272   0.121  14.199  2.1026  1.1903 -0.1742
16387TIP3   OH270651   0.935   1.850  15.196  0.2981 -0.6079  0.1852
16387TIP3    H170652   0.952   1.944  15.204 -0.5835 -0.6291  2.6446
16387TIP3    H270653   0.970   1.827  15.110  0.6653  1.9339 -0.3950
16388TIP3   OH270654   2.632   0.903   5.681 -0.0199  0.0494  0.1526
16388TIP3    H170655   2.719   0.929   5.713  0.3767 -2.0420  0.8322
16388TIP3    H270656   2.589   0.864   5.757 -0.7491 -0.8797 -0.7158
16389TIP3   OH270657   6.088   5.582   3.614 -0.6578 -0.5075 -0.5142
16389TIP3    H170658   6.162   5.630   3.653 -1.9489  0.8217  0.3335
16389TIP3    H270659   6.111   5.576   3.521  0.7473 -0.5359 -0.1820
16390TIP3   OH270660   3.747   2.142   5.289 -0.5209 -0.0280 -0.5394
16390TIP3    H170661   3.833   2.119   5.254 -0.8275 -0.8126 -0.7956
16390TIP3    H270662   3.697   2.060   5.284 -0.7711  0.0079  1.1436
16391TIP3   OH270663   3.021   1.080   4.074  0.0605 -0.2626 -0.2035
16391TIP3    H170664   3.077   1.019   4.026 -1.1782 -0.6133 -1.2559
16391TIP3    H270665   2.949   1.098   4.013  0.4295  2.2956  0.0520
16392TIP3   OH270666   5.203   0.358   1.123  0.1095 -0.1083 -0.1492
16392TIP3    H170667   5.118   0.398   1.144 -0.2208 -0.9083  0.0560
16392TIP3    H270668   5.196   0.333   1.031 -0.8429 -2.5171  0.5354
16393TIP3   OH270669   6.817   0.464   4.377  0.0851 -0.7930  0.1669
16393TIP3    H170670   6.794   0.372   4.363  0.7404 -0.8612 -0.4546
16393TIP3    H270671   6.824   0.500   4.289 -1.2818  0.1310  0.4199
16394TIP3   OH270672   3.787   4.663   0.113 -0.4960  0.0487 -0.3554
16394TIP3    H170673   3.792   4.567   0.119  1.0931  0.1641  0.5028
16394TIP3    H270674   3.731   4.679   0.038 -0.6334 -1.5668 -0.6274
16395TIP3   OH270675   3.183   3.521  12.749 -0.0405 -0.2304  0.3083
16395TIP3    H170676   3.237   3.443  12.739 -0.4389 -0.2439 -2.1917
16395TIP3    H270677   3.241   3.594  12.729  0.5038  0.2084  3.2955
16396TIP3   OH270678   0.844   3.777   3.912 -0.8303 -0.3089  0.0646
16396TIP3    H170679   0.832   3.773   4.007  0.5392  0.7615  0.2931
16396TIP3    H270680   0.756   3.775   3.876 -1.3372 -1.2249  1.3455
16397TIP3   OH270681   3.316   3.421  17.157  0.4528 -0.0462 -0.5013
16397TIP3    H170682   3.252   3.490  17.175  0.6120  0.2708 -1.1269
16397TIP3    H270683   3.376   3.460  17.093  1.6146 -0.1366  0.5034
16398TIP3   OH270684   3.143   6.708   1.451  0.0415  0.5306 -0.0098
16398TIP3    H170685   3.224   6.757   1.458  0.8392 -0.8549  0.6696
16398TIP3    H270686   3.136   6.661   1.534 -1.4356  0.5958 -0.0828
16399TIP3   OH270687   4.498   0.505   0.208  0.5061  0.8258  0.0116
16399TIP3    H170688   4.489   0.499   0.112  1.9861 -0.8449 -0.0329
16399TIP3    H270689   4.560   0.436   0.231 -0.4086  0.7228  2.2806
16400TIP3   OH270690   3.574   0.580  16.128  0.2485 -0.2866  0.3208
16400TIP3    H170691   3.489   0.593  16.087 -0.2689 -0.0491  1.4316
16400TIP3    H270692   3.585   0.485  16.132  0.6071 -0.3056 -0.9500
16401TIP3   OH270693   3.597   3.570  12.160  0.3604  0.6761  0.1019
16401TIP3    H170694   3.525   3.559  12.097  1.2519  0.3909 -0.8865
16401TIP3    H270695   3.617   3.481  12.188 -0.1375  0.8171  0.9144
16402TIP3   OH270696   2.163   4.368   2.190 -0.2780 -0.1385  0.3084
16402TIP3    H170697   2.145   4.414   2.272 -1.4343  1.5864 -0.8899
16402TIP3    H270698   2.142   4.276   2.209 -1.1912  0.3526  1.7415
16403TIP3   OH270699   5.649   3.927   4.692  0.5763 -0.3419 -0.2046
16403TIP3    H170700   5.676   3.923   4.784  0.6069 -0.6373 -0.2238
16403TIP3    H270701   5.729   3.909   4.643  0.0894 -2.5521 -0.2300
16404TIP3   OH270702   0.480   3.378  15.664  0.2545 -0.4466 -0.5021
16404TIP3    H170703   0.537   3.406  15.592  1.6234  3.5059  1.9188
16404TIP3    H270704   0.499   3.285  15.676  4.9167  0.3391 -0.9757
16405TIP3   OH270705   3.835   0.755   3.504  0.4970  0.4929  0.7668
16405TIP3    H170706   3.835   0.793   3.416 -1.0325  0.2282  0.6496
16405TIP3    H270707   3.747   0.771   3.538  0.5391 -0.9359  1.5863
16406TIP3   OH270708   2.584   0.113   5.551 -0.4670 -0.1626  0.1466
16406TIP3    H170709   2.667   0.104   5.599 -0.0817  2.1691 -0.0213
16406TIP3    H270710   2.570   0.028   5.511  2.5345 -0.2260 -0.8891
16407TIP3   OH270711   0.602   1.206   2.208  0.2709 -0.3046  0.0495
16407TIP3    H170712   0.527   1.181   2.263  0.0691  0.8019  0.2815
16407TIP3    H270713   0.650   1.124   2.196 -0.6759 -0.9213  0.3591
16408TIP3   OH270714   6.436   1.303   3.999 -0.0253 -0.2148  0.0816
16408TIP3    H170715   6.399   1.227   4.045 -0.7405 -0.2621 -0.5752
16408TIP3    H270716   6.396   1.379   4.042  1.5033 -0.1427  1.4663
16409TIP3   OH270717   1.989   2.270  17.054 -0.2023 -0.7858  0.3622
16409TIP3    H170718   1.902   2.253  17.018 -0.8360  0.2063  1.3719
16409TIP3    H270719   2.050   2.247  16.983 -1.3309 -0.5191 -0.7062
16410TIP3   OH270720   1.237   4.580   0.775  0.3428 -0.0747 -0.1719
16410TIP3    H170721   1.178   4.629   0.719  2.1749  1.6078 -0.7012
16410TIP3    H270722   1.200   4.492   0.779 -2.4730  1.0814 -0.0104
16411TIP3   OH270723   2.415   3.912   4.551 -0.4612 -0.1043 -0.4446
16411TIP3    H170724   2.333   3.960   4.565  0.0074  0.6795 -0.3791
16411TIP3    H270725   2.478   3.980   4.526  0.6361 -0.4563  1.3360
16412TIP3   OH270726   2.403   0.308   2.879 -0.6132 -0.4295 -0.1614
16412TIP3    H170727   2.375   0.221   2.906  0.2690 -1.1527 -1.4877
16412TIP3    H270728   2.461   0.292   2.805 -0.7176  1.3145 -0.6426
16413TIP3   OH270729   3.792   0.385   5.966 -0.1294 -0.2130  0.3466
16413TIP3    H170730   3.834   0.381   6.052 -0.1251 -0.8503  0.3116
16413TIP3    H270731   3.712   0.436   5.981  0.4172  0.6187  0.5033
16414TIP3   OH270732   4.813   0.118   0.367 -0.4733 -0.1800 -0.3463
16414TIP3    H170733   4.819   0.112   0.272 -1.6012  0.3808 -0.4621
16414TIP3    H270734   4.816   0.027   0.397 -0.8084 -0.3961 -0.9638
16415TIP3   OH270735   5.706   6.556  13.536  0.3591 -0.1746  0.0046
16415TIP3    H170736   5.631   6.559  13.476 -0.8366  2.3019  1.5507
16415TIP3    H270737   5.671   6.519  13.617  1.5004 -1.6816 -0.1799
16416TIP3   OH270738   5.087   5.723  13.490 -0.6377  0.3500 -0.1972
16416TIP3    H170739   5.089   5.768  13.405 -1.6825  1.2727  0.2507
16416TIP3    H270740   5.174   5.737  13.526 -0.0531 -0.4041 -1.2916
16417TIP3   OH270741   1.500   2.904   0.535  0.6975 -0.6199 -0.2190
16417TIP3    H170742   1.490   2.838   0.467 -1.5566  1.4796 -2.0112
16417TIP3    H270743   1.523   2.984   0.488 -2.7026  1.3201  1.2067
16418TIP3   OH270744   1.928   2.858   3.581  0.4184  0.1329  0.7051
16418TIP3    H170745   2.016   2.822   3.568  0.6463  0.8845  0.1062
16418TIP3    H270746   1.893   2.868   3.492  1.0204  2.9834  0.7387
16419TIP3   OH270747   3.191   6.532  11.932 -0.0835 -0.1452 -0.1253
16419TIP3    H170748   3.147   6.578  12.003  0.6379  1.4664 -0.6967
16419TIP3    H270749   3.233   6.457  11.974  0.4158  0.8452  1.1700
16420TIP3   OH270750   0.120   5.800  14.363  0.7127  0.2399 -0.3135
16420TIP3    H170751   0.136   5.838  14.450 -0.4689 -0.2637  0.1523
16420TIP3    H270752   0.159   5.713  14.368  1.7797  0.6980 -0.7304
16421TIP3   OH270753   0.852   0.094  16.132 -0.3096 -0.3666 -0.0555
16421TIP3    H170754   0.883   0.004  16.124 -1.2762 -0.8097  1.1249
16421TIP3    H270755   0.909   0.133  16.199 -0.7799 -0.4926  0.4142
16422TIP3   OH270756   3.404   3.111   3.480 -0.2341 -0.3640  0.0165
16422TIP3    H170757   3.475   3.047   3.474  0.9375  0.9230 -0.2166
16422TIP3    H270758   3.329   3.068   3.440  0.5089 -1.6319 -0.0338
16423TIP3   OH270759   4.912   3.099   5.387  0.7114  0.1722  0.0147
16423TIP3    H170760   4.964   3.068   5.313  0.2789  0.3044 -0.3476
16423TIP3    H270761   4.855   3.166   5.349 -2.2122 -2.4306 -0.3205
16424TIP3   OH270762   5.770   6.059  13.508 -0.1057 -0.3395  0.2664
16424TIP3    H170763   5.747   5.967  13.495  2.4877 -0.9909  0.0898
16424TIP3    H270764   5.691   6.107  13.481 -1.4452 -2.4843  0.2557
16425TIP3   OH270765   6.418   5.835  11.842 -0.1390  0.0956 -0.5415
16425TIP3    H170766   6.421   5.827  11.746  1.5349  0.7790 -0.5598
16425TIP3    H270767   6.509   5.835  11.869 -0.5608  1.0845  0.9631
16426TIP3   OH270768   3.774   5.625  14.338 -0.1597 -0.5905 -0.1247
16426TIP3    H170769   3.814   5.697  14.289  1.0093  0.1177  1.7961
16426TIP3    H270770   3.704   5.666  14.388  0.0011 -0.9204  0.3728
16427TIP3   OH270771   1.875   4.200  12.294  0.2493  0.5279  0.2431
16427TIP3    H170772   1.798   4.150  12.266 -0.1968  0.7029  1.1292
16427TIP3    H270773   1.893   4.168  12.382  0.8945  0.8443  0.2255
16428TIP3   OH270774   1.486   6.053   3.096 -0.3973  0.1601 -0.6679
16428TIP3    H170775   1.569   6.101   3.099  0.4599 -1.3674  0.1272
16428TIP3    H270776   1.428   6.110   3.046  0.9141  1.5728 -0.6112
16429TIP3   OH270777   1.108   0.480   3.439  0.2226 -0.4024  0.4433
16429TIP3    H170778   1.069   0.456   3.523  0.4318 -1.7302  0.1696
16429TIP3    H270779   1.169   0.410   3.419  0.6314  0.2078 -0.5334
16430TIP3   OH270780   3.789   3.501  17.189 -0.4971 -0.1315 -0.4353
16430TIP3    H170781   3.739   3.426  17.156 -1.3441  0.0256  0.4427
16430TIP3    H270782   3.870   3.500  17.139 -1.4566 -0.2950 -2.0155
16431TIP3   OH270783   6.072   4.747  11.814 -0.8652  0.3743 -0.3229
16431TIP3    H170784   5.987   4.732  11.858 -0.0591 -1.7127  0.6024
16431TIP3    H270785   6.122   4.668  11.833  0.8969  1.1083 -1.8414
16432TIP3   OH270786   3.728   5.212  14.590 -0.0854 -0.1210 -0.1346
16432TIP3    H170787   3.788   5.285  14.577  0.6033 -1.0025 -2.0076
16432TIP3    H270788   3.689   5.229  14.676  2.0843  0.9815  0.6795
16433TIP3   OH270789   5.874   0.567  10.493 -0.0459  0.3550  0.5228
16433TIP3    H170790   5.795   0.550  10.441 -1.4502  4.3024  1.2109
16433TIP3    H270791   5.854   0.530  10.579 -0.7160  0.3677  0.3789
16434TIP3   OH270792   5.072   2.566  10.194 -0.0196 -0.0095 -0.0773
16434TIP3    H170793   5.132   2.516  10.250  0.1058 -0.6287 -0.7528
16434TIP3    H270794   5.097   2.657  10.207  1.5991 -0.3055 -0.9287
16435TIP3   OH270795   1.652   4.814   4.184  0.1687  0.0136 -0.4460
16435TIP3    H170796   1.737   4.849   4.214 -0.1786  1.4330 -1.0730
16435TIP3    H270797   1.596   4.820   4.261 -0.2650  2.1332 -0.8980
16436TIP3   OH270798   6.590   3.842  13.095 -0.2632 -0.0586 -0.3155
16436TIP3    H170799   6.573   3.930  13.061 -0.8995  0.4707  1.2924
16436TIP3    H270800   6.671   3.814  13.052  1.0782  2.1661  0.6822
16437TIP3   OH270801   2.724   5.679   6.085  0.6330  0.1042  0.4454
16437TIP3    H170802   2.678   5.626   6.150 -2.5690  3.2630  0.9148
16437TIP3    H270803   2.686   5.651   6.001  2.7585 -2.0145  0.1681
16438TIP3   OH270804   3.827   5.204  13.439  0.4279  0.6849 -0.7939
16438TIP3    H170805   3.748   5.216  13.387 -0.4139  2.5652  0.8696
16438TIP3    H270806   3.821   5.113  13.470 -1.7137  1.1706  0.3003
16439TIP3   OH270807   0.368   6.367   3.457 -0.2779  0.0511 -0.0232
16439TIP3    H170808   0.426   6.421   3.512 -1.8003 -0.7474  2.4618
16439TIP3    H270809   0.388   6.394   3.368  2.8013  0.8999  0.8558
16440TIP3   OH270810   0.075   6.601   5.365  0.1490 -0.4546  0.1743
16440TIP3    H170811   0.070   6.506   5.371 -1.2159 -0.2825  2.3144
16440TIP3    H270812   0.131   6.627   5.439  0.2498  0.4307 -0.2018
16441TIP3   OH270813   1.958   0.305   2.934  0.2906  0.2892  0.1301
16441TIP3    H170814   1.865   0.327   2.932  0.0264 -0.7273  1.1385
16441TIP3    H270815   1.962   0.219   2.975  1.6194 -0.0097 -0.5827
16442TIP3   OH270816   3.683   6.692   1.128 -0.0993 -0.5510 -0.4571
16442TIP3    H170817   3.737   6.696   1.049 -1.8136  0.5790 -1.6219
16442TIP3    H270818   3.716   6.616   1.176  1.8962 -0.4263 -1.5647
16443TIP3   OH270819   3.194   2.320   3.261  0.3424  0.0645 -0.2149
16443TIP3    H170820   3.252   2.396   3.261  0.1514  0.2113 -0.2995
16443TIP3    H270821   3.223   2.267   3.334 -0.8952  1.2580  1.1731
16444TIP3   OH270822   4.620   6.635   2.566  0.2098 -0.2369 -0.1452
16444TIP3    H170823   4.607   6.540   2.556  3.4903 -0.5401 -2.3459
16444TIP3    H270824   4.681   6.642   2.640  0.3440  0.1117 -0.2907
16445TIP3   OH270825   5.362   2.598   4.793 -0.1384 -0.6262 -0.1457
16445TIP3    H170826   5.320   2.652   4.859  2.2567  0.1248  0.8209
16445TIP3    H270827   5.328   2.510   4.808 -0.4854 -0.2420  1.3368
16446TIP3   OH270828   4.275   0.826  13.733  0.2220  0.0537 -0.4427
16446TIP3    H170829   4.220   0.903  13.746  1.2386  0.5871  0.7320
16446TIP3    H270830   4.359   0.849  13.772  0.7836 -1.3664 -0.7766
16447TIP3   OH270831   6.695   2.158  16.411 -0.7793  0.4933 -0.0914
16447TIP3    H170832   6.621   2.098  16.416 -0.6677  0.4376  1.0936
16447TIP3    H270833   6.707   2.188  16.501 -1.1241  2.6609 -0.7561
16448TIP3   OH270834   5.096   2.254   1.687  0.0295 -0.3339 -0.8774
16448TIP3    H170835   5.150   2.324   1.652 -0.0520  0.0106 -0.3204
16448TIP3    H270836   5.071   2.284   1.774  0.7559 -1.4607 -0.2643
16449TIP3   OH270837   3.674   1.298  14.382 -0.5197  0.1472  0.2445
16449TIP3    H170838   3.599   1.341  14.341 -0.4921 -0.3966 -0.3989
16449TIP3    H270839   3.692   1.349  14.460  0.8614  2.6149 -1.6146
16450TIP3   OH270840   1.682   6.231  13.089 -0.1076  0.3139 -0.0038
16450TIP3    H170841   1.596   6.229  13.047  0.1424  0.0748 -0.5203
16450TIP3    H270842   1.738   6.178  13.031  0.0711 -0.6638  1.0277
16451TIP3   OH270843   4.293   5.921  13.032 -0.4316 -0.3872  0.1060
16451TIP3    H170844   4.364   5.857  13.031  0.3317  0.4512 -1.2678
16451TIP3    H270845   4.264   5.926  12.941 -1.8182 -0.2403  0.5466
16452TIP3   OH270846   4.116   5.051   3.760  0.0751  0.3583 -0.3173
16452TIP3    H170847   4.129   5.129   3.815  1.3550 -0.1322  0.0697
16452TIP3    H270848   4.074   4.988   3.818  0.7982  0.0829 -0.0932
16453TIP3   OH270849   4.655   0.342  15.508  0.2854  0.4883  0.0757
16453TIP3    H170850   4.674   0.432  15.534  1.1016 -0.2781  2.2703
16453TIP3    H270851   4.559   0.336  15.508  0.2125  1.6826 -1.2676
16454TIP3   OH270852   3.025   0.180   0.825  0.7194 -0.6532 -0.8877
16454TIP3    H170853   3.010   0.150   0.736  1.5862 -2.4646 -0.4557
16454TIP3    H270854   3.118   0.204   0.826  0.6263 -0.3073 -0.5676
16455TIP3   OH270855   4.522   2.344   5.807 -0.5842  0.0460 -0.0800
16455TIP3    H170856   4.443   2.331   5.859 -0.3335 -0.0227  0.2862
16455TIP3    H270857   4.520   2.274   5.742 -0.9327  0.1734 -0.2057
16456TIP3   OH270858   3.662   0.435  13.170  0.2385 -0.3111 -0.1863
16456TIP3    H170859   3.625   0.347  13.172  0.8011 -0.6145 -2.2387
16456TIP3    H270860   3.616   0.480  13.099 -1.2752  1.6467  1.9513
16457TIP3   OH270861   6.088   3.265   0.305  0.6144 -0.3765  0.0827
16457TIP3    H170862   6.039   3.231   0.230  0.6999 -0.6569  0.1542
16457TIP3    H270863   6.178   3.235   0.291  0.7438  0.0541  0.0023
16458TIP3   OH270864   2.493   0.312   1.039 -0.4593  0.0098  0.1068
16458TIP3    H170865   2.442   0.313   1.119 -0.4796  1.1047  0.0885
16458TIP3    H270866   2.581   0.284   1.066 -0.2944  1.0217  0.6113
16459TIP3   OH270867   2.834   3.159   3.868 -0.3060 -0.3482 -0.6051
16459TIP3    H170868   2.761   3.185   3.810 -1.0829 -0.3501  0.3571
16459TIP3    H270869   2.872   3.083   3.825 -2.5164 -1.9596  0.1568
16460TIP3   OH270870   1.413   1.063   3.308 -0.6466 -0.0922  0.0245
16460TIP3    H170871   1.420   0.968   3.313  1.7356 -0.0062 -1.0218
16460TIP3    H270872   1.401   1.081   3.215  2.5620  0.7932 -0.2711
16461TIP3   OH270873   2.540   0.004  14.215 -0.4994 -0.1146 -0.0678
16461TIP3    H170874   2.517  -0.029  14.302 -2.0794  0.6185 -0.1985
16461TIP3    H270875   2.589   0.084  14.232 -1.4196  0.4043  0.1284
16462TIP3   OH270876   0.172   6.495   6.102  0.3051 -0.3361 -0.0559
16462TIP3    H170877   0.204   6.413   6.140  1.5860 -0.7262 -1.8869
16462TIP3    H270878   0.105   6.468   6.039 -1.0560  0.2248  1.1206
16463TIP3   OH270879   4.488   6.196  10.704 -0.1572  0.2065  0.6652
16463TIP3    H170880   4.441   6.114  10.719  0.2488  0.1503  1.7357
16463TIP3    H270881   4.578   6.177  10.732  0.7332  0.0600 -2.1596
16464TIP3   OH270882   3.244   3.970  14.981 -0.4568  0.1726 -0.2742
16464TIP3    H170883   3.337   3.981  15.001 -0.3639  0.1439 -0.7027
16464TIP3    H270884   3.215   3.903  15.043 -0.4774  1.0633  0.6956
16465TIP3   OH270885   6.521   4.713  13.520  0.5812  0.5467 -0.2029
16465TIP3    H170886   6.518   4.768  13.442 -0.4306 -1.3154 -1.4895
16465TIP3    H270887   6.593   4.653  13.504  1.2182  1.0010  0.8901
16466TIP3   OH270888   3.861   1.456  15.131 -0.0728 -0.3113  0.0185
16466TIP3    H170889   3.877   1.488  15.042  1.1017 -0.3526  0.2112
16466TIP3    H270890   3.885   1.529  15.188 -1.8269  0.0976  0.2846
16467TIP3   OH270891   2.078   0.640  15.037  0.4666  0.3446 -0.4599
16467TIP3    H170892   2.004   0.646  15.098  0.4664 -2.4196 -0.1075
16467TIP3    H270893   2.151   0.611  15.091  1.5083  1.7585 -1.0677
16468TIP3   OH270894   2.699   5.004   4.820  0.5170  0.1777 -0.4633
16468TIP3    H170895   2.666   4.915   4.813  1.1819  0.0412 -2.0688
16468TIP3    H270896   2.725   5.014   4.911 -0.3483 -0.9863 -0.0859
16469TIP3   OH270897   5.170   3.624  15.680  0.0812 -0.0896  0.1433
16469TIP3    H170898   5.170   3.541  15.729  0.5528  0.1581  0.5686
16469TIP3    H270899   5.077   3.641  15.661 -0.1945  0.3332  1.8357
16470TIP3   OH270900   0.245   0.177  11.602 -0.0883 -0.0621  0.0193
16470TIP3    H170901   0.310   0.215  11.542 -2.5942  3.5541 -0.5716
16470TIP3    H270902   0.212   0.100  11.556  1.4919 -0.1006 -1.0805
16471TIP3   OH270903   3.762   3.878   4.272 -0.3378 -0.0501 -0.7201
16471TIP3    H170904   3.839   3.890   4.328 -1.2931  1.5750  0.3030
16471TIP3    H270905   3.748   3.783   4.271  2.7715 -0.5517 -2.4818
16472TIP3   OH270906   5.110   6.288  10.775 -0.3932 -0.4425 -0.1517
16472TIP3    H170907   5.188   6.235  10.792 -0.5822 -0.3729  0.9782
16472TIP3    H270908   5.109   6.352  10.846 -1.9899 -1.0410  0.3747
16473TIP3   OH270909   1.779   3.056   2.739  0.0502 -0.5704  0.2414
16473TIP3    H170910   1.874   3.045   2.734  0.2014 -0.2005  2.1001
16473TIP3    H270911   1.744   2.972   2.711  0.9201 -0.6927 -0.5105
16474TIP3   OH270912   5.040   5.187  15.053  0.5097  0.0036  0.7308
16474TIP3    H170913   5.001   5.268  15.019  1.0368 -1.0699 -2.6198
16474TIP3    H270914   4.980   5.158  15.122 -0.4534  2.4651  0.9665
16475TIP3   OH270915   4.384   0.724   0.327 -0.3412 -0.4875 -0.7514
16475TIP3    H170916   4.438   0.666   0.274 -1.0258 -1.7563 -0.0904
16475TIP3    H270917   4.297   0.719   0.287 -0.1922  0.8474 -1.2702
16476TIP3   OH270918   2.352   2.583   6.149 -0.3560 -0.0355  0.7344
16476TIP3    H170919   2.307   2.549   6.072 -1.0216  0.6816  0.8075
16476TIP3    H270920   2.294   2.563   6.222  0.7034 -1.5568  1.1829
16477TIP3   OH270921   4.270   5.811   4.815 -0.0756  0.0714 -0.7124
16477TIP3    H170922   4.271   5.736   4.874  2.0224  1.4507  1.0798
16477TIP3    H270923   4.247   5.885   4.870  1.3719  1.2939 -1.7182
16478TIP3   OH270924   1.126   0.464   4.778  0.3402 -0.7615 -0.0740
16478TIP3    H170925   1.072   0.491   4.853  0.0058  0.2025 -0.6540
16478TIP3    H270926   1.205   0.428   4.817  0.7229  0.9166  0.7235
16479TIP3   OH270927   3.508   3.298  10.656 -0.3590  0.4034 -0.0080
16479TIP3    H170928   3.413   3.302  10.670 -0.4735  0.9774 -0.8921
16479TIP3    H270929   3.530   3.205  10.667 -1.0546  0.2401  0.0205
16480TIP3   OH270930   0.529   0.275  15.306  0.3777  0.1191  0.0764
16480TIP3    H170931   0.472   0.210  15.266  1.1739 -1.0051  0.7726
16480TIP3    H270932   0.552   0.334  15.233  0.3179 -0.8452 -0.7307
16481TIP3   OH270933   5.747   0.535  12.095 -0.0718  0.1491  0.2273
16481TIP3    H170934   5.665   0.497  12.126  0.3591 -0.5533  0.5119
16481TIP3    H270935   5.813   0.467  12.110  0.6919  0.9757  0.6532
16482TIP3   OH270936   2.576   5.058   3.203 -0.6337 -0.5018 -0.1391
16482TIP3    H170937   2.610   5.006   3.276  0.5076 -1.1259 -1.0854
16482TIP3    H270938   2.601   5.008   3.125 -2.3406 -0.1480 -0.9374
16483TIP3   OH270939   5.841   2.145  16.224 -0.1781  0.2611  0.0995
16483TIP3    H170940   5.815   2.153  16.316 -2.3638  2.8723 -0.6928
16483TIP3    H270941   5.781   2.079  16.189 -0.3730  0.3946  0.1803
16484TIP3   OH270942   5.201   3.436  14.466  0.3734  0.3975  0.2883
16484TIP3    H170943   5.128   3.383  14.497 -0.9904  0.7935 -2.1781
16484TIP3    H270944   5.261   3.374  14.424  0.3950  0.3815  0.3421
16485TIP3   OH270945   6.690   5.165  11.700  0.3191  0.1057  0.1075
16485TIP3    H170946   6.744   5.090  11.726 -0.8801 -0.0756  2.1989
16485TIP3    H270947   6.747   5.241  11.713  0.6649 -0.2264  0.5382
16486TIP3   OH270948   5.500   1.733   6.332 -0.6074 -0.1178 -0.1824
16486TIP3    H170949   5.509   1.739   6.427 -0.1847 -0.1127 -0.2223
16486TIP3    H270950   5.579   1.689   6.303 -0.4861  0.3532 -0.5807
16487TIP3   OH270951   4.473   1.731  14.523 -0.1529 -0.2665  0.3062
16487TIP3    H170952   4.512   1.806  14.479 -0.1668  0.1565  0.9992
16487TIP3    H270953   4.518   1.655  14.488  2.0332  0.2818  1.8366
16488TIP3   OH270954   3.263   1.681  15.988  0.3741  0.5718  0.6626
16488TIP3    H170955   3.171   1.656  15.983  0.6532 -1.0098  2.6625
16488TIP3    H270956   3.273   1.750  15.923 -1.9078 -0.1755 -0.5316
16489TIP3   OH270957   4.689   2.272  15.569  0.1245  0.0563 -0.5325
16489TIP3    H170958   4.776   2.293  15.604  0.6632 -0.2214 -1.7094
16489TIP3    H270959   4.648   2.358  15.556  0.9437  0.2703 -1.7926
16490TIP3   OH270960   1.663   5.084   2.916 -0.1451 -0.1641 -0.1440
16490TIP3    H170961   1.711   5.108   2.836  1.0522  2.2977  1.2644
16490TIP3    H270962   1.590   5.146   2.920 -0.9639 -1.1263  0.0023
16491TIP3   OH270963   5.507   5.544   6.014 -0.1574 -0.1025  0.5455
16491TIP3    H170964   5.585   5.587   5.978 -0.1152 -0.1452  0.5855
16491TIP3    H270965   5.444   5.546   5.942 -1.4346  3.2916  1.6690
16492TIP3   OH270966   5.669   4.669  12.999 -0.0102 -0.3870 -0.2550
16492TIP3    H170967   5.686   4.741  13.059 -1.8635  1.0354 -1.3787
16492TIP3    H270968   5.745   4.612  13.008  0.8532  1.0132  1.6499
16493TIP3   OH270969   0.284   4.791   3.325  0.2056 -0.3219 -0.1162
16493TIP3    H170970   0.302   4.770   3.233  1.9425  0.1981  0.0725
16493TIP3    H270971   0.367   4.772   3.370 -1.0466 -1.9717  1.6053
16494TIP3   OH270972   2.993   4.851  13.568  0.8959 -0.4975 -0.1079
16494TIP3    H170973   2.982   4.898  13.651 -0.2751  1.4447 -1.3465
16494TIP3    H270974   2.920   4.790  13.565  0.9904 -0.6380  0.3086
16495TIP3   OH270975   3.528   5.767  11.285 -0.3175  0.3141  0.0536
16495TIP3    H170976   3.565   5.852  11.261 -1.9806  1.2535  0.7669
16495TIP3    H270977   3.588   5.703  11.246  0.1760  1.7987 -1.6665
16496TIP3   OH270978   6.123   5.020  14.161  0.1233  0.3510  0.6540
16496TIP3    H170979   6.160   5.108  14.148  1.9732 -0.4791  0.1290
16496TIP3    H270980   6.200   4.964  14.172 -1.0227 -1.3670 -0.0090
16497TIP3   OH270981   6.429   3.543  16.833 -0.5725 -0.6308  0.1366
16497TIP3    H170982   6.481   3.622  16.819  0.8654 -1.3903  1.1120
16497TIP3    H270983   6.480   3.472  16.793 -2.0791 -1.0153 -1.1716
16498TIP3   OH270984   5.726   1.430  14.259  0.3550 -0.2622  0.0882
16498TIP3    H170985   5.719   1.361  14.193  0.6994 -0.4282  0.2246
16498TIP3    H270986   5.820   1.447  14.268  0.1852  1.7169 -1.4756
16499TIP3   OH270987   3.360   5.303  16.600  0.3448 -0.0696 -0.0969
16499TIP3    H170988   3.438   5.340  16.560  1.3215 -1.1692  0.7591
16499TIP3    H270989   3.371   5.318  16.693 -0.0736 -0.9367  0.0985
16500TIP3   OH270990   6.666   4.113  13.397 -0.2670 -0.3639  0.0806
16500TIP3    H170991   6.699   4.107  13.487  0.1066  1.2287  0.0584
16500TIP3    H270992   6.573   4.091  13.405 -0.6074  1.3300  1.1271
16501TIP3   OH270993   3.818   0.848   5.500  0.6371 -0.5730  0.4314
16501TIP3    H170994   3.913   0.859   5.509  0.5139  0.5147  0.4068
16501TIP3    H270995   3.806   0.822   5.409  0.6515  2.4215 -0.4686
16502TIP3   OH270996   4.648   3.315   4.718  0.3720 -0.0240 -0.6369
16502TIP3    H170997   4.737   3.279   4.712  0.8206  0.4629  2.2680
16502TIP3    H270998   4.595   3.242   4.750  0.1070  0.2291 -0.5026
16503TIP3   OH270999   3.124   0.186  14.397  0.3284  0.6745  0.2055
16503TIP3    H171000   3.046   0.165  14.449  0.1057 -1.2267 -0.8574
16503TIP3    H271001   3.197   0.173  14.457 -0.0854  1.5261  0.9252
16504TIP3   OH271002   2.665   1.239  15.223  0.0596  0.9566  0.4299
16504TIP3    H171003   2.718   1.319  15.217  2.7704 -0.7586  1.0171
16504TIP3    H271004   2.675   1.198  15.137 -0.1089  0.5059  0.6259
16505TIP3   OH271005   5.106   5.446  13.203  0.1357  0.8663  0.1315
16505TIP3    H171006   5.128   5.505  13.131  1.5938  0.6279  0.3602
16505TIP3    H271007   5.170   5.467  13.271 -1.1144  0.9681  1.2989
16506TIP3   OH271008   3.136   0.515  17.145  0.3727 -0.2793  0.2535
16506TIP3    H171009   3.095   0.550  17.066  2.4076 -1.5690 -1.4603
16506TIP3    H271010   3.104   0.570  17.216 -2.4450  0.1835 -1.3004
16507TIP3   OH271011   1.034   6.749   3.471  0.1913  0.2348  0.0553
16507TIP3    H171012   1.023   6.715   3.560  0.3676 -1.2417 -0.4734
16507TIP3    H271013   0.944   6.765   3.440  0.1036  0.1165  0.2493
16508TIP3   OH271014   3.712   0.865  16.728 -0.2887  0.3024  0.0269
16508TIP3    H171015   3.683   0.825  16.646 -1.2565  0.0428  0.4847
16508TIP3    H271016   3.795   0.822  16.748 -1.0206 -1.0513  0.1966
16509TIP3   OH271017   2.452   4.948   5.045 -0.3899  0.1665 -0.5626
16509TIP3    H171018   2.404   5.007   4.987 -0.6355  0.2969 -0.2214
16509TIP3    H271019   2.512   5.005   5.093 -1.7022  0.3366  0.8743
16510TIP3   OH271020   1.428   0.783   3.322  0.3897 -0.2393 -0.5262
16510TIP3    H171021   1.465   0.695   3.312  1.0492 -0.3886  2.7245
16510TIP3    H271022   1.358   0.772   3.386 -1.7442  1.0407 -2.5786
16511TIP3   OH271023   4.837   1.175   6.348  0.0301  0.6742  0.3599
16511TIP3    H171024   4.745   1.200   6.355  0.1219  0.4751  2.6767
16511TIP3    H271025   4.835   1.079   6.339 -0.0998  0.9495 -3.2725
16512TIP3   OH271026   5.687   0.007  13.788 -0.3725  0.3466 -0.2053
16512TIP3    H171027   5.765  -0.047  13.803 -0.2280  0.5038 -0.3848
16512TIP3    H271028   5.703   0.050  13.704 -0.4926  0.6557 -0.0728
16513TIP3   OH271029   1.338   2.287  11.942  0.5003  0.6108 -0.5159
16513TIP3    H171030   1.411   2.308  11.884 -0.0887  2.0239 -0.7708
16513TIP3    H271031   1.378   2.245  12.018  1.5911  1.5290 -0.5754
16514TIP3   OH271032   5.807   1.295  15.438  0.0760 -0.0023 -0.2499
16514TIP3    H171033   5.790   1.225  15.375 -0.7662  0.7782 -0.9098
16514TIP3    H271034   5.892   1.274  15.475  0.9727 -0.0162 -2.2699
16515TIP3   OH271035   1.428   1.483  11.882 -0.3728  0.3833 -0.2295
16515TIP3    H171036   1.411   1.502  11.974 -0.1029  0.3750 -0.1758
16515TIP3    H271037   1.524   1.477  11.876 -0.3700  0.7123 -0.5709
16516TIP3   OH271038   0.093   4.995  15.434  0.1804  0.0027  0.2250
16516TIP3    H171039   0.097   5.045  15.352 -0.2887  0.4205  0.4539
16516TIP3    H271040   0.117   4.906  15.409  0.1934  0.1631 -0.3407
16517TIP3   OH271041   3.146   0.503   1.656 -0.1104 -0.0320  0.1069
16517TIP3    H171042   3.099   0.576   1.615 -2.2293 -0.9269  0.8820
16517TIP3    H271043   3.200   0.544   1.723  0.9720  1.1113 -1.4134
16518TIP3   OH271044   2.734   2.613  15.998  0.0144  0.4543 -0.1771
16518TIP3    H171045   2.667   2.650  16.055 -0.9993 -1.4550 -0.0730
16518TIP3    H271046   2.773   2.543  16.050  0.5579  0.0965 -1.0570
16519TIP3   OH271047   0.881   5.432  13.081  0.0784  0.2910 -0.5386
16519TIP3    H171048   0.970   5.462  13.062 -0.1277  1.2292 -0.0700
16519TIP3    H271049   0.892   5.341  13.111  0.8049  0.1892 -1.0979
16520TIP3   OH271050   0.153   3.053   4.985  0.0367 -0.3816  0.1249
16520TIP3    H171051   0.098   3.015   4.917  2.0380  0.0360 -1.7896
16520TIP3    H271052   0.234   3.002   4.982  1.3251  1.6299  0.0692
16521TIP3   OH271053   4.570   2.125   4.726  0.5200  0.0459 -0.0855
16521TIP3    H171054   4.552   2.182   4.651  2.3895  0.1202 -0.4966
16521TIP3    H271055   4.614   2.181   4.789 -2.1565  0.3050  1.6484
16522TIP3   OH271056   0.892   3.818  16.453  0.0818  0.0769  0.3234
16522TIP3    H171057   0.964   3.785  16.507 -0.4183  1.4816  1.9101
16522TIP3    H271058   0.935   3.858  16.377  1.0433  1.6166  1.6499
16523TIP3   OH271059   0.076   4.275  11.799  0.3214 -0.2368 -0.3240
16523TIP3    H171060   0.033   4.220  11.734  1.8256 -1.3631 -0.4020
16523TIP3    H271061   0.037   4.362  11.787 -0.8340 -0.8878 -1.3709
16524TIP3   OH271062   2.210   5.103  15.720 -0.5301 -0.2523  0.3500
16524TIP3    H171063   2.181   5.039  15.785 -0.9924  0.9192  1.3213
16524TIP3    H271064   2.150   5.092  15.646  0.8586 -2.5522 -0.4918
16525TIP3   OH271065   4.290   3.526  12.479  0.0196 -0.5547  0.2383
16525TIP3    H171066   4.197   3.550  12.479 -0.6997 -3.0966 -1.4403
16525TIP3    H271067   4.328   3.577  12.407 -0.3734 -0.5554  0.0308
16526TIP3   OH271068   3.083   5.085   5.037  0.0583  0.3891  0.0376
16526TIP3    H171069   3.075   5.178   5.056  0.8265  0.3120  0.7782
16526TIP3    H271070   3.088   5.080   4.941  1.1109  1.2057  0.0354
16527TIP3   OH271071   3.185   6.800  13.243  0.1916 -0.2883  0.5657
16527TIP3    H171072   3.242   6.826  13.171 -0.9956 -0.8535 -0.5865
16527TIP3    H271073   3.227   6.723  13.280  1.3101  0.5612  1.1103
16528TIP3   OH271074   4.560   0.224   0.160 -0.3609 -0.0255 -0.0941
16528TIP3    H171075   4.641   0.175   0.173 -0.7647 -0.4952  0.6884
16528TIP3    H271076   4.501   0.161   0.117 -0.6057  0.0300  0.1584
16529TIP3   OH271077   0.980   6.680  12.776 -0.1592  0.0654  0.5508
16529TIP3    H171078   1.030   6.601  12.755  0.1598  0.3885  0.0696
16529TIP3    H271079   0.917   6.688  12.704 -0.7213 -0.1859  1.0132
16530TIP3   OH271080   1.103   3.541   5.748 -0.0562 -0.0355  0.0386
16530TIP3    H171081   1.146   3.625   5.739 -0.6213  0.2518 -0.0249
16530TIP3    H271082   1.167   3.477   5.718  1.4289  0.1069  2.7864
16531TIP3   OH271083   6.286   1.605  16.622 -0.8018  0.1976  0.1446
16531TIP3    H171084   6.295   1.511  16.640 -0.2289  0.5693  1.8755
16531TIP3    H271085   6.194   1.616  16.599 -0.7950 -0.8460 -0.4529
16532TIP3   OH271086   2.752   6.401   3.059 -0.2433  0.3383 -0.0459
16532TIP3    H171087   2.735   6.468   2.993 -0.2088 -0.0448 -0.4489
16532TIP3    H271088   2.842   6.416   3.087 -0.0016  0.0178 -0.6500
16533TIP3   OH271089   1.148   1.343  11.778  0.2473  0.0518  0.0655
16533TIP3    H171090   1.151   1.380  11.690 -0.3189 -1.7813 -0.7611
16533TIP3    H271091   1.195   1.406  11.832  2.3980  0.2118 -1.9020
16534TIP3   OH271092   5.968   2.380   4.847  0.0680 -0.6606  0.2491
16534TIP3    H171093   5.886   2.429   4.856 -0.0281 -0.8018  0.1342
16534TIP3    H271094   6.036   2.448   4.843  0.0151 -0.5602  0.9916
16535TIP3   OH271095   6.779   0.917  16.886  0.1507 -0.3654 -0.3978
16535TIP3    H171096   6.866   0.923  16.847 -0.2703 -2.7336 -1.7834
16535TIP3    H271097   6.754   0.825  16.877 -2.3460  0.1853  0.3199
16536TIP3   OH271098   3.556   3.370  11.433 -0.6500  0.3829  0.1977
16536TIP3    H171099   3.523   3.317  11.505 -0.3762  1.3025  1.0220
16536TIP3    H271100   3.570   3.308  11.361  1.0310 -0.8846  1.5861
16537TIP3   OH271101   5.513   3.143  12.991  0.0431  0.1451  0.3204
16537TIP3    H171102   5.485   3.223  12.948 -0.0086 -0.0090  0.0669
16537TIP3    H271103   5.564   3.096  12.925 -1.1706 -0.7187 -0.0242
16538TIP3   OH271104   2.855   5.955   1.759  0.0716  0.2784 -0.2197
16538TIP3    H171105   2.769   5.925   1.729  1.0724 -1.5764 -1.3494
16538TIP3    H271106   2.874   6.032   1.706 -0.3513 -0.0512 -0.8508
16539TIP3   OH271107   0.877   5.421  12.751  0.8321 -0.6125  0.1515
16539TIP3    H171108   0.841   5.487  12.811  0.8120 -0.3661 -0.1319
16539TIP3    H271109   0.811   5.351  12.751  0.4195 -0.2300 -0.2492
16540TIP3   OH271110   0.685   0.303  13.096 -0.2956 -0.5984  0.1872
16540TIP3    H171111   0.664   0.225  13.147 -1.4866  0.7793  1.8785
16540TIP3    H271112   0.599   0.341  13.075  0.1485 -1.2064 -3.0068
16541TIP3   OH271113   4.577   4.618   0.962  0.2117  1.0113 -0.0036
16541TIP3    H171114   4.614   4.600   0.876  0.6813  0.1724  0.3735
16541TIP3    H271115   4.502   4.560   0.969 -0.0617  1.3596  0.0001
16542TIP3   OH271116   5.255   4.346   2.153 -0.6699  0.1001 -0.2037
16542TIP3    H171117   5.285   4.322   2.066 -0.2981  0.6800 -0.2351
16542TIP3    H271118   5.318   4.412   2.184  1.5219 -2.9106  2.0834
16543TIP3   OH271119   2.555   0.781  17.116  0.4892  0.8694 -0.5606
16543TIP3    H171120   2.574   0.868  17.149  0.4511  0.7703 -0.2772
16543TIP3    H271121   2.482   0.793  17.055 -0.4587  0.8310  0.5574
16544TIP3   OH271122   3.552   5.917   4.032 -0.4020  0.4157  0.4200
16544TIP3    H171123   3.520   5.837   4.074 -0.8936  0.3689 -0.0372
16544TIP3    H271124   3.502   5.922   3.951 -0.2452  1.0942  0.3681
16545TIP3   OH271125   6.610   0.245   5.471  0.3207 -0.0492  0.1706
16545TIP3    H171126   6.633   0.160   5.509  2.6082  0.7182  0.5735
16545TIP3    H271127   6.618   0.232   5.376  0.6658 -0.2749  0.2311
16546TIP3   OH271128   6.787   6.230  13.821 -0.1854 -0.1502 -0.1422
16546TIP3    H171129   6.877   6.247  13.848  0.1147  0.6157 -1.6101
16546TIP3    H271130   6.768   6.142  13.854  0.9090 -0.1114  0.6194
16547TIP3   OH271131   0.208   4.251   1.420  0.5636 -0.1194  0.1210
16547TIP3    H171132   0.149   4.265   1.495  0.3478 -1.7041  0.2636
16547TIP3    H271133   0.161   4.188   1.365  2.3933 -1.8885  0.5428
16548TIP3   OH271134   2.044   2.054   6.133 -0.6194  0.0445 -0.2318
16548TIP3    H171135   2.000   2.019   6.056 -0.4177  0.8583 -0.7210
16548TIP3    H271136   2.067   1.976   6.185  0.9561 -0.6431 -1.9097
16549TIP3   OH271137   5.529   3.634  14.260  0.6527  0.3569  0.7006
16549TIP3    H171138   5.592   3.573  14.300  0.9176  2.3723  3.4628
16549TIP3    H271139   5.447   3.618  14.306 -0.0364  0.0211 -0.6331
16550TIP3   OH271140   5.311   6.000   1.358 -0.0611  0.2214  0.2978
16550TIP3    H171141   5.363   5.940   1.412 -2.4372 -1.9528  0.2879
16550TIP3    H271142   5.234   6.019   1.412 -1.2480  0.0563 -1.3199
16551TIP3   OH271143   0.677   6.136   0.412  0.0506  0.2695  1.4097
16551TIP3    H171144   0.593   6.179   0.400 -0.2714 -0.6777  0.2121
16551TIP3    H271145   0.736   6.205   0.442 -0.1376  1.8563 -1.7050
16552TIP3   OH271146   3.945   6.378   1.433 -0.1158  0.2659 -0.3797
16552TIP3    H171147   4.023   6.418   1.472  0.2843 -0.3816 -0.5098
16552TIP3    H271148   3.906   6.327   1.504 -1.4115  2.0103  0.1817
16553TIP3   OH271149   4.169   2.428   6.562 -0.2413  0.0916  0.8836
16553TIP3    H171150   4.129   2.483   6.630  2.5165  1.1155  1.7814
16553TIP3    H271151   4.218   2.490   6.507  0.2690 -1.1137 -0.0391
16554TIP3   OH271152   2.167   1.964   0.746 -0.4651  0.0195 -0.2208
16554TIP3    H171153   2.189   1.937   0.657 -0.0859  0.8163 -0.3751
16554TIP3    H271154   2.246   2.006   0.779 -0.6842 -0.0477  0.4057
16555TIP3   OH271155   1.662   3.159  17.162 -0.1198  0.2794  0.0120
16555TIP3    H171156   1.663   3.235  17.220  0.8376  1.1332 -1.1088
16555TIP3    H271157   1.631   3.087  17.218  0.5325  1.1417  1.5137
16556TIP3   OH271158   5.451   4.433  13.427 -0.1561 -0.5558 -0.4485
16556TIP3    H171159   5.511   4.481  13.483 -0.0438 -2.6085  1.2496
16556TIP3    H271160   5.488   4.442  13.339  0.6224  1.2310  0.0404
16557TIP3   OH271161   1.460   1.866  13.788  0.0099  0.2293 -0.6630
16557TIP3    H171162   1.528   1.812  13.828 -0.8334  0.2212  0.7702
16557TIP3    H271163   1.436   1.929  13.856 -0.5490  1.0231 -1.5830
16558TIP3   OH271164   0.182   3.243   3.767  0.1522 -0.1760  0.0254
16558TIP3    H171165   0.266   3.266   3.727  0.2635 -1.2678 -0.3835
16558TIP3    H271166   0.199   3.161   3.813 -0.3718  0.2649  1.0222
16559TIP3   OH271167   2.279   4.687   4.265 -0.5493  0.3888 -0.1766
16559TIP3    H171168   2.312   4.642   4.343  0.5053  0.4541 -0.5808
16559TIP3    H271169   2.189   4.654   4.255  0.4989 -2.4067 -1.0135
16560TIP3   OH271170   6.322   3.867   4.757 -0.7314 -0.0532  0.1360
16560TIP3    H171171   6.304   3.856   4.664 -1.2396 -0.4055  0.2801
16560TIP3    H271172   6.352   3.958   4.765  3.0104 -1.1180 -0.9655
16561TIP3   OH271173   1.570   3.669  13.686 -0.2238  0.4597  0.0547
16561TIP3    H171174   1.539   3.760  13.692 -0.8121  0.2611  0.0561
16561TIP3    H271175   1.657   3.671  13.726 -0.0225  1.1235 -0.4075
16562TIP3   OH271176   0.994   3.958   6.101 -0.0086 -0.3743  0.6922
16562TIP3    H171177   1.010   3.990   6.190 -2.5836  0.9643  0.7122
16562TIP3    H271178   1.042   4.018   6.044  0.8972 -0.7003  1.0921
16563TIP3   OH271179   5.737   4.303  14.714 -0.5585 -0.2273 -0.2135
16563TIP3    H171180   5.830   4.295  14.734 -0.7931 -1.8798  0.2965
16563TIP3    H271181   5.728   4.268  14.625 -0.6610  0.1757 -0.3650
16564TIP3   OH271182   5.263   0.139   1.667  0.5146  0.2535  0.7589
16564TIP3    H171183   5.272   0.159   1.574  1.1622 -1.3982  0.4434
16564TIP3    H271184   5.336   0.185   1.708  1.2875 -0.4547  0.2047
16565TIP3   OH271185   0.968   0.472   5.385 -0.2421 -0.1739 -0.3654
16565TIP3    H171186   0.911   0.448   5.311 -0.0315 -0.5150 -0.4211
16565TIP3    H271187   1.045   0.416   5.374  0.5777  1.0422 -0.8900
16566TIP3   OH271188   6.603   1.381  13.838 -0.0711  0.4187  0.1159
16566TIP3    H171189   6.605   1.295  13.879  0.3195 -0.7043 -2.1975
16566TIP3    H271190   6.517   1.416  13.858 -0.1301 -0.3935  1.2898
16567TIP3   OH271191   2.516   2.447   0.132  0.1615 -0.1503  0.6040
16567TIP3    H171192   2.566   2.466   0.053 -1.5832  1.1531 -0.2188
16567TIP3    H271193   2.454   2.378   0.105  1.1742 -1.4355  1.4951
16568TIP3   OH271194   2.461   3.203   2.484 -0.4105 -0.2994 -0.3045
16568TIP3    H171195   2.377   3.229   2.522 -2.0121 -2.6070 -2.1548
16568TIP3    H271196   2.441   3.181   2.393  2.6640  1.4803 -1.4899
16569TIP3   OH271197   2.673   5.252  16.960 -0.1251 -0.1796 -0.2356
16569TIP3    H171198   2.601   5.227  16.903 -0.2500 -0.1344 -0.0988
16569TIP3    H271199   2.735   5.179  16.954  0.1761  0.1350 -0.9543
16570TIP3   OH271200   2.811   0.036   1.322 -0.3038 -0.1568 -0.1076
16570TIP3    H171201   2.839  -0.034   1.381  0.0443  1.0855  1.2234
16570TIP3    H271202   2.856   0.017   1.239 -1.3782 -2.3306 -0.2285
16571TIP3   OH271203   2.982   0.655  11.889  0.1713 -0.5249  0.3316
16571TIP3    H171204   2.934   0.703  11.822  1.1832  1.1585  0.7955
16571TIP3    H271205   2.936   0.676  11.971  0.6856 -0.2448  0.5503
16572TIP3   OH271206   4.707   1.299   5.812 -0.2414  0.0517 -0.1709
16572TIP3    H171207   4.737   1.345   5.734 -0.2024 -1.9037 -1.3585
16572TIP3    H271208   4.734   1.208   5.798 -0.4664 -0.3878  2.0079
16573TIP3   OH271209   3.397   4.838   0.219 -0.0944 -0.5763 -0.1904
16573TIP3    H171210   3.311   4.796   0.212  0.4771 -1.6976 -0.6926
16573TIP3    H271211   3.426   4.817   0.307 -0.9465  1.0445  0.5035
16574TIP3   OH271212   6.806   1.442  17.127 -0.5426  0.0303 -0.3108
16574TIP3    H171213   6.893   1.448  17.089  0.0675 -2.0203  0.6802
16574TIP3    H271214   6.818   1.467  17.219 -0.8797 -0.7431 -0.0476
16575TIP3   OH271215   4.216   3.500  15.108  0.0019  0.3062 -0.0277
16575TIP3    H171216   4.290   3.550  15.075  0.1880  0.5242  0.7113
16575TIP3    H271217   4.157   3.491  15.033  0.4577  0.7204 -0.4334
16576TIP3   OH271218   3.722   0.925  13.174  0.2323  0.2123  0.2809
16576TIP3    H171219   3.800   0.978  13.188 -0.0011  0.5000  0.4885
16576TIP3    H271220   3.735   0.847  13.229  1.2649 -0.6588 -1.1698
16577TIP3   OH271221   3.305   5.032  13.891  0.3488 -0.1049  0.3079
16577TIP3    H171222   3.256   5.092  13.835  1.8281 -0.3039 -1.2213
16577TIP3    H271223   3.250   4.954  13.898  0.7198 -0.5833 -1.9311
16578TIP3   OH271224   1.163   3.600   1.278  0.3163  0.0523 -0.3613
16578TIP3    H171225   1.197   3.622   1.365  0.4664  0.0928 -0.4303
16578TIP3    H271226   1.220   3.646   1.218  0.8302 -0.7831 -0.5163
16579TIP3   OH271227   3.296   0.901  11.253  0.1293 -0.6731  0.2567
16579TIP3    H171228   3.267   0.915  11.162  0.0110 -2.0128  0.0831
16579TIP3    H271229   3.386   0.933  11.254 -0.4441  1.0397  0.1363
16580TIP3   OH271230   2.465   3.320   4.330 -0.2734  0.9683 -0.0535
16580TIP3    H171231   2.454   3.293   4.421 -2.2845  1.1084 -0.2388
16580TIP3    H271232   2.463   3.239   4.280  0.4984  0.9220 -0.0275
16581TIP3   OH271233   0.786   5.596  12.281  0.5330 -0.0100 -0.1622
16581TIP3    H171234   0.873   5.630  12.261  0.2191 -0.2925 -2.0718
16581TIP3    H271235   0.726   5.668  12.262  0.3135  0.1015  0.9120
16582TIP3   OH271236   1.716   2.925   3.095  0.1498  0.2753 -0.4718
16582TIP3    H171237   1.736   2.948   3.004  2.0372 -0.4983 -0.2745
16582TIP3    H271238   1.657   2.850   3.089  0.3665  0.1548 -1.0460
16583TIP3   OH271239   2.743   0.145  12.115  0.1642 -0.0743 -0.0921
16583TIP3    H171240   2.654   0.178  12.102  0.6418  0.7447 -1.3472
16583TIP3    H271241   2.745   0.118  12.207 -1.7860 -1.3806 -0.4138
16584TIP3   OH271242   0.873   4.648   1.903 -0.4261 -0.3482 -0.4271
16584TIP3    H171243   0.788   4.663   1.946  0.5215 -1.3000  1.8558
16584TIP3    H271244   0.861   4.567   1.854 -1.3438  0.4467 -1.5625
16585TIP3   OH271245   4.020   6.500  13.408  0.1126  0.7307  0.4273
16585TIP3    H171246   3.932   6.531  13.429  0.1465  1.2510 -0.2142
16585TIP3    H271247   4.060   6.571  13.357  0.7714  0.3433  0.3963
16586TIP3   OH271248   2.867   2.676   0.523 -0.0752  0.1482 -0.5380
16586TIP3    H171249   2.950   2.661   0.477  0.0001  0.0384 -0.3656
16586TIP3    H271250   2.800   2.648   0.460  0.0393 -0.2669 -0.4791
16587TIP3   OH271251   2.386   5.194  11.067 -0.0826 -0.7749  0.2060
16587TIP3    H171252   2.338   5.245  11.002 -0.9798 -0.3925  1.1475
16587TIP3    H271253   2.342   5.110  11.070  0.5170 -1.1109 -0.3230
16588TIP3   OH271254   3.519   4.390  12.373 -0.1906  0.7097 -0.2013
16588TIP3    H171255   3.602   4.353  12.402 -0.6033  1.8484  2.7041
16588TIP3    H271256   3.459   4.316  12.368  0.3824  0.2193  0.1591
16589TIP3   OH271257   5.384   4.897  15.352 -0.4509  0.1220  0.1048
16589TIP3    H171258   5.358   4.976  15.303 -0.7081  1.1418  1.8266
16589TIP3    H271259   5.337   4.905  15.435  2.2088 -0.0777  1.6790
16590TIP3   OH271260   6.594   0.533  12.016 -0.1348 -0.0290  0.3314
16590TIP3    H171261   6.669   0.569  12.062  1.0095  2.1000 -3.0427
16590TIP3    H271262   6.629   0.504  11.931 -2.7752 -0.6004 -0.6215
16591TIP3   OH271263   4.196   2.447   3.609 -0.9258  0.4422  0.1954
16591TIP3    H171264   4.112   2.458   3.565 -0.3373  1.5799 -0.6684
16591TIP3    H271265   4.176   2.452   3.702 -1.7362  1.2658 -0.0273
16592TIP3   OH271266   4.397   0.371  13.324  0.0481 -0.0074  0.2940
16592TIP3    H171267   4.334   0.371  13.396 -0.4597  2.4003 -0.1082
16592TIP3    H271268   4.417   0.463  13.309  3.5162 -0.7028  0.2395
16593TIP3   OH271269   4.333   1.977   5.554  0.1552  0.4096 -0.9497
16593TIP3    H171270   4.372   2.027   5.482  1.0312  2.4808  0.8918
16593TIP3    H271271   4.258   2.031   5.581  0.0147 -0.2019 -0.1186
16594TIP3   OH271272   3.179   2.245   1.359 -0.4023  0.2700  0.1592
16594TIP3    H171273   3.249   2.296   1.400  0.2976 -1.3481  0.9903
16594TIP3    H271274   3.104   2.256   1.417  0.1520 -0.7764  1.0881
16595TIP3   OH271275   2.066   2.639   2.083 -0.5057 -0.0024 -0.2124
16595TIP3    H171276   2.043   2.702   2.014 -0.2632  0.7842  0.4126
16595TIP3    H271277   2.161   2.639   2.085 -0.5229  0.6279  0.7090
16596TIP3   OH271278   6.796   1.842   2.579  0.6404 -1.0064  0.5609
16596TIP3    H171279   6.891   1.835   2.590  0.8553 -0.1676 -0.6689
16596TIP3    H271280   6.776   1.933   2.599  0.5125 -0.4426 -1.9465
16597TIP3   OH271281   2.746   4.051  15.087  0.4257  0.0452 -0.0444
16597TIP3    H171282   2.829   4.099  15.090  1.5761 -1.9513  1.2119
16597TIP3    H271283   2.680   4.115  15.111  1.8001  1.2576  0.5462
16598TIP3   OH271284   4.931   1.161  15.957 -0.0630 -0.3093  0.4793
16598TIP3    H171285   4.956   1.250  15.980  0.5571 -0.6700  1.2446
16598TIP3    H271286   4.980   1.106  16.019  1.5934 -1.3065 -1.6745
16599TIP3   OH271287   3.945   5.237   1.812 -0.4176  0.2244  0.1523
16599TIP3    H171288   4.022   5.221   1.867 -0.9459  0.3753  0.9543
16599TIP3    H271289   3.879   5.177   1.846  0.3338 -2.3715 -2.7170
16600TIP3   OH271290   2.826   5.502   3.263 -0.7470  0.2515  0.7520
16600TIP3    H171291   2.805   5.497   3.356 -1.6093 -0.1802  0.5338
16600TIP3    H271292   2.764   5.443   3.220 -1.3848  1.6251 -0.2622
16601TIP3   OH271293   2.551   2.219   4.019  0.2125 -0.2575 -0.2701
16601TIP3    H171294   2.586   2.296   3.974 -0.6969 -0.0937 -0.7104
16601TIP3    H271295   2.529   2.251   4.107 -1.4119  0.3427 -0.8641
16602TIP3   OH271296   2.631   0.536   3.244 -0.3991 -0.1800 -0.1991
16602TIP3    H171297   2.615   0.616   3.293 -1.2504  0.1715 -1.0252
16602TIP3    H271298   2.612   0.465   3.306 -0.0289  0.2525  0.4122
16603TIP3   OH271299   6.572   0.042  12.104 -0.2516  0.0224  0.4216
16603TIP3    H171300   6.575  -0.051  12.127 -0.8083  0.5191  2.6014
16603TIP3    H271301   6.658   0.075  12.131  0.9732 -0.3543 -2.7753
16604TIP3   OH271302   1.316   3.810   1.194 -0.0762  0.4297 -0.1018
16604TIP3    H171303   1.396   3.857   1.218 -0.1531  0.3823  0.2509
16604TIP3    H271304   1.319   3.804   1.099 -0.0441  1.1032 -0.1434
16605TIP3   OH271305   4.294   3.876   1.065  0.6721  0.0048 -0.0690
16605TIP3    H171306   4.355   3.894   0.994 -0.0815  0.7324 -0.5509
16605TIP3    H271307   4.280   3.782   1.063  0.9917 -0.0282 -0.6064
16606TIP3   OH271308   0.194   1.982  12.014 -0.5691  0.6526 -0.0868
16606TIP3    H171309   0.172   2.075  12.010 -0.7748  0.5862 -0.5633
16606TIP3    H271310   0.110   1.938  12.025 -0.4120  0.5582  0.7487
16607TIP3   OH271311   4.142   2.408  13.123 -0.1323  0.6361  0.8729
16607TIP3    H171312   4.230   2.381  13.094  0.2652  2.5088  0.2379
16607TIP3    H271313   4.098   2.436  13.042 -1.4794 -0.7217  1.1262
16608TIP3   OH271314   5.646   1.832   2.585  0.1081 -0.3821  0.1572
16608TIP3    H171315   5.735   1.865   2.569  0.5265 -1.3997  0.3276
16608TIP3    H271316   5.650   1.796   2.674 -0.6626  0.1726  0.4163
16609TIP3   OH271317   3.910   0.031   6.073  0.6550  0.0551 -0.0558
16609TIP3    H171318   3.823   0.071   6.071 -0.6743 -2.7013 -0.9875
16609TIP3    H271319   3.917  -0.006   6.160  1.4273  1.3473  0.4387
16610TIP3   OH271320   2.821   2.610  10.811  0.1839 -0.2654  0.0929
16610TIP3    H171321   2.783   2.524  10.829  0.2781 -0.6203 -1.3397
16610TIP3    H271322   2.873   2.597  10.732 -0.3563  1.2690 -0.5368
16611TIP3   OH271323   3.736   0.060  14.803 -0.1183  0.1287  0.0789
16611TIP3    H171324   3.790   0.069  14.725  0.5273  1.5696  0.6780
16611TIP3    H271325   3.791   0.013  14.865 -0.3026 -0.1971  0.0009
16612TIP3   OH271326   5.542   1.787   6.607 -0.0789 -0.1397  0.4922
16612TIP3    H171327   5.454   1.789   6.645 -0.5310  2.0598 -0.5782
16612TIP3    H271328   5.566   1.694   6.608 -3.4549 -1.1383 -1.4833
16613TIP3   OH271329   0.764   1.526   3.784 -0.0127  0.8175  0.3357
16613TIP3    H171330   0.846   1.495   3.746 -0.5138 -2.5636  1.7806
16613TIP3    H271331   0.790   1.595   3.845  2.1880 -2.1280  2.9283
16614TIP3   OH271332   1.805   5.597   3.554  0.5005  0.1841 -0.1995
16614TIP3    H171333   1.818   5.621   3.462 -0.5686  0.8827 -0.1700
16614TIP3    H271334   1.710   5.596   3.565  0.6110 -0.4736  0.7553
16615TIP3   OH271335   3.480   1.440  13.596  0.3454  0.6267  0.3668
16615TIP3    H171336   3.570   1.422  13.568  0.5798  0.7852  1.0228
16615TIP3    H271337   3.438   1.354  13.600  0.3997  0.5710 -0.1519
16616TIP3   OH271338   1.462   6.595  13.379 -0.4297  0.0981  0.0042
16616TIP3    H171339   1.402   6.643  13.321 -0.5603  0.7573  0.6879
16616TIP3    H271340   1.415   6.588  13.462 -1.1768 -2.7917 -0.5854
16617TIP3   OH271341   1.904   4.920  13.874  0.4140  0.7251  0.0041
16617TIP3    H171342   1.985   4.899  13.921  0.2637 -0.4166 -0.2169
16617TIP3    H271343   1.891   5.013  13.889  0.7728  0.5357  1.5930
16618TIP3   OH271344   4.118   6.545  14.869  0.3826 -0.2606 -0.5513
16618TIP3    H171345   4.074   6.563  14.953 -0.1096  1.5437 -1.1716
16618TIP3    H271346   4.148   6.631  14.839  2.7071 -1.2094 -1.0590
16619TIP3   OH271347   6.694   2.887  14.748 -0.6889  0.1860 -0.0073
16619TIP3    H171348   6.748   2.884  14.669 -2.2242  2.3837 -1.2015
16619TIP3    H271349   6.615   2.935  14.722 -1.7633 -0.0835  2.5512
16620TIP3   OH271350   2.222   5.493   4.701  0.2354 -0.1016 -0.6113
16620TIP3    H171351   2.300   5.448   4.733  0.2546 -0.8992 -1.7526
16620TIP3    H271352   2.154   5.471   4.765  1.0137  0.9039  0.5948
16621TIP3   OH271353   2.003   3.401   6.381 -0.0463 -0.2188 -0.0873
16621TIP3    H171354   1.921   3.370   6.419  0.8000  2.2902  4.0711
16621TIP3    H271355   2.064   3.329   6.393 -0.4567 -0.3868  1.0492
16622TIP3   OH271356   3.315   6.096   1.940  0.3843  0.3224  0.2466
16622TIP3    H171357   3.351   6.076   2.026  1.3120  1.0371  0.0420
16622TIP3    H271358   3.225   6.122   1.957  0.4595  0.1101  0.9702
16623TIP3   OH271359   5.712   3.050  13.448  0.2034  0.5567 -0.1149
16623TIP3    H171360   5.746   2.981  13.392 -0.0202  0.5476 -0.2388
16623TIP3    H271361   5.768   3.125  13.430  1.6980 -0.1357  1.4574
16624TIP3   OH271362   0.160   3.400   4.718  0.5455 -0.7704 -0.3801
16624TIP3    H171363   0.244   3.434   4.685 -0.3334  1.9163 -0.0207
16624TIP3    H271364   0.099   3.413   4.645  0.2037 -1.7515 -0.2740
16625TIP3   OH271365   4.223   6.568  17.131  0.3719 -0.1628  0.3507
16625TIP3    H171366   4.184   6.656  17.128  0.5681 -0.0015  1.8288
16625TIP3    H271367   4.204   6.530  17.046 -0.2093  1.1151 -0.1033
16626TIP3   OH271368   2.883   3.972  15.856 -0.0703  0.0409  0.2534
16626TIP3    H171369   2.827   3.982  15.779  2.7979  0.3044 -1.8776
16626TIP3    H271370   2.909   4.062  15.878  2.5075 -0.3349 -1.1145
16627TIP3   OH271371   3.285   0.600  11.194  0.3881  0.4261  0.0982
16627TIP3    H171372   3.232   0.533  11.150  0.1403  1.0427 -0.5492
16627TIP3    H271373   3.228   0.634  11.262  1.2771 -1.5584  1.8959
16628TIP3   OH271374   3.288   1.405  12.876 -0.4287  0.2652 -0.0833
16628TIP3    H171375   3.371   1.405  12.828 -0.4646 -0.7874 -0.1411
16628TIP3    H271376   3.304   1.465  12.950  0.4894 -0.1984  0.1076
16629TIP3   OH271377   0.734   0.912   2.218 -0.3378 -0.1448  0.0285
16629TIP3    H171378   0.817   0.868   2.198 -0.3555  0.2105 -0.8487
16629TIP3    H271379   0.667   0.850   2.191 -0.3670  0.6924 -1.8757
16630TIP3   OH271380   1.877   4.078  17.189  0.2281 -0.2660 -0.4480
16630TIP3    H171381   1.813   4.008  17.186  1.1414 -1.1703  1.0072
16630TIP3    H271382   1.940   4.052  17.256  0.1519  2.2982  0.7052
16631TIP3   OH271383   3.572   2.445   2.601  0.1892 -0.3801 -0.9428
16631TIP3    H171384   3.522   2.397   2.666 -0.5884  0.2269 -1.0868
16631TIP3    H271385   3.648   2.480   2.649  0.0385 -0.6026 -0.5450
16632TIP3   OH271386   1.004   1.402   2.444 -0.5454  0.1768 -0.3375
16632TIP3    H171387   1.086   1.440   2.414 -1.4451  0.7474 -2.1614
16632TIP3    H271388   0.962   1.472   2.495  0.1203 -0.1498  0.6821
16633TIP3   OH271389   3.217   5.302  13.775 -0.0712 -0.1857  0.0552
16633TIP3    H171390   3.306   5.320  13.746 -0.0866 -1.8066 -1.0924
16633TIP3    H271391   3.162   5.326  13.701 -0.5689  0.5799  0.6681
16634TIP3   OH271392   4.312   2.684   5.343  0.2270 -0.6703 -0.2284
16634TIP3    H171393   4.231   2.713   5.384  0.9069  0.1075  0.5807
16634TIP3    H271394   4.365   2.652   5.416  0.6480 -1.1580 -0.7526
16635TIP3   OH271395   1.473   6.376  11.584 -0.7291 -0.2904  0.2931
16635TIP3    H171396   1.500   6.368  11.493 -0.8913 -0.9047  0.2964
16635TIP3    H271397   1.547   6.418  11.628 -0.6698  0.0490 -0.1275
16636TIP3   OH271398   5.742   3.418   2.468 -0.0716 -0.4314 -0.0287
16636TIP3    H171399   5.763   3.327   2.446  2.8122  0.4802 -1.3264
16636TIP3    H271400   5.655   3.432   2.430  1.5617 -1.2231 -4.4746
16637TIP3   OH271401   5.704   0.808   5.057 -0.7618 -0.3233  0.4434
16637TIP3    H171402   5.628   0.851   5.098  1.1224  0.5537  3.1889
16637TIP3    H271403   5.760   0.881   5.031 -1.1719 -0.9444 -2.2984
16638TIP3   OH271404   5.011   5.162  15.775 -0.0714 -0.1862  0.4867
16638TIP3    H171405   4.951   5.204  15.837  1.6570  1.4266  1.1158
16638TIP3    H271406   4.969   5.079  15.752 -1.4893 -0.0691  2.5970
16639TIP3   OH271407   4.121   4.394   5.640 -0.0211 -0.7956  0.2047
16639TIP3    H171408   4.164   4.479   5.628  2.1123 -1.8023  0.5104
16639TIP3    H271409   4.137   4.372   5.732  1.3936 -2.5488 -0.4301
16640TIP3   OH271410   1.214   3.953   2.675  0.3907  0.4999 -0.1628
16640TIP3    H171411   1.216   4.048   2.679  0.1808  0.5887 -1.8260
16640TIP3    H271412   1.224   3.932   2.582 -0.1490 -1.0839  0.1143
16641TIP3   OH271413   5.181   1.725  11.788  0.0968  0.2207 -0.5138
16641TIP3    H171414   5.189   1.807  11.837 -1.0627  0.5386 -0.8243
16641TIP3    H271415   5.262   1.720  11.737 -0.0361  1.4401 -0.8756
16642TIP3   OH271416   1.915   5.047   0.086  0.4375  0.2523 -0.1640
16642TIP3    H171417   1.950   4.978   0.143 -0.9890  0.9339  1.6001
16642TIP3    H271418   1.960   5.127   0.114 -2.8365  1.2660  2.5907
16643TIP3   OH271419   0.696   2.177  13.043  0.1819 -0.1153  0.0233
16643TIP3    H171420   0.675   2.239  12.973 -0.1164 -1.2268 -0.8767
16643TIP3    H271421   0.658   2.094  13.015  0.6710 -0.7470  1.1710
16644TIP3   OH271422   4.878   5.472   2.217 -0.0660 -0.1550  0.6515
16644TIP3    H171423   4.857   5.392   2.170 -1.2602  0.1292  0.6955
16644TIP3    H271424   4.969   5.491   2.193 -0.7929  0.2456 -1.9029
16645TIP3   OH271425   0.279   4.401  15.941 -0.1118 -0.1290 -0.0051
16645TIP3    H171426   0.337   4.471  15.971  0.6938 -0.4686 -0.7605
16645TIP3    H271427   0.194   4.444  15.933  0.5312  0.9763 -1.2181
16646TIP3   OH271428   5.193   0.718   3.721 -0.0752 -0.5215 -0.2529
16646TIP3    H171429   5.158   0.764   3.646 -2.7776  2.5578  2.7399
16646TIP3    H271430   5.255   0.779   3.760  0.4415 -1.6167  0.6770
16647TIP3   OH271431   5.071   3.485   0.355 -0.1056 -0.1294  0.2631
16647TIP3    H171432   4.977   3.479   0.367 -0.1159  0.6621  0.6225
16647TIP3    H271433   5.087   3.578   0.339  0.3646 -0.5596 -1.9711
16648TIP3   OH271434   4.077   4.440   3.215 -0.2446  0.7024 -0.4192
16648TIP3    H171435   4.116   4.369   3.163  0.5007  1.1813 -0.5229
16648TIP3    H271436   4.067   4.403   3.302  0.2352  0.4977 -0.4489
16649TIP3   OH271437   3.715   6.040  17.160 -0.0666  0.6116 -0.0046
16649TIP3    H171438   3.760   6.088  17.090 -1.2477  2.8698  0.7306
16649TIP3    H271439   3.636   6.006  17.118 -1.1436  2.5773  0.3201
16650TIP3   OH271440   4.941   4.474   2.838  0.1724  0.5795  0.4163
16650TIP3    H171441   4.884   4.544   2.869 -1.8125 -0.9155  0.2463
16650TIP3    H271442   4.952   4.416   2.914  0.6974  0.3615  0.1796
16651TIP3   OH271443   0.978   4.094   0.200 -0.3625  0.7357  0.6020
16651TIP3    H171444   0.885   4.083   0.180 -0.4770  2.2116  0.3063
16651TIP3    H271445   0.987   4.186   0.225  0.9743  0.5401  0.8715
16652TIP3   OH271446   5.336   3.452   1.452  0.2906  0.2893 -0.1421
16652TIP3    H171447   5.364   3.542   1.437 -0.1510  0.5702  0.6608
16652TIP3    H271448   5.350   3.438   1.546  0.5308 -0.5340 -0.3019
16653TIP3   OH271449   3.021   2.770  16.006  0.4590  0.0141 -0.0889
16653TIP3    H171450   3.050   2.701  15.947  1.1149  1.0537 -0.9978
16653TIP3    H271451   3.063   2.850  15.973 -0.5260  0.9029  0.7555
16654TIP3   OH271452   0.099   2.239  12.003  0.3086  0.0372  0.5971
16654TIP3    H171453   0.123   2.298  11.931 -0.0336 -0.2712  0.2236
16654TIP3    H271454   0.145   2.274  12.079  0.7466  0.3186  0.2096
16655TIP3   OH271455   6.174   1.642   1.086 -0.5389 -0.0973  0.3037
16655TIP3    H171456   6.192   1.600   1.003 -1.8175 -0.7529  0.3411
16655TIP3    H271457   6.234   1.601   1.148  1.0840  1.0658 -0.4590
16656TIP3   OH271458   4.495   0.928  15.130 -0.6366  0.3633  0.2422
16656TIP3    H171459   4.581   0.892  15.112 -0.9261 -0.4175  0.3968
16656TIP3    H271460   4.512   1.005  15.185  0.0255  0.9018 -0.7041
16657TIP3   OH271461   2.203   0.227  11.556 -0.5060 -0.0483 -0.0154
16657TIP3    H171462   2.268   0.159  11.572 -0.1714  0.4149  0.6509
16657TIP3    H271463   2.155   0.197  11.479  0.9183 -0.0723 -0.9129
16658TIP3   OH271464   1.916   4.659  11.217  0.0548 -0.0583 -0.3613
16658TIP3    H171465   1.859   4.582  11.228 -0.4861  0.6046  1.6333
16658TIP3    H271466   1.886   4.699  11.136  0.6991 -2.2412 -1.7272
16659TIP3   OH271467   6.738   3.171   1.790 -0.1385  0.4562 -0.1850
16659TIP3    H171468   6.715   3.081   1.812  2.1932 -0.0918  0.1266
16659TIP3    H271469   6.794   3.164   1.713 -1.4482  1.8038 -1.3014
16660TIP3   OH271470   5.959   0.377   7.046 -0.4087 -0.2583 -0.4820
16660TIP3    H171471   5.905   0.439   6.996  1.5503  0.2174 -2.0822
16660TIP3    H271472   5.899   0.305   7.068 -2.3530  1.5097  0.1560
16661TIP3   OH271473   4.414   0.773  15.598 -0.6321 -0.2751 -0.0923
16661TIP3    H171474   4.506   0.797  15.608 -0.2182 -2.1107  0.6426
16661TIP3    H271475   4.408   0.740  15.508 -0.5738 -0.1481 -0.1436
16662TIP3   OH271476   0.376   0.531   5.397 -0.0905 -0.0244  0.4597
16662TIP3    H171477   0.326   0.473   5.455 -1.0132  1.2595  0.9951
16662TIP3    H271478   0.356   0.619   5.430  1.0294  0.6064 -0.5264
16663TIP3   OH271479   4.803   0.400  17.184 -0.4056 -0.1990  0.1553
16663TIP3    H171480   4.853   0.319  17.177 -1.1905 -0.7655  0.8353
16663TIP3    H271481   4.770   0.416  17.096  1.3601  0.4555 -0.4055
16664TIP3   OH271482   4.989   5.022   6.348 -0.4008  0.2323 -0.2940
16664TIP3    H171483   4.915   5.083   6.339 -0.4638  0.5107  1.9269
16664TIP3    H271484   5.019   5.033   6.438  1.8603 -0.4659 -0.9233
16665TIP3   OH271485   0.648   4.535  10.563  0.4777  0.5597  0.3727
16665TIP3    H171486   0.676   4.479  10.490 -1.3445  1.3542 -0.9750
16665TIP3    H271487   0.557   4.509  10.579 -0.5953  3.4725 -0.6593
16666TIP3   OH271488   2.477   4.326   0.558  0.2371  0.3137  0.5379
16666TIP3    H171489   2.451   4.286   0.475  2.1995  1.6828 -0.7905
16666TIP3    H271490   2.558   4.281   0.582  0.7388  1.2795  0.6732
16667TIP3   OH271491   0.895   4.196   6.551 -0.5167 -0.3678 -0.4880
16667TIP3    H171492   0.970   4.141   6.531 -0.0931 -0.4485  1.2519
16667TIP3    H271493   0.820   4.136   6.552 -0.2218 -0.7263  0.2834
16668TIP3   OH271494   2.754   5.471  17.090  0.0003  0.2240 -0.5440
16668TIP3    H171495   2.734   5.525  17.013  0.2948  1.9113  0.5457
16668TIP3    H271496   2.724   5.383  17.065 -2.1711  1.2292 -1.6775
16669TIP3   OH271497   6.550   4.221  16.631  0.9167 -0.0563 -0.0757
16669TIP3    H171498   6.535   4.237  16.724 -1.3453  0.9302 -0.5685
16669TIP3    H271499   6.622   4.158  16.628 -0.2927 -1.6226  2.4067
16670TIP3   OH271500   5.952   6.318  14.616  0.0399  0.3802  0.0459
16670TIP3    H171501   5.957   6.399  14.565  0.6523 -0.4871 -1.3049
16670TIP3    H271502   5.942   6.249  14.550  0.9376 -0.7627  1.0935
16671TIP3   OH271503   4.708   0.772  14.295 -0.0235  0.0052 -0.0437
16671TIP3    H171504   4.642   0.833  14.327  0.6809  1.3671 -1.1232
16671TIP3    H271505   4.761   0.751  14.371 -3.1007 -2.9718  1.3788
16672TIP3   OH271506   5.899   3.813   5.621  0.0671  0.3306 -0.1302
16672TIP3    H171507   5.908   3.748   5.690 -1.6710 -0.8515 -0.9899
16672TIP3    H271508   5.944   3.776   5.546 -0.1790  0.5152 -0.3705
16673TIP3   OH271509   5.111   5.169   4.154  0.1408  0.3141  0.5414
16673TIP3    H171510   5.024   5.205   4.139 -0.1156 -0.4809  0.1157
16673TIP3    H271511   5.141   5.141   4.067 -0.0560 -1.3935  1.0117
16674TIP3   OH271512   6.449   1.810   3.371 -0.0937  0.2755  0.0674
16674TIP3    H171513   6.411   1.819   3.284  0.2262 -1.0517 -0.2233
16674TIP3    H271514   6.532   1.858   3.366 -0.3501  0.6996 -0.1702
16675TIP3   OH271515   2.979   5.308  12.760  0.1741  0.1722 -0.2573
16675TIP3    H171516   3.022   5.254  12.694 -0.7111  0.6938 -1.2922
16675TIP3    H271517   3.045   5.373  12.785  0.3295  0.3411 -1.0845
16676TIP3   OH271518   4.168   5.705  12.013 -0.6520 -0.2194  0.2650
16676TIP3    H171519   4.214   5.644  11.956 -0.5195 -0.3494  0.5103
16676TIP3    H271520   4.076   5.679  12.007 -0.4300 -1.3266  1.4479
16677TIP3   OH271521   6.716   6.812  16.422  0.0451 -0.5523 -0.0038
16677TIP3    H171522   6.803   6.773  16.431 -0.7702 -2.0372  1.6229
16677TIP3    H271523   6.692   6.793  16.331  0.1668 -2.8432  0.4066
16678TIP3   OH271524   0.760   5.070   5.235 -0.0476 -0.3885 -0.2489
16678TIP3    H171525   0.744   5.151   5.283  5.2277 -0.4334  1.9898
16678TIP3    H271526   0.779   5.098   5.146 -1.6799  0.4854 -0.3357
16679TIP3   OH271527   1.492   6.264   2.887  0.1004  0.0899 -0.0554
16679TIP3    H171528   1.494   6.312   2.970 -0.3329  1.2215 -0.6876
16679TIP3    H271529   1.443   6.321   2.828  1.3873 -0.1958 -1.4128
16680TIP3   OH271530   6.375   6.372  11.543 -0.1442 -0.1654 -0.4624
16680TIP3    H171531   6.374   6.288  11.590  1.2275  0.6090  1.0336
16680TIP3    H271532   6.406   6.350  11.455 -0.5722 -1.3348 -0.3313
16681TIP3   OH271533   2.100   0.198  16.029  0.1315  0.6197  0.6635
16681TIP3    H171534   2.030   0.213  15.966 -0.0255 -1.3989  0.3023
16681TIP3    H271535   2.055   0.193  16.113 -0.2056 -0.8443  0.4127
16682TIP3   OH271536   3.287   3.219   4.951  0.2817 -0.4084 -0.6453
16682TIP3    H171537   3.226   3.178   5.012 -0.8407  1.3714 -0.5443
16682TIP3    H271538   3.306   3.150   4.886 -0.5254 -1.4894  0.2494
16683TIP3   OH271539   6.335   3.236   0.197 -0.1537 -0.6271 -0.7118
16683TIP3    H171540   6.284   3.306   0.156 -1.3679 -1.4062 -0.5638
16683TIP3    H271541   6.364   3.181   0.124  0.3013 -0.2950 -0.7802
16684TIP3   OH271542   6.089   2.420   6.868  0.1589  0.3466  0.3294
16684TIP3    H171543   6.073   2.347   6.928 -0.3645  0.1823 -0.0039
16684TIP3    H271544   6.091   2.379   6.781 -0.6009  0.7969  0.0996
16685TIP3   OH271545   4.736   6.077   4.722 -0.2120 -0.9922  0.1853
16685TIP3    H171546   4.809   6.069   4.784  0.3235  0.1139 -0.2950
16685TIP3    H271547   4.663   6.034   4.766 -0.5759  2.0825  2.7833
16686TIP3   OH271548   2.647   0.650  11.394  0.5388  0.3155 -0.3454
16686TIP3    H171549   2.690   0.584  11.447  2.0289  3.4222  2.4688
16686TIP3    H271550   2.554   0.641  11.415  0.8638 -0.0553  0.9428
16687TIP3   OH271551   6.516   2.646   4.802 -0.2511  0.3298  0.1515
16687TIP3    H171552   6.440   2.609   4.848 -0.1439 -0.8290 -0.5572
16687TIP3    H271553   6.591   2.605   4.844 -0.0675  0.7908  0.2658
16688TIP3   OH271554   5.207   4.583  12.300 -0.1962 -0.6067 -0.4098
16688TIP3    H171555   5.252   4.622  12.375 -0.4170  0.9064 -1.0585
16688TIP3    H271556   5.277   4.539  12.251  0.0581 -0.9987  0.2917
16689TIP3   OH271557   1.283   0.203   4.870  0.5276 -0.1726 -0.5354
16689TIP3    H171558   1.324   0.127   4.911 -0.5586 -0.8719 -0.7242
16689TIP3    H271559   1.355   0.264   4.856  0.7708  0.6458  3.6062
16690TIP3   OH271560   3.906   5.182   4.684  0.6360  0.2078  0.0627
16690TIP3    H171561   4.002   5.185   4.679  0.6735 -1.5950 -0.6802
16690TIP3    H271562   3.886   5.206   4.775  1.8804 -0.7796  0.6185
16691TIP3   OH271563   5.151   1.058  14.140  0.1380  0.3955  0.4443
16691TIP3    H171564   5.160   1.082  14.048 -0.4081 -1.2266 -0.0559
16691TIP3    H271565   5.079   0.995  14.141 -0.6602  1.3044  2.1494
16692TIP3   OH271566   4.326   4.036   3.647 -0.0411 -0.8524 -0.3792
16692TIP3    H171567   4.353   4.006   3.734 -0.8949 -0.2969  0.0794
16692TIP3    H271568   4.231   4.048   3.654  0.1685  1.2047 -0.7783
16693TIP3   OH271569   2.546   1.150  15.816  0.1046  0.4372  0.5247
16693TIP3    H171570   2.633   1.139  15.854  0.9249  1.2764 -1.0609
16693TIP3    H271571   2.560   1.205  15.739 -1.9799  1.4649  0.8347
16694TIP3   OH271572   1.204   3.088  14.166  0.9209  0.4676 -0.1400
16694TIP3    H171573   1.216   3.029  14.240  1.0021  0.9399  0.2244
16694TIP3    H271574   1.123   3.057  14.125  0.9804  0.0819  0.0257
16695TIP3   OH271575   0.956   0.092  11.975  0.6376 -0.0534  0.6458
16695TIP3    H171576   0.903   0.135  11.907  1.2025 -0.7160 -0.2262
16695TIP3    H271577   0.936  -0.001  11.965  2.7704 -0.4320 -0.4248
16696TIP3   OH271578   5.178   5.084   1.149 -0.2242  0.1644 -0.4735
16696TIP3    H171579   5.129   5.102   1.068  0.3378  1.8071 -0.4609
16696TIP3    H271580   5.257   5.039   1.119  0.0188  0.8330 -0.8681
16697TIP3   OH271581   3.470   3.048  16.790  0.6702  0.4757 -0.1243
16697TIP3    H171582   3.455   3.053  16.884 -1.6413 -0.5157 -0.3986
16697TIP3    H271583   3.557   3.087  16.777  0.7123  1.2783  2.3090
16698TIP3   OH271584   3.798   1.916   3.422  0.0095 -0.5731 -0.2927
16698TIP3    H171585   3.856   1.846   3.452  0.2380 -0.7411 -1.1237
16698TIP3    H271586   3.723   1.912   3.482  0.7312 -0.5159  0.6288
16699TIP3   OH271587   6.479   4.015   2.779 -0.2348  0.7742 -0.4101
16699TIP3    H171588   6.542   3.968   2.834 -0.6893  0.8353  0.1632
16699TIP3    H271589   6.531   4.044   2.704  0.2012 -0.0402 -0.4315
16700TIP3   OH271590   6.534   4.698  12.908 -0.1960  0.0704  0.3037
16700TIP3    H171591   6.622   4.689  12.945 -0.7351  0.6224  1.7531
16700TIP3    H271592   6.493   4.766  12.961 -1.3045  0.2119 -0.7304
16701TIP3   OH271593   4.490   3.917   3.865 -0.2936  0.4019  0.0315
16701TIP3    H171594   4.535   3.891   3.946 -0.1774  1.6790  0.3769
16701TIP3    H271595   4.539   3.872   3.796  0.1829  0.0533  0.5888
16702TIP3   OH271596   0.728   1.550   0.470 -0.4598  0.2392 -0.3274
16702TIP3    H171597   0.788   1.504   0.412  1.7002  0.8845  1.3439
16702TIP3    H271598   0.729   1.641   0.438 -0.0307  0.3886  0.1080
16703TIP3   OH271599   4.175   4.962   2.525 -0.4240 -0.2020 -0.1553
16703TIP3    H171600   4.130   4.879   2.511  1.0164 -1.0499  0.1270
16703TIP3    H271601   4.258   4.953   2.478 -0.2447  1.0835 -0.1197
16704TIP3   OH271602   1.032   3.254   5.531 -0.4926  0.3854  0.8222
16704TIP3    H171603   1.096   3.306   5.579  0.4708  0.4671 -0.5012
16704TIP3    H271604   1.065   3.165   5.535  0.7192  0.6837 -1.3817
16705TIP3   OH271605   5.759   1.077   4.518 -0.2608  0.0952  0.4246
16705TIP3    H171606   5.721   1.156   4.555  1.1924  1.4102 -0.7907
16705TIP3    H271607   5.827   1.109   4.458 -0.7697 -2.0062 -1.3618
16706TIP3   OH271608   0.473   2.235   2.754  0.0278  0.1763 -0.8085
16706TIP3    H171609   0.517   2.162   2.797  0.4311  0.3381 -0.9415
16706TIP3    H271610   0.475   2.307   2.818  0.0894  0.2302 -0.8709
16707TIP3   OH271611   3.568   5.598   4.107  0.1260  0.1644 -0.8072
16707TIP3    H171612   3.602   5.607   4.018 -0.0984 -2.5478 -1.2268
16707TIP3    H271613   3.643   5.616   4.164  0.5025  0.9903 -1.5648
16708TIP3   OH271614   3.237   4.302  13.541 -0.0777  0.3673 -0.1931
16708TIP3    H171615   3.318   4.271  13.500 -0.2904  2.2701 -2.1423
16708TIP3    H271616   3.170   4.239  13.514  0.7908 -1.4085  1.7150
16709TIP3   OH271617   4.203   5.967   1.431  0.1632 -0.2311 -0.1591
16709TIP3    H171618   4.272   5.948   1.494  0.3675  2.4923  0.5189
16709TIP3    H271619   4.248   6.004   1.356 -0.2945 -1.3616 -1.0023
16710TIP3   OH271620   1.093   4.026   0.448  0.0922  0.0172  0.2581
16710TIP3    H171621   1.053   4.056   0.366  0.0124  1.5726  0.8419
16710TIP3    H271622   1.020   4.015   0.508  0.1218 -1.4120  0.0501
16711TIP3   OH271623   1.067   3.274  12.711 -0.6503  1.0709 -0.3548
16711TIP3    H171624   1.110   3.237  12.788 -0.3927  0.8057 -0.6255
16711TIP3    H271625   1.074   3.206  12.645 -0.8074  1.3289 -0.6351
16712TIP3   OH271626   0.395   2.702   2.750  0.0913 -0.5908 -0.2003
16712TIP3    H171627   0.299   2.705   2.753  0.0322 -1.6729 -0.9313
16712TIP3    H271628   0.418   2.637   2.816  0.1724 -2.5070 -2.0730
16713TIP3   OH271629   4.811   2.054   3.524 -0.2650  0.1211 -0.3955
16713TIP3    H171630   4.862   2.117   3.473  1.2326 -0.0808  0.8223
16713TIP3    H271631   4.856   1.971   3.510 -1.8910 -0.6026 -1.5241
16714TIP3   OH271632   0.449   1.796   2.852  0.0249  0.3726  0.1091
16714TIP3    H171633   0.398   1.720   2.881  1.6057 -1.6082 -2.1398
16714TIP3    H271634   0.383   1.857   2.819 -1.2544 -0.0786  1.7262
16715TIP3   OH271635   5.457   5.767   1.675  0.2622 -0.5759  0.3318
16715TIP3    H171636   5.504   5.787   1.755  0.2000 -0.3614  0.3139
16715TIP3    H271637   5.365   5.764   1.701  0.0926  1.0694 -0.0435
16716TIP3   OH271638   6.140   4.188   5.718 -0.1180 -0.2690 -0.6273
16716TIP3    H171639   6.203   4.205   5.648 -1.2574  3.2790 -0.9116
16716TIP3    H271640   6.055   4.192   5.675 -0.8006  1.2395  0.8125
16717TIP3   OH271641   4.576   5.669  12.225  0.3605  0.2660 -0.0544
16717TIP3    H171642   4.494   5.719  12.223  0.3090  0.2100  0.5561
16717TIP3    H271643   4.583   5.638  12.315  0.7457 -0.2464 -0.2577
16718TIP3   OH271644   4.355   3.511   0.289  0.3193 -0.3479  0.1579
16718TIP3    H171645   4.324   3.477   0.205  0.3901 -0.5162  0.2010
16718TIP3    H271646   4.422   3.575   0.265 -1.8708  1.9473 -0.0549
16719TIP3   OH271647   0.263   0.757   5.479 -0.0405 -0.3330 -0.0891
16719TIP3    H171648   0.201   0.734   5.548 -0.4621  1.0388  0.0037
16719TIP3    H271649   0.310   0.833   5.513 -0.4144  0.4983 -1.4115
16720TIP3   OH271650   6.655   2.155  11.033  0.2066  0.2850  0.1277
16720TIP3    H171651   6.687   2.225  11.089  0.0918  0.2517  0.2348
16720TIP3    H271652   6.673   2.185  10.944  1.0763  0.0053  0.2036
16721TIP3   OH271653   2.174   0.975   1.578  0.0995 -0.1279  0.2859
16721TIP3    H171654   2.105   0.915   1.606 -0.4483 -0.5816 -1.8819
16721TIP3    H271655   2.212   1.008   1.659 -1.3660 -1.3686  1.5181
16722TIP3   OH271656   0.449   0.644  11.632 -0.0256 -0.0204 -0.0106
16722TIP3    H171657   0.510   0.715  11.609  1.9692 -1.8684 -0.6223
16722TIP3    H271658   0.363   0.678  11.608  1.1802  1.1102 -3.0307
16723TIP3   OH271659   4.082   6.755  15.339  0.3464  0.4568  0.1620
16723TIP3    H171660   4.117   6.727  15.423 -0.6369 -0.4902  0.2692
16723TIP3    H271661   3.988   6.738  15.345  0.1786  0.9571 -0.8921
16724TIP3   OH271662   1.130   4.140  12.960  0.0041 -0.1558  0.3029
16724TIP3    H171663   1.202   4.086  12.925  0.2003  0.1906  0.1726
16724TIP3    H271664   1.142   4.225  12.919  0.6501  0.4671  1.7529
16725TIP3   OH271665   0.565   6.777   5.634  0.0341  0.2500  0.2605
16725TIP3    H171666   0.656   6.804   5.618  0.2268 -0.6811 -0.2951
16725TIP3    H271667   0.554   6.787   5.728  0.6309  0.6277  0.2983
16726TIP3   OH271668   4.802   1.770  14.502  0.3044 -0.3941  0.5711
16726TIP3    H171669   4.856   1.691  14.501  1.5563  0.4416 -2.7046
16726TIP3    H271670   4.761   1.772  14.416 -0.2456  2.1713  0.8645
16727TIP3   OH271671   4.778   2.479   3.154  0.1841 -0.6166  0.1812
16727TIP3    H171672   4.744   2.562   3.121 -0.0216 -0.8743 -0.2638
16727TIP3    H271673   4.870   2.498   3.175  0.3040 -0.4283 -0.4930
16728TIP3   OH271674   6.529   4.396   4.412  0.3837 -0.1005  0.3447
16728TIP3    H171675   6.609   4.406   4.361  0.5599 -0.3727  0.5734
16728TIP3    H271676   6.491   4.313   4.383  1.4681 -1.2112  2.0245
16729TIP3   OH271677   1.085   0.888  11.829 -0.4974  0.3050 -0.7072
16729TIP3    H171678   1.023   0.863  11.897  0.7512  0.5647  0.5533
16729TIP3    H271679   1.109   0.805  11.787 -1.1382  0.1210 -0.7149
16730TIP3   OH271680   3.205   5.359  12.259  0.0488 -0.0464  0.6474
16730TIP3    H171681   3.193   5.452  12.278  0.9874  0.5081 -1.2728
16730TIP3    H271682   3.118   5.327  12.234 -0.1593  0.4702  0.7188
16731TIP3   OH271683   5.261   2.287  14.823  0.1288  0.0110  0.6077
16731TIP3    H171684   5.326   2.256  14.760 -0.4344  0.2467 -0.0949
16731TIP3    H271685   5.234   2.373  14.790  1.2696  1.0200  2.2429
16732TIP3   OH271686   5.236   1.195   3.648  0.6303  0.1476  0.1776
16732TIP3    H171687   5.161   1.225   3.597 -0.7142 -0.0268  2.0028
16732TIP3    H271688   5.307   1.189   3.584 -0.2009  2.8271 -1.1120
16733TIP3   OH271689   2.734   4.762  14.774  0.0257  0.1586  0.0759
16733TIP3    H171690   2.721   4.716  14.692  0.2682 -0.1465  0.2059
16733TIP3    H271691   2.748   4.693  14.839 -1.9655  0.3057  0.7081
16734TIP3   OH271692   2.456   3.136   3.539 -0.7500 -0.0274 -0.2970
16734TIP3    H171693   2.505   3.057   3.565  2.5880  1.1163 -2.7515
16734TIP3    H271694   2.372   3.103   3.508 -0.3287 -2.4012  0.9703
16735TIP3   OH271695   0.409   3.116   6.298 -0.1899  0.2069  0.1338
16735TIP3    H171696   0.451   3.196   6.266  0.8913 -1.4334 -2.7555
16735TIP3    H271697   0.476   3.074   6.352  0.8871 -0.9472 -2.0550
16736TIP3   OH271698   5.240   4.816  12.070  0.1871 -0.5599 -0.3836
16736TIP3    H171699   5.302   4.843  12.138 -0.0792 -0.6994 -0.0795
16736TIP3    H271700   5.276   4.734  12.036  1.1003  0.2781 -1.4533
16737TIP3   OH271701   2.123   3.801  10.672 -0.1069 -0.3781  0.7531
16737TIP3    H171702   2.029   3.791  10.692 -0.0139  1.2287  2.0829
16737TIP3    H271703   2.159   3.844  10.750  2.5135 -4.5459  1.9997
16738TIP3   OH271704   2.610   6.041  13.339 -0.1899  0.4435 -0.8651
16738TIP3    H171705   2.672   6.102  13.301 -1.8409  3.8446  1.6170
16738TIP3    H271706   2.648   6.017  13.424 -0.6582 -0.1742 -0.8209
16739TIP3   OH271707   5.471   1.141  15.107 -0.0010 -0.0988  0.3489
16739TIP3    H171708   5.561   1.172  15.098  0.1691 -0.4968  0.6765
16739TIP3    H271709   5.465   1.112  15.197 -0.9817  1.5756  0.8313
16740TIP3   OH271710   0.800   2.691  15.676 -0.3017  0.2932 -0.0263
16740TIP3    H171711   0.726   2.687  15.616  0.8975 -0.9379 -1.4509
16740TIP3    H271712   0.850   2.767  15.647  1.0782 -1.1572 -1.5984
16741TIP3   OH271713   6.334   6.491   3.262  0.2795  0.1503 -0.1339
16741TIP3    H171714   6.300   6.555   3.200 -0.4633 -0.0918  0.0190
16741TIP3    H271715   6.408   6.535   3.304  1.1833  0.0952 -1.6131
16742TIP3   OH271716   2.403   3.891   4.869 -0.4816 -0.0937 -0.0080
16742TIP3    H171717   2.417   3.840   4.790 -1.2176 -0.0686 -0.1571
16742TIP3    H271718   2.317   3.864   4.900 -0.4075  0.2558  0.5162
16743TIP3   OH271719   5.349   2.680  11.373 -0.5426 -0.2326  0.5769
16743TIP3    H171720   5.380   2.615  11.310 -0.9108  1.3446 -1.2929
16743TIP3    H271721   5.411   2.753  11.365 -0.8532  0.1802  1.7364
16744TIP3   OH271722   5.865   0.614  16.087  0.1781  0.3232 -0.1938
16744TIP3    H171723   5.871   0.609  16.183  2.1336 -0.1993 -0.3301
16744TIP3    H271724   5.803   0.685  16.072  1.0695  1.5118  1.4695
16745TIP3   OH271725   6.689   0.197  11.613  0.1379  0.8644 -0.6917
16745TIP3    H171726   6.632   0.182  11.689  0.0095  1.6675 -0.6253
16745TIP3    H271727   6.738   0.116  11.604  0.7341  1.0473  0.7547
16746TIP3   OH271728   0.582   3.840   3.619  0.2018  0.8737 -0.0625
16746TIP3    H171729   0.596   3.767   3.680  1.7306  2.5492  1.6340
16746TIP3    H271730   0.491   3.865   3.631  0.4296  1.0180  1.3636
16747TIP3   OH271731   2.365   0.587   2.875  0.1368 -0.7351 -0.1986
16747TIP3    H171732   2.276   0.613   2.900  0.8792  0.4840  1.2910
16747TIP3    H271733   2.363   0.491   2.874 -1.8034 -0.7121 -2.5402
16748TIP3   OH271734   6.585   6.640  14.500  0.0976  0.0853  0.0564
16748TIP3    H171735   6.495   6.608  14.499  0.6445 -1.8121  3.7337
16748TIP3    H271736   6.584   6.716  14.558  1.6497 -2.8923  4.1948
16749TIP3   OH271737   4.141   4.885  16.397  0.5722 -0.0487  0.0951
16749TIP3    H171738   4.129   4.879  16.492  3.0362  2.5365  0.6114
16749TIP3    H271739   4.229   4.851  16.382  1.0028  1.5343 -1.0098
16750TIP3   OH271740   3.621   4.331  14.917  0.4675  0.1491 -0.2261
16750TIP3    H171741   3.669   4.374  14.847 -0.1067  1.0190 -0.0956
16750TIP3    H271742   3.677   4.340  14.995  0.4429  0.4724 -0.2471
16751TIP3   OH271743   6.578   0.108  15.391 -0.1830 -0.4391 -0.0106
16751TIP3    H171744   6.626   0.181  15.431 -2.0057  1.2107 -0.7942
16751TIP3    H271745   6.563   0.048  15.464 -1.1492  1.3019  1.2684
16752TIP3   OH271746   2.981   6.004  13.752 -0.2087  0.4592 -0.1656
16752TIP3    H171747   3.013   6.080  13.799  1.3574 -0.2270 -0.0882
16752TIP3    H271748   2.958   5.941  13.820 -0.2953  0.3953 -0.2532
16753TIP3   OH271749   6.579   2.622  14.423  0.5379  0.0128 -0.0128
16753TIP3    H171750   6.607   2.531  14.415  0.1824 -0.1533  0.5408
16753TIP3    H271751   6.491   2.623  14.387  0.5554  0.1411 -0.0500
16754TIP3   OH271752   2.737   2.203  11.891 -0.1801 -0.2134 -0.6906
16754TIP3    H171753   2.739   2.202  11.795 -1.0008 -0.7421 -0.7081
16754TIP3    H271754   2.722   2.295  11.914 -1.6294 -0.3317 -1.1124
16755TIP3   OH271755   4.780   6.755  14.266 -0.2782  0.4608  0.0124
16755TIP3    H171756   4.693   6.795  14.276 -0.0982  0.6108  1.0090
16755TIP3    H271757   4.800   6.765  14.173 -1.3971  0.2857 -0.2581
16756TIP3   OH271758   5.737   2.456   3.984 -0.5401  0.3113  0.7953
16756TIP3    H171759   5.760   2.421   4.070  0.2077  1.3560  1.0269
16756TIP3    H271760   5.820   2.489   3.949 -0.6375 -0.9805 -0.7387
16757TIP3   OH271761   2.802   2.596   2.089  0.5282  0.6647 -0.6303
16757TIP3    H171762   2.817   2.510   2.050  1.1466  0.3035  0.3770
16757TIP3    H271763   2.860   2.655   2.041  0.3449  0.4606 -1.1021
16758TIP3   OH271764   5.369   4.371   5.936 -0.5600  0.0140 -0.0270
16758TIP3    H171765   5.366   4.352   6.030  0.2630  2.2745  0.4981
16758TIP3    H271766   5.302   4.439   5.923  0.8218  1.2875 -0.6566
16759TIP3   OH271767   4.983   0.038  14.419 -0.1230 -0.6540 -0.1333
16759TIP3    H171768   5.053   0.088  14.379 -0.4221  0.3551  0.5841
16759TIP3    H271769   4.930   0.008  14.346  1.1835 -1.6201 -0.6932
16760TIP3   OH271770   1.291   2.470   0.122  0.5005  0.8945  0.1650
16760TIP3    H171771   1.259   2.445   0.035  1.7943  0.6591 -0.2544
16760TIP3    H271772   1.274   2.392   0.176 -1.7294  1.5932  0.5209
16761TIP3   OH271773   0.542   1.398   2.002 -0.0052 -0.4636 -0.3338
16761TIP3    H171774   0.514   1.360   1.918  0.2226 -0.1124 -0.5669
16761TIP3    H271775   0.611   1.340   2.033  0.6859  0.0424 -0.9301
16762TIP3   OH271776   0.945   4.228  13.474 -0.1572  0.1978  0.5553
16762TIP3    H171777   0.949   4.266  13.387 -1.9957 -0.4852  0.1390
16762TIP3    H271778   0.974   4.138  13.463  0.8393  0.4730  0.8932
16763TIP3   OH271779   2.027   4.273   1.037 -0.0363  0.2709  0.1124
16763TIP3    H171780   2.074   4.226   0.969 -0.4275  1.0310 -0.7021
16763TIP3    H271781   2.082   4.348   1.057  1.0547 -1.0345  2.1047
16764TIP3   OH271782   2.730   4.738   3.192 -0.0011  0.4536 -0.0263
16764TIP3    H171783   2.747   4.793   3.115  0.6262  2.3074  1.3907
16764TIP3    H271784   2.635   4.727   3.193 -0.0036  0.3207 -1.1243
16765TIP3   OH271785   2.583   2.519  10.191  0.2584  0.0752  0.1415
16765TIP3    H171786   2.668   2.561  10.195  0.4826 -0.3429 -0.1542
16765TIP3    H271787   2.520   2.591  10.194  0.6400  0.4467 -0.6334
16766TIP3   OH271788   6.291   0.643   2.180  0.2351 -0.0581 -0.6225
16766TIP3    H171789   6.292   0.737   2.159 -0.1310 -0.2104 -1.3531
16766TIP3    H271790   6.199   0.623   2.195  0.1843 -0.5090 -1.4782
16767TIP3   OH271791   2.156   5.459  14.729 -0.3687  0.2187  0.0515
16767TIP3    H171792   2.087   5.514  14.767 -0.9440 -0.1120 -0.4964
16767TIP3    H271793   2.108   5.392  14.679  0.2725 -1.8322  2.1117
16768TIP3   OH271794   3.216   4.194  11.398  0.1943  0.0486  0.4217
16768TIP3    H171795   3.218   4.210  11.493  1.9236 -1.7142  0.7194
16768TIP3    H271796   3.308   4.183  11.374 -0.2704 -0.0190 -1.3924
16769TIP3   OH271797   1.805   3.825  11.037 -0.2373 -0.0508  0.1265
16769TIP3    H171798   1.875   3.879  11.074 -1.2830  1.4476 -0.0491
16769TIP3    H271799   1.795   3.857  10.947  0.3349 -1.7438 -0.5664
16770TIP3   OH271800   3.566   1.949   0.410 -0.1047  0.3257 -0.2155
16770TIP3    H171801   3.599   1.923   0.496  2.3360 -1.0741 -1.5189
16770TIP3    H271802   3.536   1.867   0.371 -0.2265  0.7902 -1.1034
16771TIP3   OH271803   5.282   5.110  14.119 -0.2209  0.0302 -0.1199
16771TIP3    H171804   5.320   5.068  14.041 -0.8974  1.1930 -1.1063
16771TIP3    H271805   5.345   5.179  14.141  0.3021 -0.7209  0.7857
16772TIP3   OH271806   3.154   1.076   4.632 -0.0472 -0.1945 -0.0148
16772TIP3    H171807   3.212   1.068   4.556 -1.4000  1.6994 -1.2905
16772TIP3    H271808   3.158   1.168   4.656 -0.0153 -0.6951  1.9278
16773TIP3   OH271809   0.450   1.698   1.440 -0.0666 -0.4187 -0.0779
16773TIP3    H171810   0.470   1.753   1.364 -2.4251 -0.0581 -0.4533
16773TIP3    H271811   0.450   1.609   1.406 -3.0070 -0.1296 -0.9611
16774TIP3   OH271812   4.896   0.767  13.532  1.2138  0.8140  0.1590
16774TIP3    H171813   4.855   0.829  13.592  2.2843  0.3926  1.3568
16774TIP3    H271814   4.823   0.724  13.487  0.3913  1.1059  1.1965
16775TIP3   OH271815   6.511   6.758   4.327 -0.3689 -0.0988 -0.7505
16775TIP3    H171816   6.431   6.705   4.322 -0.8294 -0.1535  4.1252
16775TIP3    H271817   6.578   6.696   4.356 -0.3512  1.3469  2.5592
16776TIP3   OH271818   5.438   5.476   4.744  0.2554  0.1244 -0.2484
16776TIP3    H171819   5.482   5.448   4.824 -1.8666  1.0922  1.3114
16776TIP3    H271820   5.457   5.570   4.739 -0.7958  0.3525 -0.0841
16777TIP3   OH271821   0.558   4.806  12.410  0.4130 -0.9906  0.8041
16777TIP3    H171822   0.617   4.881  12.422  0.6012 -0.8704 -0.7977
16777TIP3    H271823   0.526   4.815  12.321 -1.7448 -1.2820  1.5320
16778TIP3   OH271824   5.412   2.033   5.133 -0.0966 -0.1391  0.6432
16778TIP3    H171825   5.349   2.060   5.200 -0.6076 -1.8751  0.8687
16778TIP3    H271826   5.365   1.971   5.079  0.8899 -0.1208 -0.2418
16779TIP3   OH271827   5.576   5.510  15.764 -0.3053  0.1352 -0.1553
16779TIP3    H171828   5.628   5.444  15.720 -0.3172  1.2963 -1.9671
16779TIP3    H271829   5.640   5.574  15.797 -0.4485  0.5549 -0.6809
16780TIP3   OH271830   6.138   0.452   4.450 -0.0085 -0.2805  0.6404
16780TIP3    H171831   6.195   0.480   4.378  1.3253 -1.0185  1.3859
16780TIP3    H271832   6.101   0.368   4.420 -0.5944  0.1259  0.2167
16781TIP3   OH271833   3.934   2.601   4.582 -0.5575  0.7739  0.0365
16781TIP3    H171834   3.897   2.612   4.494  1.5986 -1.0452 -1.1543
16781TIP3    H271835   3.895   2.521   4.615 -0.5272  0.8673  0.3039
16782TIP3   OH271836   1.703   3.522  14.777  0.4469 -0.1644 -0.1838
16782TIP3    H171837   1.774   3.570  14.818  0.6431 -1.3353  0.8890
16782TIP3    H271838   1.745   3.464  14.713  0.4191 -0.4306  0.0339
16783TIP3   OH271839   3.733   1.528   0.996 -0.7252  0.2328 -0.2085
16783TIP3    H171840   3.779   1.612   1.008  0.8476 -0.5666 -0.5104
16783TIP3    H271841   3.745   1.483   1.080 -0.7564 -0.0852 -0.3772
16784TIP3   OH271842   2.461   6.348   0.743  0.1297 -0.1313 -0.2087
16784TIP3    H171843   2.384   6.380   0.791 -0.4773 -1.4310 -0.2976
16784TIP3    H271844   2.530   6.411   0.763 -0.2447 -0.3814  1.9692
16785TIP3   OH271845   4.481   3.761   0.289 -0.1680  0.0592  0.4347
16785TIP3    H171846   4.560   3.808   0.261  0.0982 -0.8041 -0.2801
16785TIP3    H271847   4.410   3.823   0.276  0.1579  0.2002 -0.6811
16786TIP3   OH271848   1.663   6.417   3.920  0.0742 -0.6023  0.0155
16786TIP3    H171849   1.572   6.431   3.893  0.6440  0.6294 -1.3668
16786TIP3    H271850   1.699   6.357   3.855  0.8491  0.6346 -0.7086
16787TIP3   OH271851   2.482   5.981   0.514 -0.1024 -0.4469 -0.4678
16787TIP3    H171852   2.549   6.032   0.466  1.1229 -0.5479  1.1136
16787TIP3    H271853   2.436   5.933   0.445 -0.1791  1.5093 -1.8407
16788TIP3   OH271854   5.660   5.641  16.837  0.2173  0.4050  0.2210
16788TIP3    H171855   5.731   5.695  16.872 -0.5053  1.3953  0.1628
16788TIP3    H271856   5.602   5.625  16.912  0.5379 -0.4813  0.2893
16789TIP3   OH271857   6.487   6.696  13.061  0.2534 -0.6064  0.6006
16789TIP3    H171858   6.448   6.739  12.984 -1.9575 -1.0313  1.4425
16789TIP3    H271859   6.513   6.609  13.029  1.0973 -0.1006 -0.1191
16790TIP3   OH271860   4.203   3.880  16.998  0.4801  0.3882 -0.1424
16790TIP3    H171861   4.285   3.922  17.026  0.3664  0.2732  0.3739
16790TIP3    H271862   4.137   3.948  17.007 -0.2778 -0.7375  3.7300
16791TIP3   OH271863   6.659   1.907  12.699  0.4540  0.4797  0.1200
16791TIP3    H171864   6.724   1.842  12.727  0.7059  0.4037 -0.6267
16791TIP3    H271865   6.654   1.969  12.772  1.5063  0.5897  0.1135
16792TIP3   OH271866   2.427   5.901  11.977  0.2609  0.1335 -0.4980
16792TIP3    H171867   2.502   5.896  11.917  0.1362  2.1453 -0.8616
16792TIP3    H271868   2.427   5.992  12.007 -1.3756 -0.1425  0.3777
16793TIP3   OH271869   3.676   5.011  12.346  0.5749  0.6270 -0.2286
16793TIP3    H171870   3.591   5.045  12.317  0.0004 -0.1387  0.5501
16793TIP3    H271871   3.655   4.944  12.410  1.7150 -1.0060 -1.5283
16794TIP3   OH271872   6.107   1.691   5.018 -0.4007  0.3391  0.1388
16794TIP3    H171873   6.192   1.712   5.057  0.5024 -0.4316 -1.3683
16794TIP3    H271874   6.072   1.622   5.075 -0.1765  0.8971  0.9635
16795TIP3   OH271875   5.812   1.087  15.834 -0.2248  0.0023 -0.0329
16795TIP3    H171876   5.853   1.104  15.919  0.1594 -0.8391 -0.0431
16795TIP3    H271877   5.854   1.007  15.803  0.8764  1.2154 -1.8075
16796TIP3   OH271878   2.256   1.661   4.067 -0.1835  0.0344 -0.2360
16796TIP3    H171879   2.167   1.672   4.102 -0.1971 -1.5308  0.2518
16796TIP3    H271880   2.294   1.590   4.119  0.0769 -1.8284 -2.8608
16797TIP3   OH271881   4.329   5.041   3.577  0.2547  0.7271 -0.0899
16797TIP3    H171882   4.378   5.029   3.659 -0.6548 -2.0335  0.0943
16797TIP3    H271883   4.238   5.026   3.601  0.1092 -1.4699 -1.8216
16798TIP3   OH271884   4.322   2.172  16.668 -0.3194  0.3937 -0.2207
16798TIP3    H171885   4.275   2.093  16.641 -0.5834 -0.4107  2.4039
16798TIP3    H271886   4.299   2.238  16.602  1.2976 -2.1547 -3.4513
16799TIP3   OH271887   2.319   5.809   0.650 -0.6910  0.4242  0.0055
16799TIP3    H171888   2.375   5.861   0.592  0.8702 -0.7843  0.3993
16799TIP3    H271889   2.287   5.872   0.714 -1.0042  1.4321 -1.1213
16800TIP3   OH271890   0.764   4.179  15.010 -0.0380  0.2072  0.3525
16800TIP3    H171891   0.795   4.220  14.929 -1.0426  0.9553  0.3402
16800TIP3    H271892   0.676   4.147  14.988  0.8953 -2.3732  0.2238
16801TIP3   OH271893   0.323   1.464  13.470 -0.0931  0.1130 -0.5340
16801TIP3    H171894   0.374   1.479  13.550  0.3842  0.5046 -0.9066
16801TIP3    H271895   0.233   1.487  13.494 -0.0298 -0.2190  0.0231
16802TIP3   OH271896   6.140   6.129  11.640 -0.4459 -0.0913  0.5196
16802TIP3    H171897   6.225   6.106  11.603  0.2802 -0.5569  2.4495
16802TIP3    H271898   6.076   6.090  11.580  0.7120 -1.7819  0.3777
16803TIP3   OH271899   5.415   4.472   4.650  0.1318  0.2737  0.3064
16803TIP3    H171900   5.469   4.393   4.651 -0.9861 -0.4963  2.5047
16803TIP3    H271901   5.461   4.534   4.707  0.7724  1.0712 -1.0529
16804TIP3   OH271902   1.518   2.760  14.386  0.3061 -0.0655 -0.4109
16804TIP3    H171903   1.485   2.674  14.360 -0.0604  0.7135 -2.6424
16804TIP3    H271904   1.601   2.742  14.431 -0.1833 -1.6201 -0.1085
16805TIP3   OH271905   3.619   0.429  12.739 -0.3633 -0.0763  0.4877
16805TIP3    H171906   3.581   0.462  12.821 -1.0402  1.0155 -0.2601
16805TIP3    H271907   3.638   0.507  12.688 -3.7427 -0.8365 -2.1009
16806TIP3   OH271908   4.996   4.241   3.582 -0.2101 -0.4929 -0.6632
16806TIP3    H171909   5.017   4.172   3.519  1.5965  0.4579 -1.1364
16806TIP3    H271910   4.969   4.315   3.527  2.3165  0.6608 -0.3978
16807TIP3   OH271911   5.405   5.239   5.373  0.0620 -0.5008  0.0757
16807TIP3    H171912   5.483   5.184   5.383  0.6920  0.3138 -0.2973
16807TIP3    H271913   5.431   5.324   5.409  0.4542  0.7713 -2.9958
16808TIP3   OH271914   3.487   3.615   2.209 -0.0853  0.3715  0.2800
16808TIP3    H171915   3.474   3.677   2.137 -2.4563  1.0964  1.2834
16808TIP3    H271916   3.543   3.661   2.271  1.3475  0.0234 -0.7245
16809TIP3   OH271917   5.115   4.639   0.515 -0.4896 -0.1321  0.4731
16809TIP3    H171918   5.055   4.697   0.469 -1.1434 -0.8477  0.4267
16809TIP3    H271919   5.202   4.676   0.497 -0.7180 -0.5087 -1.4956
16810TIP3   OH271920   1.816   2.897  17.231  0.1717 -0.4820 -0.2435
16810TIP3    H171921   1.861   2.814  17.217  0.8617  0.0163 -1.0451
16810TIP3    H271922   1.886   2.959  17.251 -0.4957 -0.4544  2.1854
16811TIP3   OH271923   0.714   2.600   1.101 -0.5543 -0.5417 -0.0658
16811TIP3    H171924   0.711   2.555   1.185 -0.6224 -0.8753 -0.2455
16811TIP3    H271925   0.623   2.618   1.080 -0.4580  0.7292  0.5640
16812TIP3   OH271926   4.496   3.468  10.599  0.0923  0.0805  0.1680
16812TIP3    H171927   4.560   3.425  10.656  0.1151 -0.6333 -0.3824
16812TIP3    H271928   4.499   3.560  10.624  0.9685 -0.0342  0.4955
16813TIP3   OH271929   6.591   3.507   3.257 -0.5233  0.1025 -0.1684
16813TIP3    H171930   6.503   3.483   3.287  0.3199 -0.4098  1.9988
16813TIP3    H271931   6.604   3.596   3.290  0.8739 -0.9038  2.1098
16814TIP3   OH271932   5.275   6.421   3.442 -0.6961  0.4068 -0.5509
16814TIP3    H171933   5.220   6.493   3.471 -0.6217  0.4345 -0.4800
16814TIP3    H271934   5.298   6.443   3.352  1.5883  1.8378  0.3434
16815TIP3   OH271935   3.810   5.451  14.109 -0.3796 -0.3190  0.3617
16815TIP3    H171936   3.801   5.507  14.187 -1.9843 -2.9989  2.2036
16815TIP3    H271937   3.723   5.452  14.069  0.0653 -0.1036 -0.5990
16816TIP3   OH271938   2.214   3.461   1.668  0.4633 -0.2227 -0.0227
16816TIP3    H171939   2.285   3.437   1.608 -0.3609  0.5070 -1.3284
16816TIP3    H271940   2.157   3.516   1.615 -1.0001 -0.6828  1.0566
16817TIP3   OH271941   5.022   2.587  13.444  0.0991  0.8193 -0.1980
16817TIP3    H171942   5.036   2.662  13.503 -0.5333  1.1009 -0.3975
16817TIP3    H271943   5.099   2.586  13.388 -0.4285  2.0498 -0.9706
16818TIP3   OH271944   5.576   0.974  13.180 -0.4996 -0.5438  0.6988
16818TIP3    H171945   5.631   0.980  13.258 -2.4750 -1.0438  2.1800
16818TIP3    H271946   5.549   1.064  13.164  0.8382 -0.2729 -0.1266
16819TIP3   OH271947   5.274   2.639   3.853  0.0490 -0.0762 -0.0546
16819TIP3    H171948   5.237   2.558   3.886  0.1889 -0.4711 -0.8509
16819TIP3    H271949   5.356   2.650   3.902  0.4623 -0.8694 -0.5603
16820TIP3   OH271950   2.462   4.447  15.805 -0.5968  0.1355  0.1435
16820TIP3    H171951   2.485   4.374  15.863 -0.2246 -0.1872 -0.4049
16820TIP3    H271952   2.452   4.407  15.719  0.5150  0.8625 -0.3417
16821TIP3   OH271953   6.254   2.005   0.579 -0.1476  0.8764  0.1929
16821TIP3    H171954   6.315   2.031   0.648  2.0829  1.8328 -2.0846
16821TIP3    H271955   6.181   1.963   0.626  2.2719 -0.3743  2.9678
16822TIP3   OH271956   5.633   2.827  13.849 -0.5820 -0.0459 -0.4327
16822TIP3    H171957   5.542   2.829  13.879 -0.5105 -0.7956 -0.1446
16822TIP3    H271958   5.677   2.768  13.910 -0.5549 -2.0550 -2.3270
16823TIP3   OH271959   5.281   3.424   1.739 -0.0709  0.5571  0.0384
16823TIP3    H171960   5.186   3.417   1.734 -0.1405  2.4934 -2.0320
16823TIP3    H271961   5.296   3.491   1.806 -0.0999 -0.7684  1.3946
16824TIP3   OH271962   1.825   4.453   1.414 -0.1275 -0.0133 -0.4791
16824TIP3    H171963   1.878   4.521   1.373 -2.2822  1.3480 -1.1125
16824TIP3    H271964   1.812   4.388   1.345  0.2073 -0.0485 -0.5095
16825TIP3   OH271965   1.542   3.671   5.696 -0.3339 -0.1864  0.2578
16825TIP3    H171966   1.591   3.601   5.652 -0.4000 -0.0682 -0.0035
16825TIP3    H271967   1.578   3.672   5.785 -0.1018 -0.3317  0.1681
16826TIP3   OH271968   1.938   1.252   1.124 -0.4630  0.1029 -0.0121
16826TIP3    H171969   1.892   1.330   1.155  1.9784  2.1815 -1.4223
16826TIP3    H271970   2.030   1.278   1.121  0.7006 -3.5666  1.5824
16827TIP3   OH271971   1.567   6.646   6.672 -0.6667 -0.2526 -0.0321
16827TIP3    H171972   1.527   6.590   6.739 -0.4276  1.5812  1.6593
16827TIP3    H271973   1.522   6.729   6.679  1.5691  0.9890  0.0449
16828TIP3   OH271974   5.759   5.738  12.739  0.1394 -0.3745  0.7810
16828TIP3    H171975   5.783   5.647  12.723  1.0458  0.2277 -1.4747
16828TIP3    H271976   5.827   5.788  12.694 -0.7603  1.4183  1.3904
16829TIP3   OH271977   1.330   6.427   0.490  0.5529  0.6336 -0.7126
16829TIP3    H171978   1.281   6.478   0.426 -0.1604  0.5870 -0.2144
16829TIP3    H271979   1.383   6.366   0.438  1.4028  1.8627 -1.3067
16830TIP3   OH271980   4.891   2.619  17.212  0.1321  0.3210 -0.0109
16830TIP3    H171981   4.895   2.634  17.306 -1.8896  1.3201 -0.0550
16830TIP3    H271982   4.815   2.561  17.199  0.0660  0.6182 -1.0631
16831TIP3   OH271983   1.595   0.287   1.859 -0.1061 -0.8758  0.6404
16831TIP3    H171984   1.571   0.306   1.949 -0.3039  1.6618  0.0745
16831TIP3    H271985   1.522   0.322   1.807  0.5891 -1.2100 -0.5819
16832TIP3   OH271986   1.382   0.950  15.473  0.4573 -0.3663  0.5236
16832TIP3    H171987   1.416   1.029  15.515  1.3368  0.0273 -0.9218
16832TIP3    H271988   1.287   0.954  15.487  0.6141  0.4031  1.3590
16833TIP3   OH271989   0.045   5.652   1.375  0.0195  0.1066 -0.0540
16833TIP3    H171990   0.035   5.633   1.281 -1.5065  2.0673 -0.3255
16833TIP3    H271991   0.114   5.719   1.378 -0.3689  0.5043  0.1406
16834TIP3   OH271992   6.101   4.749  16.570 -0.7298 -0.4766  0.2447
16834TIP3    H171993   6.111   4.815  16.501 -1.4709 -0.1217  0.4654
16834TIP3    H271994   6.059   4.797  16.642 -0.7241 -1.0498  0.6293
16835TIP3   OH271995   1.609   1.074   5.664  0.1885  0.0715  0.6202
16835TIP3    H171996   1.683   1.118   5.621 -0.2134  1.5584  1.4024
16835TIP3    H271997   1.582   1.007   5.602  2.0776 -0.3714  0.2277
16836TIP3   OH271998   3.870   4.462   0.782 -0.4254  0.1509 -0.7893
16836TIP3    H171999   3.920   4.390   0.822  1.1859  1.0729 -1.1025
16836TIP3    H272000   3.802   4.481   0.846  0.2841 -0.4173  0.1562
16837TIP3   OH272001   1.937   4.793   5.425 -0.2451 -0.3237 -0.0980
16837TIP3    H172002   1.937   4.706   5.466  0.9414 -0.4555 -0.3568
16837TIP3    H272003   1.848   4.826   5.439  0.1586 -0.3092  2.7147
16838TIP3   OH272004   1.297   3.527   3.680  0.4644  0.1588 -0.1605
16838TIP3    H172005   1.279   3.613   3.642 -0.8204 -1.4873 -3.5513
16838TIP3    H272006   1.380   3.500   3.641  0.4941 -0.4476  0.3110
16839TIP3   OH272007   6.033   6.485   2.718  0.5507  0.9418 -0.0347
16839TIP3    H172008   6.122   6.519   2.710  1.1258 -0.7892 -1.0910
16839TIP3    H272009   5.987   6.520   2.641  0.9342 -0.0493 -0.7121
16840TIP3   OH272010   4.951   2.426   4.339 -0.3508  0.0392 -0.4319
16840TIP3    H172011   4.936   2.428   4.433  0.4999 -2.2069 -0.2170
16840TIP3    H272012   5.046   2.426   4.330 -0.4206 -0.7122 -1.2413
16841TIP3   OH272013   4.883   5.802   2.552  0.2007  0.5396  0.0634
16841TIP3    H172014   4.835   5.879   2.521 -0.5168 -0.0307 -0.2617
16841TIP3    H272015   4.831   5.768   2.623 -0.0857 -0.3122 -0.5474
16842TIP3   OH272016   2.123   1.297  13.765 -0.3459 -0.4647  0.3429
16842TIP3    H172017   2.075   1.369  13.806 -0.2123 -1.2123  1.8645
16842TIP3    H272018   2.212   1.306  13.799 -0.9793 -3.0374  2.9016
16843TIP3   OH272019   0.452   5.738  15.409 -0.4053  0.0690 -0.1342
16843TIP3    H172020   0.504   5.797  15.354  0.3406 -1.2734 -0.8775
16843TIP3    H272021   0.510   5.716  15.482  0.5488 -2.4053 -1.5946
16844TIP3   OH272022   1.015   4.185   3.492 -0.6321 -0.3377 -0.0817
16844TIP3    H172023   1.020   4.277   3.465  0.3619 -0.1618  0.6879
16844TIP3    H272024   1.050   4.137   3.417 -2.0152 -0.1655 -0.8565
16845TIP3   OH272025   0.515   6.531  13.859 -0.4085  0.0628  0.5296
16845TIP3    H172026   0.533   6.585  13.783  0.7479 -1.2368 -0.1402
16845TIP3    H272027   0.601   6.500  13.889 -0.9469 -0.5011  1.5624
16846TIP3   OH272028   1.022   2.639  14.027  0.7295  0.3226  0.3591
16846TIP3    H172029   0.951   2.587  13.988  2.8165 -2.6097  0.2342
16846TIP3    H272030   1.058   2.688  13.953  0.1563  0.2249  0.0094
16847TIP3   OH272031   1.055   1.556   5.367 -0.1837  0.1783  0.0733
16847TIP3    H172032   0.960   1.545   5.373 -0.2156  0.2004 -0.3899
16847TIP3    H272033   1.067   1.633   5.311  0.1407 -1.1931 -1.7950
16848TIP3   OH272034   3.687   4.648  16.707  0.3689 -0.3754  0.1831
16848TIP3    H172035   3.723   4.560  16.715  1.7060  0.1005 -0.5997
16848TIP3    H272036   3.600   4.641  16.748 -1.3446 -3.1283 -3.6214
16849TIP3   OH272037   1.760   4.783   3.800 -0.6711 -0.6402  0.0644
16849TIP3    H172038   1.815   4.788   3.879 -0.0121  0.2212 -0.4397
16849TIP3    H272039   1.674   4.816   3.829  0.0336  1.3170  0.0234
16850TIP3   OH272040   5.825   1.354  16.068 -0.5408  0.2219  0.2162
16850TIP3    H172041   5.800   1.438  16.028 -2.0622  0.5753  1.8326
16850TIP3    H272042   5.742   1.306  16.075 -0.0838 -0.3583  1.6939
16851TIP3   OH272043   2.438   3.802   5.191  0.4910 -0.3191  0.2594
16851TIP3    H172044   2.472   3.886   5.222  3.3316 -0.7117 -1.6271
16851TIP3    H272045   2.513   3.743   5.193 -1.1985 -2.5115  0.4484
16852TIP3   OH272046   1.826   4.162  16.176  0.4441 -0.9124  0.0100
16852TIP3    H172047   1.893   4.093  16.177  0.6226 -0.7459 -0.2813
16852TIP3    H272048   1.818   4.188  16.268  0.4118 -1.2895  0.1148
16853TIP3   OH272049   4.395   5.985   2.905 -0.0069  0.1587  0.1125
16853TIP3    H172050   4.406   5.943   2.819 -0.1125 -1.0956  0.7019
16853TIP3    H272051   4.400   6.079   2.886 -0.4812 -0.0856 -1.3329
16854TIP3   OH272052   0.926   4.456  12.047  0.0303 -0.0120 -0.3590
16854TIP3    H172053   1.006   4.464  11.996 -0.4784 -1.7722 -1.4902
16854TIP3    H272054   0.899   4.546  12.064  1.9648  0.5989 -0.3884
16855TIP3   OH272055   5.784   3.092  14.633  0.4706  0.1298 -0.1588
16855TIP3    H172056   5.738   3.040  14.698  1.5633  0.7321  1.1090
16855TIP3    H272057   5.769   3.045  14.550 -0.5748 -0.8530  0.5771
16856TIP3   OH272058   3.468   4.234   1.051  0.2188 -0.4855  0.3517
16856TIP3    H172059   3.486   4.326   1.031 -1.2465 -0.0041  1.1835
16856TIP3    H272060   3.536   4.209   1.113  0.6768  0.0140  0.0507
16857TIP3   OH272061   4.293   6.271   5.809 -0.0343  0.2048 -0.1619
16857TIP3    H172062   4.198   6.264   5.819 -0.3607  0.2503 -2.8057
16857TIP3    H272063   4.314   6.360   5.837 -0.8806  0.4199 -0.2117
16858TIP3   OH272064   0.598   1.510   3.239  0.3038  0.0723  0.0620
16858TIP3    H172065   0.617   1.549   3.154  1.9701 -0.9352 -0.0485
16858TIP3    H272066   0.591   1.417   3.222  0.7228 -0.1435  1.0455
16859TIP3   OH272067   2.031   4.469   6.171  0.0265 -0.3358  0.4396
16859TIP3    H172068   2.013   4.416   6.093 -0.9855 -0.0706  0.4878
16859TIP3    H272069   2.063   4.406   6.236 -4.1871 -1.4805  1.5584
16860TIP3   OH272070   1.530   0.708  12.207  0.3797 -0.6569  0.0644
16860TIP3    H172071   1.567   0.673  12.127  1.7649 -1.2092  0.9194
16860TIP3    H272072   1.566   0.652  12.276 -1.2080 -0.5216  1.0178
16861TIP3   OH272073   2.625   2.982  14.919  0.1777  0.6720 -0.0611
16861TIP3    H172074   2.637   2.887  14.925 -0.8730  0.2652 -3.4485
16861TIP3    H272075   2.707   3.013  14.881 -0.0838  0.9224 -0.4195
16862TIP3   OH272076   3.205   3.977  10.892 -0.5317  0.1112 -0.3658
16862TIP3    H172077   3.215   3.883  10.873 -0.4325  0.0019  0.2142
16862TIP3    H272078   3.162   3.979  10.978 -1.2676  0.5965 -0.7449
16863TIP3   OH272079   5.444   3.765  15.960  0.0548  0.3529 -0.6273
16863TIP3    H172080   5.423   3.810  16.041 -0.7067 -1.0943 -0.0113
16863TIP3    H272081   5.475   3.834  15.901 -0.3269  1.5423  0.5638
16864TIP3   OH272082   6.589   5.402   0.133  0.5283 -0.3270  0.6776
16864TIP3    H172083   6.604   5.322   0.083  0.1656  0.5962 -0.9341
16864TIP3    H272084   6.655   5.464   0.100 -0.8373  0.8453  0.0914
16865TIP3   OH272085   0.725   6.353   4.769  0.2539  0.1437  0.0555
16865TIP3    H172086   0.667   6.356   4.693  2.3522 -0.7057 -1.6447
16865TIP3    H272087   0.741   6.444   4.792 -0.3644  0.3995 -0.5348
16866TIP3   OH272088   1.405   4.026  15.079  1.0252 -0.2478 -0.1256
16866TIP3    H172089   1.323   4.074  15.089  0.8197 -0.3939 -1.0834
16866TIP3    H272090   1.384   3.953  15.021  1.9126 -0.1121 -0.6269
16867TIP3   OH272091   6.508   6.736  14.202 -0.1076  0.1716 -0.3210
16867TIP3    H172092   6.566   6.739  14.278  0.1729  2.1983 -0.5846
16867TIP3    H272093   6.518   6.647  14.168  1.2470 -0.1551  0.8751
16868TIP3   OH272094   0.650   6.535   3.282 -0.6304 -0.2872  0.1820
16868TIP3    H172095   0.656   6.524   3.376 -1.1889  0.1605  0.2761
16868TIP3    H272096   0.565   6.498   3.258 -1.0804  0.8029  0.0509
16869TIP3   OH272097   4.960   4.323  11.811  0.5404  0.4548  0.0915
16869TIP3    H172098   4.879   4.277  11.788  0.7285 -1.1571  2.3664
16869TIP3    H272099   5.029   4.257  11.799  1.0675  0.7221  1.5130
16870TIP3   OH272100   1.666   3.417   3.783  0.0826  0.0751  0.3074
16870TIP3    H172101   1.631   3.448   3.699  1.7792 -1.1131 -0.8808
16870TIP3    H272102   1.757   3.395   3.764  0.0720 -1.6629  2.1080
16871TIP3   OH272103   2.527   5.101   5.479 -0.2316 -0.8371 -0.0294
16871TIP3    H172104   2.606   5.132   5.523 -0.7993  1.4754 -0.5798
16871TIP3    H272105   2.457   5.118   5.542 -0.5851 -0.7684 -0.4415
16872TIP3   OH272106   3.880   3.791  13.039  0.0722  0.2732  0.4918
16872TIP3    H172107   3.785   3.788  13.027  0.1195 -0.5244  0.2910
16872TIP3    H272108   3.892   3.845  13.117 -0.6216 -0.8473  1.3881
16873TIP3   OH272109   0.974   3.967  11.241  0.1201  0.0447 -0.2239
16873TIP3    H172110   0.947   4.011  11.160 -0.2469  2.0196  0.9491
16873TIP3    H272111   0.894   3.961  11.293 -0.1167 -3.2273 -0.8895
16874TIP3   OH272112   2.870   5.025   4.328  0.3023 -0.0973 -0.1293
16874TIP3    H172113   2.943   4.973   4.360  0.6539  0.9130  0.7549
16874TIP3    H272114   2.811   4.962   4.288  0.7675 -1.1648  0.8395
16875TIP3   OH272115   3.822   2.716   1.302 -0.1314 -0.3459  0.8879
16875TIP3    H172116   3.781   2.633   1.276  2.2724 -0.9246 -1.3429
16875TIP3    H272117   3.794   2.779   1.236  0.3270 -0.0646  0.9592
16876TIP3   OH272118   1.224   3.335   1.482 -0.4677 -0.3912  0.4122
16876TIP3    H172119   1.214   3.430   1.487 -0.4167 -0.4534  1.6282
16876TIP3    H272120   1.235   3.306   1.572  0.2456 -1.4796 -0.0078
16877TIP3   OH272121   2.794   5.132  13.478  0.3136  0.3060  0.1949
16877TIP3    H172122   2.708   5.137  13.438  1.2639  6.3638 -1.6867
16877TIP3    H272123   2.780   5.158  13.569  0.0923  1.3382 -0.1229
16878TIP3   OH272124   1.315   3.236   0.712 -0.0850 -0.3085 -0.2072
16878TIP3    H172125   1.355   3.317   0.743 -1.1926  0.3122 -0.3789
16878TIP3    H272126   1.288   3.255   0.622 -1.7778 -0.3361  0.2758
16879TIP3   OH272127   2.009   5.908  10.813 -0.3786  0.0263 -0.3098
16879TIP3    H172128   1.928   5.943  10.777 -1.0585 -2.8204 -1.7480
16879TIP3    H272129   1.981   5.836  10.870  1.0778 -0.4028 -0.1035
16880TIP3   OH272130   4.110   4.903  13.424  0.3557 -0.4872 -0.5351
16880TIP3    H172131   4.131   4.940  13.339 -2.0569 -1.4716 -1.5888
16880TIP3    H272132   4.111   4.808  13.410 -2.3300 -0.6219 -0.0792
16881TIP3   OH272133   3.458   2.148  12.448  0.3632 -0.2153  0.3005
16881TIP3    H172134   3.484   2.101  12.528  0.7369  0.5571  0.6372
16881TIP3    H272135   3.526   2.214  12.437  1.0178 -1.1519 -1.3837
16882TIP3   OH272136   6.255   0.519   4.229  0.6411  0.0480 -0.0526
16882TIP3    H172137   6.216   0.456   4.169 -2.7408  2.3798 -0.4498
16882TIP3    H272138   6.261   0.600   4.178  1.2167  1.0911  1.6228
16883TIP3   OH272139   0.592   1.340   3.977 -0.1253 -0.2902  0.0678
16883TIP3    H172140   0.651   1.348   3.902  0.4819  1.2604  0.7008
16883TIP3    H272141   0.567   1.247   3.977  1.0549 -0.6308 -1.1461
16884TIP3   OH272142   4.306   4.444  14.241  0.4868 -0.5000  0.4594
16884TIP3    H172143   4.316   4.438  14.336 -0.8816 -1.0031  0.5931
16884TIP3    H272144   4.220   4.483  14.228 -0.2719 -2.4033 -0.5518
16885TIP3   OH272145   3.642   6.769   3.882  0.7678 -0.2268 -0.4119
16885TIP3    H172146   3.598   6.718   3.813 -0.6422 -0.4518  0.6356
16885TIP3    H272147   3.704   6.708   3.921 -0.2927 -0.8957  0.2509
16886TIP3   OH272148   4.013   3.645  11.127  0.4330  0.1218  0.2502
16886TIP3    H172149   4.030   3.668  11.035  0.3875 -0.4237  0.1068
16886TIP3    H272150   4.012   3.730  11.172 -1.8012  0.6139 -0.6196
16887TIP3   OH272151   4.820   5.236   5.153 -0.3049  0.3016  0.1785
16887TIP3    H172152   4.862   5.163   5.198 -1.9574 -0.9846 -0.3123
16887TIP3    H272153   4.889   5.275   5.100  0.8608 -0.2288  1.3007
16888TIP3   OH272154   1.498   6.455   0.080 -0.5415 -0.3202 -0.3384
16888TIP3    H172155   1.433   6.463   0.011 -2.4264 -0.0264  1.4289
16888TIP3    H272156   1.506   6.543   0.116 -0.7669 -0.7797  0.8632
16889TIP3   OH272157   0.923   2.460   5.464 -0.2633 -0.0435 -0.2927
16889TIP3    H172158   0.920   2.505   5.380 -1.2200  2.0075  0.8098
16889TIP3    H272159   0.901   2.369   5.443  1.2478  0.0780 -2.4844
16890TIP3   OH272160   3.993   1.993   0.938  0.4050  0.2889 -0.2814
16890TIP3    H172161   4.025   2.058   0.876  0.6945 -1.1277 -1.6468
16890TIP3    H272162   4.072   1.966   0.987  0.2343  1.1613  0.4868
16891TIP3   OH272163   2.169   4.385   3.520  0.3975 -0.2084  0.4238
16891TIP3    H172164   2.110   4.401   3.446  2.1890  0.4284 -0.9148
16891TIP3    H272165   2.257   4.399   3.484  1.3393 -0.4096  2.5512
16892TIP3   OH272166   1.677   1.828  12.318  0.1686  0.2125  0.0578
16892TIP3    H172167   1.768   1.825  12.348 -0.0252 -0.2803  0.6072
16892TIP3    H272168   1.631   1.765  12.374 -0.5776  0.7098  0.0151
16893TIP3   OH272169   0.910   4.826  14.633 -0.6143 -0.0667 -0.8132
16893TIP3    H172170   0.925   4.732  14.621 -0.3908 -0.1947  0.4543
16893TIP3    H272171   0.984   4.868  14.588 -0.1223 -0.5277 -0.4335
16894TIP3   OH272172   0.185   5.600  16.727  0.2856 -0.0365 -0.4292
16894TIP3    H172173   0.218   5.690  16.716 -0.0044  0.0127 -0.8793
16894TIP3    H272174   0.102   5.611  16.774  0.3689 -0.0889 -0.2687
16895TIP3   OH272175   3.080   6.560  14.211  0.1194 -0.2236  0.0066
16895TIP3    H172176   3.018   6.514  14.268 -0.5167  0.7416  0.1096
16895TIP3    H272177   3.043   6.648  14.201  2.5231  1.0404  1.7365
16896TIP3   OH272178   6.597   4.196  12.088 -0.0123  0.0962  0.3866
16896TIP3    H172179   6.692   4.204  12.100 -0.2420  1.6993  1.1121
16896TIP3    H272180   6.560   4.270  12.135 -1.4951  0.8608 -1.9073
16897TIP3   OH272181   1.682   4.758  12.738  0.1965  0.0914  0.2943
16897TIP3    H172182   1.687   4.851  12.759 -1.0549  0.0965  0.5890
16897TIP3    H272183   1.732   4.715  12.808  0.3495  0.4956  0.4368
16898TIP3   OH272184   2.520   2.705  16.144 -0.3049  0.2475 -0.0747
16898TIP3    H172185   2.436   2.750  16.135 -0.1254  0.6876  0.4214
16898TIP3    H272186   2.541   2.712  16.238  0.1498 -0.1023 -0.1478
16899TIP3   OH272187   0.007   4.170   4.563  0.1884  0.4196  0.2483
16899TIP3    H172188   0.096   4.148   4.591  0.5462  0.3247 -0.9030
16899TIP3    H272189   0.011   4.263   4.539  0.2474  0.1689 -0.7619
16900TIP3   OH272190   2.921   0.811  12.708  0.1110 -0.2140 -0.0658
16900TIP3    H172191   2.923   0.907  12.702  1.2704 -0.1517  0.9927
16900TIP3    H272192   2.869   0.793  12.786 -0.1885 -0.4496 -0.3209
16901TIP3   OH272193   1.129   1.414  14.275 -0.0085 -0.2375 -0.6030
16901TIP3    H172194   1.215   1.442  14.308  0.2479 -1.1709 -0.4818
16901TIP3    H272195   1.147   1.339  14.219 -1.0303 -2.4976  1.9656
16902TIP3   OH272196   5.065   2.320  12.634 -0.0272 -0.3449 -0.2157
16902TIP3    H172197   5.036   2.243  12.586  0.9864  0.2063 -1.7619
16902TIP3    H272198   5.155   2.335  12.604  0.0620  0.9746  0.6411
16903TIP3   OH272199   6.460   1.103   1.929  0.8041 -0.0128  0.3966
16903TIP3    H172200   6.423   1.043   1.994 -0.4833 -0.1858 -0.4793
16903TIP3    H272201   6.508   1.046   1.869 -1.8083 -0.4249 -1.4014
16904TIP3   OH272202   6.486   4.640  14.751  0.3810 -0.6544 -0.1166
16904TIP3    H172203   6.399   4.607  14.771 -0.3030 -1.0712 -3.4991
16904TIP3    H272204   6.537   4.562  14.728  1.8215 -0.4655  2.2491
16905TIP3   OH272205   4.621   4.817   2.256  0.4160  0.1013 -0.3410
16905TIP3    H172206   4.713   4.791   2.262  0.6655  1.0126 -0.0909
16905TIP3    H272207   4.578   4.745   2.208  1.3488 -0.0875 -0.8980
16906TIP3   OH272208   3.092   5.554   1.588  0.1610  0.4224 -0.1152
16906TIP3    H172209   3.030   5.485   1.613  0.2611  0.0141 -0.9759
16906TIP3    H272210   3.060   5.632   1.633 -0.2345 -0.0721  0.4801
16907TIP3   OH272211   2.576   1.439   4.045  0.7557  0.0850 -0.1328
16907TIP3    H172212   2.575   1.526   4.085 -0.0937  1.2176 -2.5088
16907TIP3    H272213   2.535   1.382   4.110 -0.8225  1.9030  0.4914
16908TIP3   OH272214   1.998   5.150   5.715  0.1624  0.1563 -0.3818
16908TIP3    H172215   1.939   5.206   5.765  0.5679  0.3104 -0.0794
16908TIP3    H272216   1.981   5.062   5.749  1.4291  0.4270  1.0141
16909TIP3   OH272217   1.620   3.836  14.429  0.2910 -0.1104  0.1137
16909TIP3    H172218   1.664   3.919  14.445 -1.5605  1.2675 -1.5860
16909TIP3    H272219   1.628   3.788  14.511  0.2368  2.3051  1.5779
16910TIP3   OH272220   1.645   4.867   5.544  0.4710  1.1168 -0.5072
16910TIP3    H172221   1.658   4.960   5.563 -1.5917  1.4477 -0.5181
16910TIP3    H272222   1.669   4.822   5.625 -1.1487  1.9162  0.4528
16911TIP3   OH272223   2.821   4.502   2.753  0.2008  0.5788 -0.2277
16911TIP3    H172224   2.745   4.559   2.741  0.0410  0.5465  0.6492
16911TIP3    H272225   2.852   4.522   2.841  1.8814  1.4015 -0.9854
16912TIP3   OH272226   5.587   1.153   1.058  0.4741  0.3340 -0.2117
16912TIP3    H172227   5.507   1.132   1.011  0.2473  0.1142  0.2656
16912TIP3    H272228   5.635   1.070   1.062  0.9859  0.5870 -0.9833
16913TIP3   OH272229   3.698   2.766  12.050  0.4997 -0.3350  0.0136
16913TIP3    H172230   3.642   2.742  12.124 -0.8876  1.1621 -0.5281
16913TIP3    H272231   3.648   2.832  12.002  1.1761 -1.6205 -2.5388
16914TIP3   OH272232   3.835   2.324  11.884 -0.5309  0.0633 -0.0417
16914TIP3    H172233   3.925   2.307  11.859 -0.7767 -1.0953 -0.1468
16914TIP3    H272234   3.840   2.404  11.937  0.4281  0.5183 -0.8043
16915TIP3   OH272235   2.648   6.722  12.658  0.1857  0.1213  0.5102
16915TIP3    H172236   2.607   6.806  12.680  1.3069  1.1983 -1.3987
16915TIP3    H272237   2.590   6.684  12.592 -0.0538 -0.3795  1.0075
16916TIP3   OH272238   1.162   0.069  12.671  0.9794  0.3074 -0.3679
16916TIP3    H172239   1.140   0.162  12.677  0.5021  0.2602 -1.2907
16916TIP3    H272240   1.120   0.029  12.746  0.8589  0.7785 -0.1824
16917TIP3   OH272241   5.946   1.376   0.600  0.1161 -0.2938 -0.7391
16917TIP3    H172242   5.985   1.328   0.527 -0.1355  0.4281 -1.3535
16917TIP3    H272243   6.000   1.454   0.608  1.0441 -1.0750  0.8056
16918TIP3   OH272244   2.163   2.387  16.521  0.3045  0.0794  0.2229
16918TIP3    H172245   2.157   2.437  16.602  0.0906  0.3765  0.0291
16918TIP3    H272246   2.253   2.401  16.491  0.5875 -0.5990  0.7690
16919TIP3   OH272247   4.006   6.224  13.327  0.1418 -0.1040  0.6250
16919TIP3    H172248   3.962   6.309  13.321  0.2650 -0.1205 -0.8538
16919TIP3    H272249   4.081   6.239  13.384  0.2221  0.8169  0.2801
16920TIP3   OH272250   1.292   2.518  11.752  1.1402 -0.6032 -0.7503
16920TIP3    H172251   1.295   2.460  11.676  0.2105  0.0012 -1.2684
16920TIP3    H272252   1.295   2.460  11.828 -0.1991 -1.3553 -1.2562
16921TIP3   OH272253   2.963   2.540   4.270  0.1283  0.3063 -0.3421
16921TIP3    H172254   2.955   2.448   4.294 -3.9989  0.6526  0.1044
16921TIP3    H272255   2.924   2.587   4.345  0.4528  2.2734 -1.3743
16922TIP3   OH272256   4.028   4.100  16.989  0.0927 -0.5280 -0.2174
16922TIP3    H172257   3.953   4.098  16.930  1.2753  1.2306 -1.8715
16922TIP3    H272258   4.011   4.175  17.046  1.0357  0.5175 -1.2733
16923TIP3   OH272259   4.636   4.500   4.221 -0.2838  0.0122 -0.3454
16923TIP3    H172260   4.707   4.531   4.277 -0.7811  2.2045 -0.8732
16923TIP3    H272261   4.563   4.485   4.281 -0.5305  1.4621 -0.2709
16924TIP3   OH272262   1.557   2.375   0.799  0.1982  0.8186  0.0544
16924TIP3    H172263   1.620   2.436   0.837  0.3029  0.3148  0.7109
16924TIP3    H272264   1.487   2.369   0.864  0.0404  0.4845 -0.1447
16925TIP3   OH272265   1.930   1.945  15.973 -0.4341  0.8347 -0.1007
16925TIP3    H172266   1.875   2.024  15.976 -2.5574 -0.6088  0.1385
16925TIP3    H272267   1.905   1.902  15.891 -0.2542 -0.2463  0.4031
16926TIP3   OH272268   0.913   3.300   3.275 -0.4426 -0.4907  0.8411
16926TIP3    H172269   0.956   3.303   3.190 -1.7767 -1.3557  0.1141
16926TIP3    H272270   0.982   3.280   3.337  0.4054 -0.6377 -0.1456
16927TIP3   OH272271   6.339   5.629  15.987 -0.4137 -0.1700 -0.2897
16927TIP3    H172272   6.406   5.574  15.946 -0.2620  0.9398 -1.5442
16927TIP3    H272273   6.311   5.689  15.918  0.3086  2.1640  1.3846
16928TIP3   OH272274   0.243   2.249   5.315 -0.2820 -0.3527  0.3882
16928TIP3    H172275   0.258   2.220   5.405 -1.4499  0.4744  0.8669
16928TIP3    H272276   0.261   2.172   5.262 -0.1913 -1.0343  1.3874
16929TIP3   OH272277   5.229   0.004  15.935 -0.1193  0.1133 -0.1748
16929TIP3    H172278   5.268  -0.070  15.981 -1.9381 -0.6215  0.2125
16929TIP3    H272279   5.184   0.054  16.002  0.0504  0.8935 -0.6339
16930TIP3   OH272280   4.991   4.893  14.848  0.1938  0.6331  0.4710
16930TIP3    H172281   5.070   4.845  14.824  0.0686  0.4541  0.4145
16930TIP3    H272282   4.998   4.906  14.942  0.8148  1.5793  0.2909
16931TIP3   OH272283   5.733   1.832  15.354  0.5214 -0.0719  0.0474
16931TIP3    H172284   5.804   1.770  15.335  1.0573  0.6853 -0.4343
16931TIP3    H272285   5.663   1.808  15.294  1.0232  0.2956 -0.6843
16932TIP3   OH272286   6.583   0.953   2.277  0.1484 -0.3885 -0.5626
16932TIP3    H172287   6.594   0.901   2.356  1.1340  0.7012  0.0363
16932TIP3    H272288   6.619   0.898   2.207 -0.5231 -1.2591 -0.2305
16933TIP3   OH272289   1.959   2.302  11.809 -0.0966  0.1669  0.4272
16933TIP3    H172290   2.041   2.350  11.813  0.1870 -0.1321 -1.3573
16933TIP3    H272291   1.971   2.228  11.868 -0.4257  2.0725  2.9657
16934TIP3   OH272292   3.207   1.723  11.753 -0.2725 -0.6795  0.5683
16934TIP3    H172293   3.201   1.818  11.746  0.9818 -0.6852 -1.0795
16934TIP3    H272294   3.186   1.704  11.844 -0.6790  1.1630  0.8834
16935TIP3   OH272295   6.729   5.040  14.193  0.3453 -0.2982  0.0889
16935TIP3    H172296   6.768   5.059  14.279 -0.7281 -0.5923  0.6413
16935TIP3    H272297   6.696   5.125  14.164  1.7862  0.0521 -0.5943
16936TIP3   OH272298   3.543   1.428  12.779 -0.5130 -0.2856 -0.2389
16936TIP3    H172299   3.523   1.501  12.721 -0.1499  0.2638  0.3192
16936TIP3    H272300   3.572   1.358  12.721  1.3026  0.7399 -0.6334
16937TIP3   OH272301   4.866   0.963  16.358 -0.3354 -0.2716  0.1665
16937TIP3    H172302   4.860   1.058  16.347  1.1200 -0.3293 -1.4459
16937TIP3    H272303   4.779   0.930  16.335 -0.7700  0.6384  0.4929
16938TIP3   OH272304   3.271   3.194   5.358  0.3004  0.6395  0.2764
16938TIP3    H172305   3.352   3.208   5.407  0.3599 -0.3567  0.4844
16938TIP3    H272306   3.282   3.107   5.319 -0.4352  0.7361 -0.1492
16939TIP3   OH272307   5.970   2.661   5.304 -0.1799 -0.1266  0.1010
16939TIP3    H172308   6.042   2.615   5.348  0.2085  1.2595  0.9471
16939TIP3    H272309   5.990   2.753   5.315 -0.7802  0.2578 -1.8789
16940TIP3   OH272310   5.367   0.634   3.007 -0.4700 -0.0445  0.0858
16940TIP3    H172311   5.312   0.607   3.080  0.3699  0.3657  0.8806
16940TIP3    H272312   5.310   0.687   2.951 -1.7150 -2.1665 -0.6983
16941TIP3   OH272313   3.778   2.041   3.862 -0.3532  0.0847  0.5245
16941TIP3    H172314   3.741   2.074   3.781  1.3811 -1.3358 -0.8849
16941TIP3    H272315   3.811   2.119   3.907 -2.2640  0.9920  0.3840
16942TIP3   OH272316   3.545   4.074   1.354 -0.0193  0.6431  0.2230
16942TIP3    H172317   3.566   4.155   1.309 -1.5277  1.3434  0.7352
16942TIP3    H272318   3.483   4.100   1.422  0.7922 -0.6769  1.5060
16943TIP3   OH272319   3.914   5.967  16.336 -0.3505 -0.0014  0.2086
16943TIP3    H172320   3.898   5.880  16.372  0.7588  0.2475  1.3484
16943TIP3    H272321   3.845   6.022  16.374  0.2789  0.0725  1.2509
16944TIP3   OH272322   1.580   1.354  16.143 -0.2879  0.1988 -0.0344
16944TIP3    H172323   1.642   1.366  16.072  1.9288  0.3727  1.8857
16944TIP3    H272324   1.538   1.269  16.126  2.7160 -1.3989  0.2851
16945TIP3   OH272325   0.684   5.692  14.400 -0.0756  0.1328  0.3870
16945TIP3    H172326   0.632   5.637  14.341  0.0810 -0.5618  0.8854
16945TIP3    H272327   0.735   5.630  14.451  0.4985  0.7727  0.5989
16946TIP3   OH272328   3.877   2.003  11.366 -0.3094  0.4134  0.1166
16946TIP3    H172329   3.866   1.951  11.446  0.3786  1.2616  0.7788
16946TIP3    H272330   3.790   2.005  11.326 -0.3445 -1.2416  0.0771
16947TIP3   OH272331   6.176   1.091   0.910 -0.6296  0.1313  0.3181
16947TIP3    H172332   6.217   1.176   0.892 -0.0044 -0.3776 -0.6639
16947TIP3    H272333   6.082   1.110   0.910 -0.4222  1.2707  2.4487
16948TIP3   OH272334   5.027   6.079   5.528  0.2790  0.1479  0.1006
16948TIP3    H172335   5.057   6.020   5.597 -0.1151 -0.2194 -0.0381
16948TIP3    H272336   5.100   6.084   5.466  0.9048  1.0459  0.9059
16949TIP3   OH272337   3.160   4.737   2.528 -0.2325  0.0912  0.2185
16949TIP3    H172338   3.216   4.811   2.551  1.0198 -0.8894  0.3785
16949TIP3    H272339   3.210   4.689   2.462 -0.5107 -1.2582  0.9736
16950TIP3   OH272340   3.148   5.346   4.904 -0.1856  0.0808 -0.6178
16950TIP3    H172341   3.178   5.366   4.815  1.3672  0.1080 -0.1060
16950TIP3    H272342   3.229   5.332   4.953 -1.0683 -1.6074  0.4009
16951TIP3   OH272343   2.927   4.124   1.277 -0.0154  0.3209 -0.2561
16951TIP3    H172344   2.912   4.124   1.371 -0.2497 -0.4312 -0.2911
16951TIP3    H272345   2.839   4.127   1.239 -0.0747 -3.0448 -0.4651
16952TIP3   OH272346   2.624   1.323   0.784 -0.1641  0.5353 -0.3260
16952TIP3    H172347   2.674   1.325   0.865  1.5119  1.6883 -1.3515
16952TIP3    H272348   2.578   1.239   0.786  2.9195 -1.2264  0.0296
16953TIP3   OH272349   3.176   2.810  10.608 -0.4893  0.0252  0.3246
16953TIP3    H172350   3.182   2.879  10.674  0.5546  0.5008 -0.2566
16953TIP3    H272351   3.262   2.767  10.609 -0.3677  0.2159 -0.9129
16954TIP3   OH272352   6.022   4.873   0.410  0.2818  0.2154  0.7264
16954TIP3    H172353   6.017   4.900   0.318 -1.5099  1.1374  1.0700
16954TIP3    H272354   6.084   4.933   0.450  0.5410  0.2540  0.2659
16955TIP3   OH272355   3.723   5.946   1.503 -0.0036 -0.0697 -0.5873
16955TIP3    H172356   3.768   6.025   1.532  0.2951 -0.5513  0.2909
16955TIP3    H272357   3.775   5.874   1.538 -0.9183 -0.6421 -0.3623
16956TIP3   OH272358   2.166   5.636  11.303  0.2245 -0.6001 -0.2863
16956TIP3    H172359   2.128   5.720  11.276  0.2587 -0.1681  1.0041
16956TIP3    H272360   2.234   5.618  11.237  2.1357  1.7628  0.9626
16957TIP3   OH272361   6.082   2.254  14.688 -0.0628 -0.3559 -0.2923
16957TIP3    H172362   6.176   2.246  14.672 -0.1720 -0.0566 -1.1156
16957TIP3    H272363   6.042   2.203  14.618 -0.5249 -0.0642 -0.2405
16958TIP3   OH272364   3.922   1.699  15.229 -0.3739  0.2777  0.1233
16958TIP3    H172365   3.938   1.785  15.268 -0.6518  0.2725  0.2526
16958TIP3    H272366   4.003   1.650  15.242  0.2648  0.9666 -1.1509
16959TIP3   OH272367   2.493   1.696  11.821 -0.4439  0.2458  0.2329
16959TIP3    H172368   2.421   1.673  11.762 -0.3104 -2.3841  1.0068
16959TIP3    H272369   2.479   1.641  11.899  1.7340  0.5423  0.8758
16960TIP3   OH272370   0.462   5.622   3.964  0.6789 -0.1697  0.8621
16960TIP3    H172371   0.541   5.569   3.960  0.9635  0.3780 -1.0401
16960TIP3    H272372   0.462   5.672   3.883 -1.6613 -0.2087  0.7970
16961TIP3   OH272373   6.563   4.347  15.382  0.2775 -0.2042  0.5628
16961TIP3    H172374   6.478   4.337  15.426  0.0400  0.8764  0.3529
16961TIP3    H272375   6.541   4.371  15.292  0.7691 -2.1164 -0.1070
16962TIP3   OH272376   6.021   5.525   6.222 -0.2012  0.4912  0.0330
16962TIP3    H172377   6.080   5.552   6.293 -0.5559 -0.2669  0.6217
16962TIP3    H272378   5.937   5.510   6.266 -0.3845 -0.1197 -0.5253
16963TIP3   OH272379   6.424   2.606  11.933  0.0456  0.2056 -0.3696
16963TIP3    H172380   6.400   2.534  11.875  0.4259 -0.2421  0.0282
16963TIP3    H272381   6.351   2.611  11.995 -0.3486  0.6672 -0.8678
16964TIP3   OH272382   2.307   3.793   2.564  0.2157 -0.5354  0.3020
16964TIP3    H172383   2.228   3.739   2.560  0.0553 -0.3220  0.6013
16964TIP3    H272384   2.281   3.870   2.614  0.7309 -0.6591  0.7650
16965TIP3   OH272385   1.632   4.479  11.682 -0.0712 -0.0907  0.0191
16965TIP3    H172386   1.593   4.446  11.763 -1.9230  0.7774 -0.4818
16965TIP3    H272387   1.638   4.574  11.695  0.8982 -0.0943 -0.3337
16966TIP3   OH272388   0.223   3.045  17.008  0.1194 -0.3262 -0.4652
16966TIP3    H172389   0.165   3.020  16.937 -1.2519  1.2023  0.0860
16966TIP3    H272390   0.165   3.077  17.077  1.3959 -2.3859  1.6184
16967TIP3   OH272391   3.482   1.061   6.236 -0.0373 -0.0251  0.4600
16967TIP3    H172392   3.461   1.014   6.317 -0.4557  0.6720  0.7637
16967TIP3    H272393   3.570   1.095   6.251  0.8301 -1.8690 -0.3088
16968TIP3   OH272394   6.465   4.046   5.812  0.4566 -0.4031 -0.4266
16968TIP3    H172395   6.381   4.052   5.857  0.2386 -0.1992 -0.8550
16968TIP3    H272396   6.498   3.960   5.835  0.3961 -0.2602  0.2052
16969TIP3   OH272397   2.205   6.628  15.882 -0.6874 -0.2601  0.5305
16969TIP3    H172398   2.213   6.547  15.933 -1.0764 -0.7743 -0.2140
16969TIP3    H272399   2.259   6.612  15.805  0.2114  0.6652  0.9662
16970TIP3   OH272400   3.959   4.104   4.972  0.4263 -0.7701 -0.0005
16970TIP3    H172401   3.900   4.147   5.034  0.0399 -0.6726 -0.4375
16970TIP3    H272402   4.035   4.079   5.025  1.0731  1.2960  0.0624
16971TIP3   OH272403   3.809   6.089  12.375  0.0487 -0.2164  0.0602
16971TIP3    H172404   3.811   6.121  12.285  2.0510 -0.0660  0.1243
16971TIP3    H272405   3.809   5.994  12.368 -1.0214 -0.2036 -0.1070
16972TIP3   OH272406   5.511   6.163   0.922  0.5364 -0.6149  0.0358
16972TIP3    H172407   5.568   6.185   0.996 -0.1439 -1.3159  0.7876
16972TIP3    H272408   5.447   6.102   0.959  0.1393 -0.9085 -1.1237
16973TIP3   OH272409   4.389   4.280   5.811  0.2118  0.1194 -0.1299
16973TIP3    H172410   4.392   4.358   5.866 -2.4279 -0.1953  0.4978
16973TIP3    H272411   4.418   4.310   5.725 -0.5426  1.7261  0.1690
16974TIP3   OH272412   5.403   1.579   4.441 -0.1706  0.5306 -0.4968
16974TIP3    H172413   5.366   1.623   4.365 -1.4125 -0.0573 -0.2515
16974TIP3    H272414   5.446   1.648   4.490 -2.2176  1.5310 -0.0400
16975TIP3   OH272415   0.071   4.706  10.674  0.0647 -0.7138  0.7827
16975TIP3    H172416   0.007   4.763  10.631  1.5728  0.3481 -0.1126
16975TIP3    H272417   0.019   4.631  10.705 -1.7973  0.6759  1.1426
16976TIP3   OH272418   4.900   6.060  14.015  0.1730  1.1812  0.3887
16976TIP3    H172419   4.806   6.043  14.009  0.0027  1.6739  1.4023
16976TIP3    H272420   4.905   6.144  14.060  1.0951  1.3773 -0.0811
16977TIP3   OH272421   4.924   6.288  14.153  0.1901  0.6070 -0.0560
16977TIP3    H172422   4.878   6.341  14.218 -0.7519 -1.8094  1.3072
16977TIP3    H272423   5.015   6.317  14.159 -0.1281  1.3602  1.3774
16978TIP3   OH272424   1.600   3.504  12.345  0.2030 -0.3048  0.6427
16978TIP3    H172425   1.546   3.581  12.329  1.3025 -0.0842 -2.2741
16978TIP3    H272426   1.687   3.539  12.365  0.2941 -0.7561  1.0538
16979TIP3   OH272427   6.255   6.228   3.861  0.1078 -0.7665 -0.1864
16979TIP3    H172428   6.275   6.154   3.919  1.1128 -1.1640 -1.0190
16979TIP3    H272429   6.169   6.208   3.826 -0.2932 -0.7754  0.7713
16980TIP3   OH272430   1.627   6.267   4.885  0.6028  0.0862  0.2716
16980TIP3    H172431   1.710   6.224   4.864 -0.4332 -2.2787  0.8253
16980TIP3    H272432   1.596   6.302   4.802  0.6687 -1.7467 -0.5567
16981TIP3   OH272433   3.435   0.423  13.869 -0.2687  0.1071 -0.4195
16981TIP3    H172434   3.523   0.386  13.879 -0.9239 -0.7612  2.9208
16981TIP3    H272435   3.401   0.383  13.789  1.2955 -1.8332 -0.1468
16982TIP3   OH272436   1.678   3.227  16.894  0.0770  0.0318 -0.4501
16982TIP3    H172437   1.773   3.228  16.906 -0.0638 -1.9196  1.0817
16982TIP3    H272438   1.643   3.203  16.980 -1.7821  0.2720 -1.1068
16983TIP3   OH272439   2.423   6.101  13.997  0.1899  0.1173 -0.2282
16983TIP3    H172440   2.432   6.029  13.935  1.6785 -0.5696  0.7627
16983TIP3    H272441   2.328   6.116  14.002 -0.1652 -1.9576 -0.2316
16984TIP3   OH272442   0.448   1.873  16.109  0.1824 -1.2526 -0.0733
16984TIP3    H172443   0.397   1.810  16.160 -0.1899 -0.0909  1.0091
16984TIP3    H272444   0.525   1.892  16.164 -0.1788 -0.0599  0.0249
16985TIP3   OH272445   4.466   0.051  15.677 -0.3812 -0.0469 -0.1934
16985TIP3    H172446   4.426   0.034  15.592 -0.0658 -0.7383 -0.2085
16985TIP3    H272447   4.543  -0.006  15.680 -0.0978  0.3477  0.3455
16986TIP3   OH272448   2.509   1.099  13.812 -0.3921  0.4327 -0.4839
16986TIP3    H172449   2.536   1.164  13.878 -0.4867  0.8812 -0.8789
16986TIP3    H272450   2.463   1.151  13.746 -0.4288 -0.0380 -0.8266
16987TIP3   OH272451   6.226   5.382   4.783 -1.0523 -0.5455  0.3409
16987TIP3    H172452   6.232   5.360   4.691  0.0378 -0.3342  0.3526
16987TIP3    H272453   6.154   5.445   4.789 -1.0826 -0.5167 -0.3720
16988TIP3   OH272454   2.064   0.828   0.849  0.0019 -0.7416  0.7837
16988TIP3    H172455   2.083   0.921   0.862  0.2436 -0.6722 -0.0498
16988TIP3    H272456   2.106   0.784   0.923  1.5549 -0.3776  0.1309
16989TIP3   OH272457   6.451   1.701   2.687  0.0253  0.2266  0.7410
16989TIP3    H172458   6.516   1.631   2.684  1.5920  1.6883  0.1376
16989TIP3    H272459   6.469   1.754   2.610 -0.5944  1.7944  1.6527
16990TIP3   OH272460   2.696   3.060  11.727  0.2017  0.9234 -0.2404
16990TIP3    H172461   2.655   3.081  11.643 -0.2437 -0.3028 -0.3492
16990TIP3    H272462   2.769   3.120  11.734  0.7842  0.4477 -1.9505
16991TIP3   OH272463   4.148   2.836  14.291  0.5348  0.1526  0.3627
16991TIP3    H172464   4.157   2.743  14.271 -2.8811 -0.0947 -0.2194
16991TIP3    H272465   4.114   2.838  14.380  0.2284  0.8176  0.2320
16992TIP3   OH272466   3.882   3.085  13.429  0.0392  0.2420 -0.3466
16992TIP3    H172467   3.974   3.110  13.436  0.6158 -2.0555  0.5822
16992TIP3    H272468   3.863   3.086  13.335  1.2383 -0.0753 -0.5940
16993TIP3   OH272469   5.310   4.630  15.650  0.3887 -0.2980  0.5792
16993TIP3    H172470   5.321   4.629  15.555  0.6133 -1.7358  0.6019
16993TIP3    H272471   5.385   4.581  15.684  0.0055 -0.2960  1.4502
16994TIP3   OH272472   2.211   4.703   1.980 -0.0223 -0.0815 -0.1241
16994TIP3    H172473   2.132   4.649   1.990  1.2038 -1.8103  0.4549
16994TIP3    H272474   2.264   4.683   2.057  0.2269  2.4242  0.4113
16995TIP3   OH272475   2.757   3.544   0.243 -1.1565 -0.3971  0.2851
16995TIP3    H172476   2.777   3.633   0.214 -1.2804  0.0850  1.6130
16995TIP3    H272477   2.821   3.489   0.199  0.8692  0.7121  1.7342
16996TIP3   OH272478   3.069   1.494   4.385  0.1188  0.0350 -0.1884
16996TIP3    H172479   3.021   1.446   4.453 -0.2773 -0.1546 -0.5992
16996TIP3    H272480   3.161   1.486   4.411  0.0253 -0.6183 -0.0408
16997TIP3   OH272481   5.103   4.384   4.925 -0.5346 -0.2630  0.5455
16997TIP3    H172482   5.079   4.330   5.000 -1.6833  1.4869  1.4986
16997TIP3    H272483   5.176   4.437   4.957 -1.0491  0.5090  0.4519
16998TIP3   OH272484   3.976   2.494  11.476  0.5953  0.1446 -0.0814
16998TIP3    H172485   4.047   2.550  11.505 -0.0310  0.4591  0.8668
16998TIP3    H272486   3.896   2.539  11.505 -0.0048 -0.1017 -1.2879
16999TIP3   OH272487   2.923   3.855   4.108 -0.3024  0.1837 -0.0495
16999TIP3    H172488   2.934   3.924   4.174  0.5618 -1.4472  1.5706
16999TIP3    H272489   3.011   3.841   4.072 -0.4844 -0.0116 -0.4220
17000TIP3   OH272490   4.423   1.510   4.071  0.3875  0.5889  0.4527
17000TIP3    H172491   4.391   1.580   4.016 -0.6536 -0.6482 -0.5603
17000TIP3    H272492   4.385   1.430   4.033 -0.0880 -0.3200  2.7258
17001TIP3   OH272493   6.796   1.076  13.662  0.0726  0.1277  0.7644
17001TIP3    H172494   6.723   1.099  13.605  1.0081  0.3671 -0.3662
17001TIP3    H272495   6.767   0.997  13.708 -0.2034 -0.8549 -1.0468
17002TIP3   OH272496   1.828   4.522  15.611  0.2669  0.0923  0.5314
17002TIP3    H172497   1.888   4.499  15.540  1.4848  0.2031  1.5059
17002TIP3    H272498   1.806   4.613  15.596 -0.9403 -0.3951 -0.7417
17003TIP3   OH272499   6.749   4.938  14.683 -0.3400  0.3881  0.3008
17003TIP3    H172500   6.751   5.011  14.745  0.0935 -0.0856  0.8541
17003TIP3    H272501   6.657   4.923  14.666 -0.5510 -0.5631  2.1419
17004TIP3   OH272502   5.896   5.172  12.242  0.3205  0.1778 -0.1382
17004TIP3    H172503   5.904   5.259  12.281 -0.5953 -0.0393  0.5545
17004TIP3    H272504   5.971   5.165  12.183  1.0813  0.9580  0.7264
17005TIP3   OH272505   4.734   1.918   4.987 -0.6621 -0.7821 -0.3926
17005TIP3    H172506   4.646   1.952   4.970 -0.1797  1.3163  1.1547
17005TIP3    H272507   4.718   1.834   5.030 -1.9267 -0.0552  0.6026
17006TIP3   OH272508   2.682   3.399  17.171 -0.6039 -0.2882 -0.5291
17006TIP3    H172509   2.617   3.341  17.209 -1.0201  1.0907  0.9196
17006TIP3    H272510   2.645   3.487  17.182  1.4709  0.5131  0.2749
17007TIP3   OH272511   3.466   0.109  15.922  0.3702  0.3264  0.6560
17007TIP3    H172512   3.434   0.042  15.982  0.0811 -0.6953 -0.6178
17007TIP3    H272513   3.394   0.171  15.914  0.8118  1.0886  2.2196
17008TIP3   OH272514   0.255   1.904   0.158 -0.2013 -0.0475  1.0216
17008TIP3    H172515   0.286   1.992   0.138  2.1245 -1.1024 -0.2918
17008TIP3    H272516   0.187   1.887   0.094  0.0502  0.4419  0.6226
17009TIP3   OH272517   6.252   2.931   6.535  0.4424 -0.3458  0.3295
17009TIP3    H172518   6.282   2.843   6.559  1.1132 -0.1140  0.3493
17009TIP3    H272519   6.164   2.918   6.502  0.7940 -1.1229 -0.3088
17010TIP3   OH272520   2.602   5.089  15.820  0.4019 -0.1897  0.4833
17010TIP3    H172521   2.542   5.163  15.811 -0.5282 -1.0132 -0.2149
17010TIP3    H272522   2.646   5.084  15.735 -1.6587 -2.2321 -0.5041
17011TIP3   OH272523   0.571   6.645   5.379  0.2536 -0.3340 -0.2303
17011TIP3    H172524   0.584   6.712   5.446 -1.0092  0.0509 -0.3643
17011TIP3    H272525   0.491   6.670   5.335 -0.3073 -2.0001 -0.2066
17012TIP3   OH272526   4.057   2.745   5.470 -0.1141  0.0035 -0.2627
17012TIP3    H172527   3.975   2.735   5.421 -0.3404  1.6703 -0.2421
17012TIP3    H272528   4.031   2.740   5.562 -0.2613  1.0428 -0.2483
17013TIP3   OH272529   6.612   3.217  15.085 -0.0194 -0.0649  0.1946
17013TIP3    H172530   6.649   3.130  15.099 -0.2292 -0.3128 -0.7931
17013TIP3    H272531   6.684   3.277  15.104  0.1103 -0.4494  0.9273
17014TIP3   OH272532   5.307   6.682  16.149  0.1143  0.1275  0.4008
17014TIP3    H172533   5.273   6.595  16.169  0.8476 -0.1295  0.5423
17014TIP3    H272534   5.398   6.680  16.180  0.4193  0.6350 -0.4575
17015TIP3   OH272535   3.263   2.322  16.775 -0.4899 -0.2132  0.2633
17015TIP3    H172536   3.266   2.415  16.751  0.6704 -0.1620  0.5873
17015TIP3    H272537   3.221   2.280  16.700  1.9553  0.1256 -1.3459
17016TIP3   OH272538   2.144   1.330  10.919 -0.1246 -0.2720  0.2618
17016TIP3    H172539   2.153   1.353  10.826  2.2412 -0.6126  0.3846
17016TIP3    H272540   2.077   1.262  10.920 -0.7353  0.2825 -1.1046
17017TIP3   OH272541   2.833   6.548   0.272 -0.0322 -0.2211 -0.2037
17017TIP3    H172542   2.749   6.503   0.284 -0.0847  0.4471  2.1546
17017TIP3    H272543   2.887   6.485   0.224 -1.3682 -1.2888 -0.3340
17018TIP3   OH272544   3.187   3.653  13.995 -0.4668 -0.0999 -0.5464
17018TIP3    H172545   3.244   3.650  14.072 -0.2201  1.0725 -0.6778
17018TIP3    H272546   3.205   3.571  13.950  0.1868 -0.3149  0.0827
17019TIP3   OH272547   1.255   0.109   5.994 -0.3868  0.3408  0.6191
17019TIP3    H172548   1.299   0.160   5.926 -4.9538 -0.1939 -3.0378
17019TIP3    H272549   1.306   0.028   6.000  1.6616  1.5230 -0.1688
17020TIP3   OH272550   5.829   1.344   1.875 -0.4398  0.0353  0.0164
17020TIP3    H172551   5.898   1.349   1.809 -1.3417 -1.8327 -1.0824
17020TIP3    H272552   5.874   1.314   1.954  0.3334  0.6878 -0.1608
17021TIP3   OH272553   0.176   2.316   3.008 -0.0738  0.0717  0.5745
17021TIP3    H172554   0.185   2.398   3.057 -0.1600  0.2153  0.3521
17021TIP3    H272555   0.192   2.341   2.917 -0.5253 -0.0797  0.4545
17022TIP3   OH272556   4.798   0.468  16.323  0.4847  0.0129 -0.0458
17022TIP3    H172557   4.862   0.513  16.378 -0.3522  2.0942 -0.7085
17022TIP3    H272558   4.824   0.376  16.326  2.0828  0.4833  1.5898
17023TIP3   OH272559   0.409   3.237  16.000 -0.5003  0.3183 -0.5111
17023TIP3    H172560   0.350   3.307  16.031 -0.8390  0.1299 -0.7276
17023TIP3    H272561   0.495   3.279  15.997 -0.5717  0.5192  0.0721
17024TIP3   OH272562   3.752   1.423   3.819 -0.2067  0.1702 -0.1722
17024TIP3    H172563   3.662   1.451   3.835 -0.2522  0.6440 -1.2156
17024TIP3    H272564   3.760   1.422   3.724  1.4813  2.0882 -0.0826
17025TIP3   OH272565   3.631   3.957   1.080 -0.1246  0.5528  0.2694
17025TIP3    H172566   3.667   3.966   1.169 -0.5915 -0.1313  0.5328
17025TIP3    H272567   3.562   3.891   1.089 -0.8646  1.2224 -0.4039
17026TIP3   OH272568   5.517   2.711  16.534 -0.5454 -0.1665 -0.0572
17026TIP3    H172569   5.569   2.659  16.473 -0.0433  0.4735 -0.1789
17026TIP3    H272570   5.439   2.658  16.550 -0.9271 -0.1215 -1.6574
17027TIP3   OH272571   5.969   5.711   2.195 -0.2213  0.3061  0.1875
17027TIP3    H172572   6.023   5.768   2.140  1.9778 -0.7053  1.2236
17027TIP3    H272573   5.898   5.767   2.226  0.4450  1.7753 -0.9218
17028TIP3   OH272574   4.478   2.920  14.536 -0.6159  0.1028 -0.2003
17028TIP3    H172575   4.477   2.834  14.495  0.0737  0.5331 -1.1448
17028TIP3    H272576   4.394   2.927  14.582 -0.3239 -1.4005  0.5861
17029TIP3   OH272577   2.034   4.384  12.980  0.1215  0.1713  0.2498
17029TIP3    H172578   2.101   4.327  13.018  1.3417  0.8224 -0.8764
17029TIP3    H272579   1.952   4.337  12.995  1.1917 -2.3880 -1.4844
17030TIP3   OH272580   4.273   4.341  13.703 -0.0614 -0.1418 -0.2154
17030TIP3    H172581   4.202   4.284  13.736 -0.9475  1.0568 -0.0218
17030TIP3    H272582   4.253   4.427  13.740  2.0925 -0.0167  0.6935
17031TIP3   OH272583   1.615   0.624  12.776 -0.3042 -0.3873  0.5301
17031TIP3    H172584   1.527   0.616  12.812  0.2492 -0.4689  1.8913
17031TIP3    H272585   1.607   0.689  12.707 -1.5183 -0.7182  0.3506
17032TIP3   OH272586   3.534   3.523  16.764  0.6400  0.0072  0.0574
17032TIP3    H172587   3.626   3.525  16.788  0.7537  0.3841 -0.3976
17032TIP3    H272588   3.493   3.589  16.818  0.9945  1.2559 -1.1729
17033TIP3   OH272589   0.711   3.920  15.298  0.2069  0.1770  0.3364
17033TIP3    H172590   0.668   3.853  15.245  4.1160  0.0853 -2.9178
17033TIP3    H272591   0.736   3.874  15.378 -0.7337 -1.1954 -0.1341
17034TIP3   OH272592   3.827   4.230   5.987  0.0233  0.3008  0.2467
17034TIP3    H172593   3.743   4.189   6.009  0.7673 -1.1271  0.4097
17034TIP3    H272594   3.817   4.320   6.019 -2.5439  1.0411 -2.3396
17035TIP3   OH272595   6.306   0.660   1.893 -0.0135 -0.6244  0.5619
17035TIP3    H172596   6.322   0.669   1.987 -2.3369  1.0725  0.8582
17035TIP3    H272597   6.325   0.747   1.857  0.6106 -1.1915 -0.4852
17036TIP3   OH272598   1.138   0.635   6.234 -0.6284  1.1463  0.3692
17036TIP3    H172599   1.203   0.704   6.248 -0.2822  0.8991 -0.0242
17036TIP3    H272600   1.092   0.628   6.318  0.8205  0.3136  1.0987
17037TIP3   OH272601   3.567   2.455  15.434 -0.6653 -0.1697 -0.3011
17037TIP3    H172602   3.495   2.412  15.389 -1.0478 -0.6181  0.7206
17037TIP3    H272603   3.533   2.541  15.457 -1.7037 -1.2046  2.2152
17038TIP3   OH272604   0.765   2.920  11.498  0.0121  0.0008 -0.2373
17038TIP3    H172605   0.850   2.923  11.541  1.1468 -2.0746 -2.1938
17038TIP3    H272606   0.769   2.987  11.430 -0.2696  0.5296  0.2645
17039TIP3   OH272607   4.809   5.305  13.642  0.4204 -0.3707  0.7559
17039TIP3    H172608   4.783   5.220  13.606 -0.9657  0.5452 -0.4291
17039TIP3    H272609   4.886   5.330  13.591 -0.9241  0.4440 -0.8924
17040TIP3   OH272610   2.186   0.904  16.631  0.0630  0.1104 -0.2335
17040TIP3    H172611   2.211   0.856  16.552 -1.9824 -0.0437 -0.8094
17040TIP3    H272612   2.268   0.912  16.681  0.8537 -2.1145 -1.0992
17041TIP3   OH272613   0.634   4.179   5.351 -0.0365 -0.2211  0.8895
17041TIP3    H172614   0.659   4.101   5.301 -0.5067  1.0741 -1.4578
17041TIP3    H272615   0.659   4.159   5.441  5.6142 -0.6607 -0.5789
17042TIP3   OH272616   6.014   1.922  16.599 -0.1826 -0.3873  0.4815
17042TIP3    H172617   6.018   1.994  16.660  0.3134 -0.0724  0.0853
17042TIP3    H272618   6.023   1.962  16.513 -3.0142 -0.5772  0.0299
17043TIP3   OH272619   3.771   3.904   1.337 -0.0651  0.0753  0.0946
17043TIP3    H172620   3.854   3.942   1.364  0.3872  0.2694 -1.5288
17043TIP3    H272621   3.705   3.964   1.371  0.5668  1.3347 -0.8686
17044TIP3   OH272622   6.537   2.996   5.721 -0.1104  0.0525  0.0998
17044TIP3    H172623   6.623   2.989   5.763 -0.3433  1.8118  0.9263
17044TIP3    H272624   6.479   2.942   5.776 -0.0861  1.0639  1.1332
17045TIP3   OH272625   6.692   1.804  15.586 -0.0225 -0.4246  0.2135
17045TIP3    H172626   6.769   1.836  15.633  0.2938 -1.1459  0.1956
17045TIP3    H272627   6.624   1.799  15.654  0.3224 -1.0776  0.5214
17046TIP3   OH272628   3.467   3.553   2.529  0.1952 -0.3904 -0.5204
17046TIP3    H172629   3.401   3.598   2.476  0.7246  1.1754  0.1426
17046TIP3    H272630   3.452   3.583   2.618  2.2661  0.5494 -0.4629
17047TIP3   OH272631   5.788   6.196   6.366 -0.2246 -0.2562 -0.0520
17047TIP3    H172632   5.804   6.232   6.453 -0.5517  0.6071 -0.3430
17047TIP3    H272633   5.823   6.261   6.306 -0.3612 -0.6618 -0.5740
17048TIP3   OH272634   4.465   6.058   5.858  0.9020  0.2652  0.6077
17048TIP3    H172635   4.544   6.110   5.871 -1.1138  3.3951  0.8105
17048TIP3    H272636   4.405   6.116   5.813 -1.1165 -2.2449 -0.0708
17049TIP3   OH272637   2.365   1.339  13.207 -0.6310 -0.2082 -0.3125
17049TIP3    H172638   2.313   1.308  13.132 -0.5137 -0.9737 -0.0904
17049TIP3    H272639   2.388   1.258  13.254  0.1790  0.1838 -0.0343
17050TIP3   OH272640   3.834   5.013   1.916 -0.7722 -0.2009 -0.4948
17050TIP3    H172641   3.905   5.013   1.980  0.2228 -0.9993 -1.5616
17050TIP3    H272642   3.824   4.921   1.891 -2.4369 -0.1433 -0.1032
17051TIP3   OH272643   5.259   4.437  14.015  0.5861  1.2011 -0.6435
17051TIP3    H172644   5.223   4.368  13.960 -0.1318  0.8616  0.2229
17051TIP3    H272645   5.338   4.399  14.054 -0.7920  0.1762  1.2628
17052TIP3   OH272646   5.373   4.031  13.227  0.4728  0.0881 -0.4594
17052TIP3    H172647   5.384   4.093  13.299  0.5496 -0.3784 -0.0645
17052TIP3    H272648   5.376   4.084  13.148 -1.4614  0.8676 -0.0445
17053TIP3   OH272649   5.308   6.004   5.500  0.3398 -0.5871 -0.0788
17053TIP3    H172650   5.398   5.974   5.491  0.7295  0.0821  1.3442
17053TIP3    H272651   5.313   6.072   5.568 -1.5940 -2.1873  1.7435
17054TIP3   OH272652   5.035   6.291   3.223  0.2081 -0.4317 -0.0934
17054TIP3    H172653   5.003   6.361   3.281  0.6450 -0.5722  0.3310
17054TIP3    H272654   4.956   6.247   3.192 -0.0806  0.3814 -0.5309
17055TIP3   OH272655   3.154   6.707   2.411  0.0690 -0.1400 -0.3098
17055TIP3    H172656   3.234   6.719   2.462 -1.0965  0.6046  1.3739
17055TIP3    H272657   3.159   6.775   2.343  0.4842  0.4062  0.2677
17056TIP3   OH272658   1.730   4.305  13.786  0.3053  0.4051  0.2886
17056TIP3    H172659   1.670   4.257  13.843  1.2973 -0.2478  0.7986
17056TIP3    H272660   1.679   4.325  13.708 -0.8313  0.6080  1.0818
17057TIP3   OH272661   0.858   1.443   3.412  0.4658 -0.3949 -0.2834
17057TIP3    H172662   0.890   1.402   3.332 -0.9584 -1.2040 -0.4521
17057TIP3    H272663   0.820   1.526   3.382  1.7145  0.2328 -0.1730
17058TIP3   OH272664   6.375   2.162   4.196  0.1240 -0.1791  0.1442
17058TIP3    H172665   6.347   2.214   4.271 -1.2181  1.7111 -1.6107
17058TIP3    H272666   6.461   2.197   4.173 -0.9061  1.5454 -1.2187
17059TIP3   OH272667   3.407   5.729   0.170 -0.1497 -0.3427  0.0631
17059TIP3    H172668   3.478   5.672   0.139  0.1935  0.1281 -0.0151
17059TIP3    H272669   3.438   5.817   0.153 -1.1168 -0.1567 -0.7518
17060TIP3   OH272670   0.275   2.110  15.599 -0.5558 -0.2912 -0.5392
17060TIP3    H172671   0.263   2.200  15.568 -2.6043 -0.3726 -0.0701
17060TIP3    H272672   0.337   2.117  15.671 -0.1866  0.6560 -0.9458
17061TIP3   OH272673   4.695   3.543  15.686  0.1764  0.3856  0.0345
17061TIP3    H172674   4.671   3.599  15.760 -3.7806  1.4478 -1.9320
17061TIP3    H272675   4.774   3.583  15.650  0.1406  1.9064  1.5844
17062TIP3   OH272676   4.719   4.789  17.058 -0.0960  0.0641  0.3817
17062TIP3    H172677   4.702   4.870  17.106  4.6922  1.1880  0.3795
17062TIP3    H272678   4.749   4.818  16.972  1.1978 -1.6901  0.2187
17063TIP3   OH272679   2.085   2.320   5.580  0.0113 -0.0317  0.0841
17063TIP3    H172680   2.175   2.351   5.587  0.1613 -0.6936  1.1636
17063TIP3    H272681   2.055   2.314   5.671 -1.2079  0.4292 -0.2800
17064TIP3   OH272682   4.988   6.501   3.842  0.0674  0.0927 -0.6043
17064TIP3    H172683   5.053   6.464   3.783 -0.3330 -0.7959 -0.4963
17064TIP3    H272684   4.904   6.482   3.801 -0.1867 -0.0189 -0.0405
17065TIP3   OH272685   0.990   0.058   5.881 -0.3766  0.2168  0.6765
17065TIP3    H172686   1.058   0.119   5.909 -1.5325  1.0008  1.8700
17065TIP3    H272687   0.908   0.107   5.893 -1.1033 -0.3865 -1.5633
17066TIP3   OH272688   3.770   6.118   6.430  0.0309 -0.3109 -0.2980
17066TIP3    H172689   3.768   6.033   6.386 -2.1159  0.4070 -1.6701
17066TIP3    H272690   3.853   6.118   6.477  0.3963 -2.8812 -0.8339
17067TIP3   OH272691   3.694   6.113   5.527  0.9317 -0.2198 -0.1005
17067TIP3    H172692   3.613   6.074   5.561  1.6040 -1.2822  0.2683
17067TIP3    H272693   3.743   6.040   5.491  0.4393  0.8117 -3.0240
17068TIP3   OH272694   1.435   5.205   3.388 -0.1902  0.6628  0.1980
17068TIP3    H172695   1.383   5.154   3.450 -0.3807  0.1335 -0.3900
17068TIP3    H272696   1.443   5.149   3.311  2.1312  0.3247  0.6582
17069TIP3   OH272697   5.576   4.834   3.573 -0.6482 -0.1410  0.3242
17069TIP3    H172698   5.512   4.786   3.626 -0.9672  0.0026  0.0754
17069TIP3    H272699   5.615   4.897   3.634  0.9823 -1.8443  1.0644
17070TIP3   OH272700   6.155   2.491  14.548 -0.3914 -0.3519 -0.4850
17070TIP3    H172701   6.218   2.516  14.480 -0.6547  1.8296  0.0235
17070TIP3    H272702   6.175   2.400  14.567  0.4563 -0.6530 -2.6537
17071TIP3   OH272703   0.548   5.647   2.727  0.3102 -0.8646 -0.4837
17071TIP3    H172704   0.514   5.616   2.643  3.2043 -3.1939 -0.8701
17071TIP3    H272705   0.631   5.689   2.706  1.3980 -2.0812  1.2415
17072TIP3   OH272706   0.764   1.904   4.143  0.5699  0.3054  0.3717
17072TIP3    H172707   0.685   1.852   4.128  1.1050 -0.9768  1.8758
17072TIP3    H272708   0.732   1.994   4.150 -0.8176 -0.2311  1.2504
17073TIP3   OH272709   6.356   0.907  16.550  0.2464 -0.2938  0.2984
17073TIP3    H172710   6.429   0.901  16.612 -0.1225  0.8711  0.8557
17073TIP3    H272711   6.394   0.946  16.471  0.6880 -1.6562 -0.1721
17074TIP3   OH272712   4.183   1.093  10.993 -0.0488  0.2260  0.0078
17074TIP3    H172713   4.181   1.166  10.931  0.3272  0.1138 -0.1366
17074TIP3    H272714   4.264   1.046  10.973 -0.5777 -0.5784 -0.3060
17075TIP3   OH272715   3.422   5.315   5.695  0.0129  0.0959 -0.0650
17075TIP3    H172716   3.477   5.254   5.645  2.0210  0.6016  1.4899
17075TIP3    H272717   3.414   5.274   5.781 -2.2185 -0.0493 -0.3134
17076TIP3   OH272718   2.566   3.270   3.746 -0.1559  0.2725 -0.3705
17076TIP3    H172719   2.635   3.316   3.697 -0.1502 -1.1884 -1.7750
17076TIP3    H272720   2.519   3.220   3.680 -1.0280 -0.6632  0.9353
17077TIP3   OH272721   3.868   1.926  14.711  0.3495  0.7869  0.3915
17077TIP3    H172722   3.880   1.839  14.672 -2.8449  0.4070  0.1449
17077TIP3    H272723   3.896   1.915  14.802 -0.9845 -0.8217  0.6427
17078TIP3   OH272724   1.173   4.297  13.695 -0.7893 -0.1914  0.1021
17078TIP3    H172725   1.168   4.388  13.666  1.9801 -0.3422 -1.0037
17078TIP3    H272726   1.121   4.248  13.631 -3.8366  0.7400  1.7230
17079TIP3   OH272727   3.497   2.002   2.352 -0.0566  0.2150  0.4619
17079TIP3    H172728   3.551   2.020   2.275 -0.4325  0.1730  0.1816
17079TIP3    H272729   3.407   2.012   2.320 -0.2517 -1.1714  0.5443
17080TIP3   OH272730   6.457   2.180   1.152 -0.2877 -0.2014 -0.5420
17080TIP3    H172731   6.503   2.160   1.070 -0.1614  0.3591 -0.6102
17080TIP3    H272732   6.397   2.107   1.164  0.9956 -1.1980 -0.1765
17081TIP3   OH272733   0.316   6.033  13.237 -0.0852 -0.4802 -0.0545
17081TIP3    H172734   0.292   6.109  13.185  0.0590 -0.8337 -0.6444
17081TIP3    H272735   0.239   5.977  13.235 -0.6737  0.2425  1.4920
17082TIP3   OH272736   6.652   0.405   6.603 -0.4791  0.5467 -0.1693
17082TIP3    H172737   6.699   0.467   6.659  1.7678  1.3677 -2.7941
17082TIP3    H272738   6.678   0.319   6.635 -1.4777  0.9620  1.8101
17083TIP3   OH272739   1.801   4.211   2.785 -0.1565 -0.3382  0.2267
17083TIP3    H172740   1.779   4.304   2.785 -0.1396 -0.3325 -0.4713
17083TIP3    H272741   1.896   4.209   2.781 -0.1308 -0.3876  0.7567
17084TIP3   OH272742   4.081   4.584  16.574 -0.1049 -0.3505 -0.1923
17084TIP3    H172743   4.160   4.541  16.541 -0.2548  0.0344 -1.0742
17084TIP3    H272744   4.113   4.646  16.640  0.3705  0.0323 -0.7725
17085TIP3   OH272745   3.028   3.111  17.084  0.0566  0.3698 -1.1096
17085TIP3    H172746   3.081   3.158  17.148  0.3878  0.4608 -1.4435
17085TIP3    H272747   3.049   3.019  17.099 -1.1341  0.2668  0.0206
17086TIP3   OH272748   5.359   5.433   2.234  0.0969  0.1640  0.4920
17086TIP3    H172749   5.360   5.387   2.318 -1.7345 -1.4428 -0.3369
17086TIP3    H272750   5.344   5.525   2.258 -0.5335 -0.2902  1.9205
17087TIP3   OH272751   6.408   6.496  17.258  0.3688 -0.6386  0.3976
17087TIP3    H172752   6.410   6.403  17.277 -0.9635 -0.4392  1.6126
17087TIP3    H272753   6.384   6.501  17.165 -0.0126 -1.5080  0.4450
17088TIP3   OH272754   4.208   5.540   5.429 -0.4600  0.0297  0.3084
17088TIP3    H172755   4.262   5.612   5.462  0.9731 -0.8519 -0.0530
17088TIP3    H272756   4.168   5.503   5.507 -0.6554  0.7881  0.5720
17089TIP3   OH272757   4.633   5.291  11.256 -0.0217  0.3494 -0.5834
17089TIP3    H172758   4.586   5.281  11.173  1.7915 -1.3242 -1.4290
17089TIP3    H272759   4.564   5.312  11.320 -1.7618 -0.8347 -2.0194
17090TIP3   OH272760   1.776   5.046   5.075  0.4418 -0.1223 -0.5857
17090TIP3    H172761   1.712   4.975   5.067  0.4530 -0.3341  0.9748
17090TIP3    H272762   1.860   5.003   5.060  0.3419 -0.1844 -0.9561
17091TIP3   OH272763   0.994   1.800  11.397  0.0306  0.1755  0.6985
17091TIP3    H172764   0.946   1.750  11.332  0.6075  1.6166 -0.8869
17091TIP3    H272765   0.931   1.818  11.466 -1.3230  0.8549 -0.6985
17092TIP3   OH272766   3.592   5.506  10.390 -0.0218 -0.0333 -0.1903
17092TIP3    H172767   3.563   5.420  10.419 -0.0383 -0.3142 -1.0297
17092TIP3    H272768   3.675   5.490  10.346 -0.7836  0.1529 -1.7379
17093TIP3   OH272769   0.596   1.924  16.981 -0.2471  0.1550 -0.0680
17093TIP3    H172770   0.605   1.923  17.076  1.9656  1.8201 -0.2093
17093TIP3    H272771   0.620   1.836  16.954  3.3615  0.8165  0.6703
17094TIP3   OH272772   5.373   2.033   0.499 -0.4946  0.1326  0.0590
17094TIP3    H172773   5.298   2.087   0.476  0.2463  0.9957 -0.3559
17094TIP3    H272774   5.340   1.943   0.494 -1.2599  0.4615 -1.0148
17095TIP3   OH272775   0.986   4.233  10.479 -0.0672 -0.1043 -0.1290
17095TIP3    H172776   1.059   4.182  10.443 -0.0175  0.2093 -0.4737
17095TIP3    H272777   1.027   4.306  10.524 -0.1660  0.0126 -0.2282
17096TIP3   OH272778   3.245   3.106   3.988  0.5633 -0.1431  0.4612
17096TIP3    H172779   3.240   3.080   3.896  0.3053  0.7054  0.2320
17096TIP3    H272780   3.154   3.115   4.016  0.6467  0.9786  0.3984
17097TIP3   OH272781   5.346   6.140   0.276  0.3923  0.6450 -0.5250
17097TIP3    H172782   5.299   6.185   0.345 -1.4918 -1.9577 -0.0336
17097TIP3    H272783   5.280   6.118   0.211  1.6105  0.4029 -1.7125
17098TIP3   OH272784   4.471   6.402  11.400  0.4090  0.1692 -0.7928
17098TIP3    H172785   4.512   6.403  11.313 -0.3514  0.1664 -1.1526
17098TIP3    H272786   4.437   6.313  11.410 -1.7413  0.8663 -1.5626
17099TIP3   OH272787   5.168   0.491   2.631  0.2423 -0.1799 -0.1539
17099TIP3    H172788   5.201   0.540   2.707  0.8773  1.1336 -1.2545
17099TIP3    H272789   5.204   0.537   2.555 -1.7149 -0.4974 -1.3105
17100TIP3   OH272790   1.335   0.569  15.829 -0.1766 -0.1727 -0.0226
17100TIP3    H172791   1.426   0.596  15.817 -0.1897 -0.2762 -0.3683
17100TIP3    H272792   1.311   0.527  15.746 -0.9442  1.0382 -0.4358
17101TIP3   OH272793   4.324   3.897  14.156  0.5717 -0.0934  0.4202
17101TIP3    H172794   4.355   3.980  14.118  0.3016  0.8570  2.2180
17101TIP3    H272795   4.381   3.831  14.118  2.3768  1.2061  0.7951
17102TIP3   OH272796   3.347   5.865   2.730 -0.3850 -0.4019  0.8493
17102TIP3    H172797   3.299   5.941   2.763 -1.2705 -0.8543  0.6384
17102TIP3    H272798   3.326   5.795   2.792 -2.7525 -1.4781 -1.0799
17103TIP3   OH272799   6.356   4.220   0.561 -0.1201 -0.0618  0.4453
17103TIP3    H172800   6.399   4.268   0.490  0.7759 -0.6991  0.5458
17103TIP3    H272801   6.426   4.202   0.624 -0.9324  0.5405  1.5178
17104TIP3   OH272802   3.367   0.869   2.619  0.0070  0.5986 -0.3808
17104TIP3    H172803   3.301   0.910   2.674  0.1142  1.4784 -0.9032
17104TIP3    H272804   3.444   0.925   2.628 -0.6688  2.1003 -3.2388
17105TIP3   OH272805   5.132   1.121  16.142 -0.0250 -0.0389  0.1801
17105TIP3    H172806   5.167   1.207  16.120 -1.0266 -0.8090 -5.0636
17105TIP3    H272807   5.210   1.068  16.160  0.8317  0.9737 -0.4719
17106TIP3   OH272808   6.418   4.084   2.347  0.6390  0.3310 -0.1649
17106TIP3    H172809   6.410   4.175   2.377  0.5661 -0.2955  1.7905
17106TIP3    H272810   6.505   4.056   2.376 -1.1570 -1.7344  3.7340
17107TIP3   OH272811   4.984   5.624   6.349  0.4129  0.3432  0.0512
17107TIP3    H172812   4.934   5.559   6.400  0.1996  1.7498  1.6811
17107TIP3    H272813   4.916   5.676   6.306  0.5386  0.7030  0.2916
17108TIP3   OH272814   5.700   0.093   3.642 -0.0988  0.0557 -0.2354
17108TIP3    H172815   5.740   0.158   3.584  1.0492 -0.0392  0.4326
17108TIP3    H272816   5.671   0.144   3.718 -0.2974 -0.0377 -0.2470
17109TIP3   OH272817   6.769   6.489   1.181 -0.0807  0.2121  0.4087
17109TIP3    H172818   6.811   6.565   1.221  1.3349 -0.5058  0.3073
17109TIP3    H272819   6.841   6.434   1.151 -1.0959 -0.9812  0.0982
17110TIP3   OH272820   0.191   3.917  14.894  0.5722  0.6920 -0.2304
17110TIP3    H172821   0.148   3.991  14.852  1.2461 -0.0824 -2.3125
17110TIP3    H272822   0.150   3.840  14.856  0.0136 -0.0278  1.7782
17111TIP3   OH272823   2.791   6.627  13.427  0.0398  0.3469  0.3739
17111TIP3    H172824   2.741   6.546  13.421  0.8312 -0.1513  0.3938
17111TIP3    H272825   2.880   6.599  13.448  0.4319  1.1901 -0.1262
17112TIP3   OH272826   1.838   2.329   5.462  0.2258 -0.3068 -0.4243
17112TIP3    H172827   1.799   2.416   5.456  0.8879  0.2155  2.3903
17112TIP3    H272828   1.928   2.345   5.492 -0.0333 -2.0407  1.3480
17113TIP3   OH272829   2.017   3.732   4.086  0.0371  0.0660 -0.3150
17113TIP3    H172830   2.079   3.661   4.069  0.6261  0.1505  1.4373
17113TIP3    H272831   2.044   3.769   4.170 -1.8981  0.6446  0.0784
17114TIP3   OH272832   1.754   4.107   2.182 -0.1241 -0.2158  0.2113
17114TIP3    H172833   1.840   4.086   2.144 -0.9388 -2.4206 -0.4602
17114TIP3    H272834   1.708   4.153   2.113  0.6527  1.4064  0.7338
17115TIP3   OH272835   1.454   5.897   3.682 -0.4041 -0.5924 -0.0365
17115TIP3    H172836   1.506   5.821   3.710 -1.2141 -0.0367  3.1057
17115TIP3    H272837   1.443   5.884   3.588  2.8153 -2.3089 -0.2474
17116TIP3   OH272838   2.320   1.106   1.777  0.1192 -0.4329  0.4046
17116TIP3    H172839   2.259   1.179   1.790 -0.2233 -0.7291  0.4712
17116TIP3    H272840   2.333   1.071   1.865  0.9220  0.0539  0.4874
17117TIP3   OH272841   0.892   1.386   6.322 -0.1122 -0.3925 -0.3969
17117TIP3    H172842   0.921   1.355   6.407  0.9301 -0.0497 -0.6259
17117TIP3    H272843   0.952   1.346   6.259  0.3796  0.9614 -0.8068
17118TIP3   OH272844   4.107   3.014  16.998  0.4928 -0.6204 -0.6095
17118TIP3    H172845   4.192   2.974  17.017  1.1766  0.7463 -0.7670
17118TIP3    H272846   4.043   2.952  17.033  1.6487  0.3974  3.6034
17119TIP3   OH272847   3.842   0.324   6.672 -0.3853 -0.2986  0.1014
17119TIP3    H172848   3.789   0.382   6.617 -0.1438 -0.5657 -0.4167
17119TIP3    H272849   3.781   0.255   6.699 -0.9389  0.7221  1.5523
17120TIP3   OH272850   3.298   2.716  12.064 -0.2954  0.0717 -0.0534
17120TIP3    H172851   3.286   2.758  11.978 -1.2400 -0.6640 -0.2864
17120TIP3    H272852   3.314   2.624  12.043 -2.0246 -0.3995  0.6106
17121TIP3   OH272853   2.757   1.339  10.740 -0.6906 -0.1086 -0.2108
17121TIP3    H172854   2.720   1.265  10.788 -1.5262  0.2865 -0.2379
17121TIP3    H272855   2.840   1.358  10.785 -1.0326 -0.3207  0.5095
17122TIP3   OH272856   3.782   6.747  16.231  0.1948 -0.7675  0.2400
17122TIP3    H172857   3.780   6.661  16.188  1.5312 -1.2743  1.1883
17122TIP3    H272858   3.866   6.785  16.205  0.0630 -0.1745  0.6862
17123TIP3   OH272859   5.127   6.357   5.006 -0.8571 -0.1461  0.0895
17123TIP3    H172860   5.032   6.375   5.006 -0.5798  1.4355  1.7992
17123TIP3    H272861   5.147   6.332   5.096  0.3343 -0.6637 -0.3106
17124TIP3   OH272862   4.030   3.208   2.261 -0.5603 -0.0233  0.0458
17124TIP3    H172863   4.036   3.243   2.349  1.6213 -1.0094  0.3289
17124TIP3    H272864   4.081   3.268   2.207 -0.9808 -0.0242 -0.3592
17125TIP3   OH272865   6.748   3.568   5.788 -0.1980 -0.1612 -0.0618
17125TIP3    H172866   6.767   3.608   5.873  1.4961 -3.3915  1.1785
17125TIP3    H272867   6.665   3.522   5.801 -0.3988  0.0940 -0.4359
17126TIP3   OH272868   5.332   0.300  17.112 -0.2610  1.0885  0.3309
17126TIP3    H172869   5.281   0.245  17.053 -0.0925  0.9243  0.3353
17126TIP3    H272870   5.423   0.284  17.086 -0.2400  1.8460 -0.1016
17127TIP3   OH272871   5.209   3.812  13.323 -0.1959  0.4191 -0.1098
17127TIP3    H172872   5.202   3.784  13.232 -0.1284 -0.2698  0.0971
17127TIP3    H272873   5.259   3.894  13.319 -1.1845  1.0127 -0.7976
17128TIP3   OH272874   4.696   3.259   2.556  0.1578 -0.2975  0.3317
17128TIP3    H172875   4.678   3.191   2.491  0.1169  0.5680 -0.5668
17128TIP3    H272876   4.627   3.247   2.622 -0.9489  0.0282 -0.7429
17129TIP3   OH272877   1.302   3.626   6.464  0.9249 -0.2584 -0.6195
17129TIP3    H172878   1.264   3.713   6.448  1.3101  0.4612  2.0846
17129TIP3    H272879   1.366   3.615   6.394  0.4050  1.3465 -1.3905
17130TIP3   OH272880   6.445   5.860   3.532 -0.1351  0.6729  0.3283
17130TIP3    H172881   6.495   5.941   3.524  0.8311  0.0323 -0.2081
17130TIP3    H272882   6.354   5.889   3.537  0.2084  1.7975  0.2650
17131TIP3   OH272883   2.662   6.514   2.555 -0.1528  0.0376 -0.0485
17131TIP3    H172884   2.755   6.533   2.540 -0.3575  2.3169  1.2493
17131TIP3    H272885   2.620   6.534   2.472  0.2904  0.7585 -0.1072
17132TIP3   OH272886   1.084   2.729  13.440 -0.1697 -0.1890  0.5229
17132TIP3    H172887   0.988   2.726  13.435 -0.1347 -1.9694  0.3976
17132TIP3    H272888   1.103   2.730  13.534 -0.2979 -2.6126  0.6129
17133TIP3   OH272889   3.205   0.725   3.059 -0.2634 -0.6522  0.1524
17133TIP3    H172890   3.229   0.701   3.149 -0.3381  0.2561  0.4297
17133TIP3    H272891   3.164   0.647   3.023 -0.9411 -0.7915  1.1782
17134TIP3   OH272892   2.535   5.161  13.358 -0.6941 -0.4062  0.2275
17134TIP3    H172893   2.480   5.125  13.289 -2.6850 -0.2309  1.6810
17134TIP3    H272894   2.475   5.182  13.429  1.2432 -0.1652  1.8679
17135TIP3   OH272895   6.087   4.851   2.062 -0.2255  0.7447  0.2406
17135TIP3    H172896   6.179   4.867   2.085  0.2128 -0.0746 -0.9036
17135TIP3    H272897   6.091   4.804   1.979 -1.7196  1.7840 -0.4312
17136TIP3   OH272898   3.185   6.746  12.598 -0.0791 -0.2340  0.1755
17136TIP3    H172899   3.215   6.783  12.515 -1.2499  0.6319  0.1217
17136TIP3    H272900   3.090   6.762  12.598 -0.4344 -2.1704  0.7016
17137TIP3   OH272901   3.105   2.642   0.363 -0.7548 -0.0507  0.3964
17137TIP3    H172902   3.095   2.624   0.269  0.5732  0.5635  0.1352
17137TIP3    H272903   3.199   2.652   0.376 -0.9775  0.4347  1.6960
17138TIP3   OH272904   5.088   3.517  14.103 -0.3255  0.2015 -0.2909
17138TIP3    H172905   5.179   3.488  14.103 -0.5052 -0.4024  0.8529
17138TIP3    H272906   5.071   3.543  14.013  1.0553  0.5691 -0.4546
17139TIP3   OH272907   5.311   0.954  13.732  0.7787  0.0397 -0.3143
17139TIP3    H172908   5.310   0.859  13.721 -1.8459 -0.2702  2.1225
17139TIP3    H272909   5.395   0.982  13.694  1.1003 -3.0897 -2.0188
17140TIP3   OH272910   4.969   1.083   4.032 -0.1874  0.3181 -0.4364
17140TIP3    H172911   4.953   1.031   3.953  0.2800  1.4489 -1.2928
17140TIP3    H272912   4.934   1.169   4.011  1.5821  1.1455 -0.1007
17141TIP3   OH272913   0.787   4.677   0.502 -0.2909  0.4970 -0.3936
17141TIP3    H172914   0.812   4.652   0.413 -0.3144 -3.2486  0.5560
17141TIP3    H272915   0.691   4.679   0.500 -0.2694  1.5223 -0.7044
17142TIP3   OH272916   1.763   3.579   6.193 -0.0522 -0.2643 -0.3189
17142TIP3    H172917   1.838   3.619   6.149 -0.5977  0.2959 -0.7435
17142TIP3    H272918   1.779   3.485   6.187  1.4267 -0.1076  1.0257
17143TIP3   OH272919   5.686   1.151  14.774 -0.6674  0.2341  0.3537
17143TIP3    H172920   5.683   1.109  14.860 -0.1814 -1.7879 -0.5945
17143TIP3    H272921   5.679   1.079  14.712 -0.5032  1.6298 -1.3092
17144TIP3   OH272922   1.242   1.853   3.281  0.2054  0.2846  0.1078
17144TIP3    H172923   1.191   1.917   3.330  0.1060  1.8710 -1.9802
17144TIP3    H272924   1.179   1.787   3.254 -0.1099  0.4791  0.3701
17145TIP3   OH272925   3.339   1.114  11.596  0.0058  0.0728  0.0018
17145TIP3    H172926   3.260   1.128  11.649  0.5302  0.5942  0.6444
17145TIP3    H272927   3.411   1.137  11.653  0.7962 -3.1454  0.3508
17146TIP3   OH272928   3.993   2.584  13.283  0.7695 -0.4877  0.4354
17146TIP3    H172929   4.048   2.608  13.357  1.9796 -0.3597 -0.4818
17146TIP3    H272930   4.045   2.518  13.236  0.5333  0.3002 -0.9446
17147TIP3   OH272931   5.233   0.524   0.384  0.5369  0.1774 -0.5356
17147TIP3    H172932   5.327   0.508   0.391  0.2713 -1.0870  0.2884
17147TIP3    H272933   5.206   0.549   0.473  0.3350  1.9160 -1.0652
17148TIP3   OH272934   1.446   3.091   4.073  0.1451 -0.4525 -0.0207
17148TIP3    H172935   1.444   3.099   3.978  1.3924 -1.2416 -0.1252
17148TIP3    H272936   1.379   3.026   4.094  0.6801 -1.1340 -0.4506
17149TIP3   OH272937   3.983   6.719  15.873  0.8251  1.0906 -0.6838
17149TIP3    H172938   4.011   6.701  15.962  1.9490  1.1128 -1.0321
17149TIP3    H272939   3.934   6.641  15.847  0.3653  1.1491  0.0036
17150TIP3   OH272940   6.698   1.979   0.565 -0.2636  0.5379 -0.2615
17150TIP3    H172941   6.789   2.008   0.570 -0.4884  0.8354  4.0524
17150TIP3    H272942   6.700   1.889   0.598 -1.5734  0.8020  0.5819
17151TIP3   OH272943   6.237   2.001  11.908 -0.6434  0.1514 -0.8474
17151TIP3    H172944   6.243   2.087  11.949 -3.0620 -0.2607  0.4637
17151TIP3    H272945   6.322   1.960  11.923  0.2464  1.9732 -0.7803
17152TIP3   OH272946   3.277   3.578   1.315  0.1541  0.2195 -0.8073
17152TIP3    H172947   3.223   3.562   1.237 -0.2615 -2.0910 -0.0945
17152TIP3    H272948   3.220   3.554   1.389  2.1530 -2.4084 -0.0418
17153TIP3   OH272949   3.382   0.177  16.299  0.0232 -0.0190  0.1502
17153TIP3    H172950   3.324   0.138  16.234  1.2894 -0.6114 -0.6553
17153TIP3    H272951   3.326   0.194  16.375 -1.4248  0.4663 -1.0031
17154TIP3   OH272952   3.390   2.901   2.482 -0.4681  0.0492 -0.0786
17154TIP3    H172953   3.387   2.806   2.473 -1.2343  0.0257  0.3580
17154TIP3    H272954   3.483   2.922   2.481 -0.2468 -0.8248  0.9872
17155TIP3   OH272955   5.833   5.164   4.007  0.6941  0.2639  0.0563
17155TIP3    H172956   5.874   5.236   3.957 -0.6217 -0.8183 -2.6675
17155TIP3    H272957   5.874   5.085   3.973 -0.8201 -0.5571  0.0970
17156TIP3   OH272958   5.830   0.094  15.931 -0.3239  0.0525  0.9317
17156TIP3    H172959   5.866   0.030  15.992  0.9231 -0.1572 -0.0042
17156TIP3    H272960   5.889   0.170  15.938  0.7064 -0.5216 -1.0569
17157TIP3   OH272961   1.184   0.261  14.893  0.2218  0.2287  0.2947
17157TIP3    H172962   1.257   0.306  14.851 -0.0517  0.0121 -0.4107
17157TIP3    H272963   1.206   0.168  14.887 -0.8703  0.0570 -1.3686
17158TIP3   OH272964   1.203   5.865  15.866 -0.4420 -0.4253 -0.1649
17158TIP3    H172965   1.264   5.845  15.795  2.2830 -1.5291  2.3631
17158TIP3    H272966   1.140   5.793  15.866 -0.5336 -0.3465 -1.5175
17159TIP3   OH272967   6.439   6.335  16.790  0.0091  0.0386 -0.0282
17159TIP3    H172968   6.369   6.346  16.854  1.0188  1.0438  0.9397
17159TIP3    H272969   6.453   6.422  16.753  0.7375 -0.1515 -0.2147
17160TIP3   OH272970   2.841   4.273   5.525  0.3630  0.2480  0.4049
17160TIP3    H172971   2.781   4.337   5.566  1.7955  0.7449  1.7794
17160TIP3    H272972   2.868   4.217   5.598  2.0106  0.3805 -0.1077
17161TIP3   OH272973   6.420   5.644  12.087 -0.3040 -0.7197 -0.0616
17161TIP3    H172974   6.418   5.623  12.180 -1.5382  0.4477  0.1940
17161TIP3    H272975   6.513   5.653  12.065 -0.1044  2.4453  1.8506
17162TIP3   OH272976   2.280   2.937  12.877 -0.2265  0.0364  0.2381
17162TIP3    H172977   2.263   3.024  12.841 -2.3549  0.0649  1.2168
17162TIP3    H272978   2.198   2.889  12.864  0.2061 -1.1358  1.6303
17163TIP3   OH272979   1.214   1.154   4.111  0.3224  0.0750 -0.2097
17163TIP3    H172980   1.207   1.091   4.183  0.1301  0.0267 -0.2715
17163TIP3    H272981   1.259   1.105   4.042  1.9619  0.6130  0.4546
17164TIP3   OH272982   3.709   0.420   1.539  0.1874  0.1213 -0.0254
17164TIP3    H172983   3.766   0.494   1.559  1.9205 -0.2356 -3.2348
17164TIP3    H272984   3.622   0.458   1.527  0.6244  1.3223  0.6044
17165TIP3   OH272985   6.653   2.790   4.412  0.0904  0.8315  0.7471
17165TIP3    H172986   6.672   2.709   4.366 -0.1610  1.5401 -0.6233
17165TIP3    H272987   6.589   2.836   4.357 -0.6733  1.4210  2.0932
17166TIP3   OH272988   0.329   3.675   0.842 -0.0433 -0.6858  0.2051
17166TIP3    H172989   0.374   3.643   0.764  0.1826  0.0151  0.0491
17166TIP3    H272990   0.241   3.696   0.813 -0.2340 -1.2852  0.3373
17167TIP3   OH272991   1.577   2.673  11.683  0.8964  0.0801 -0.7610
17167TIP3    H172992   1.502   2.728  11.710  0.9577 -0.8589  1.4711
17167TIP3    H272993   1.627   2.729  11.624 -0.8674  1.2105 -1.2348
17168TIP3   OH272994   1.907   3.476  12.313 -0.3792 -0.8263 -0.1508
17168TIP3    H172995   1.997   3.495  12.338 -0.4372  0.3949 -0.8301
17168TIP3    H272996   1.914   3.404  12.249  0.2775  0.5348 -1.6466
17169TIP3   OH272997   3.382   6.130   4.340  0.1802 -0.2402 -0.0264
17169TIP3    H172998   3.458   6.073   4.328  1.0121  0.7298  0.5875
17169TIP3    H272999   3.323   6.079   4.396 -0.2501 -1.5569 -1.6327
17170TIP3   OH273000   0.840   3.507  13.109 -0.0287 -0.5003  0.1214
17170TIP3    H173001   0.913   3.470  13.059 -2.0526 -2.2653 -1.6012
17170TIP3    H273002   0.836   3.452  13.188 -0.2309 -1.1527 -0.3386
17171TIP3   OH273003   4.908   6.130   5.257 -0.7811  0.2626  0.2332
17171TIP3    H173004   4.939   6.099   5.342 -0.3276 -0.9085 -0.3526
17171TIP3    H273005   4.831   6.076   5.239 -0.3862 -0.0462 -0.4918
17172TIP3   OH273006   0.671   3.668  16.314  0.1469  0.1079 -0.6742
17172TIP3    H173007   0.726   3.618  16.252 -0.0406 -1.0205  0.0533
17172TIP3    H273008   0.734   3.717  16.367  0.5163 -1.5266  0.4547
17173TIP3   OH273009   2.157   6.149  12.357  1.0148  0.5270 -0.1795
17173TIP3    H173010   2.209   6.142  12.436 -0.3006 -0.7925  0.5824
17173TIP3    H273011   2.066   6.148  12.387  0.5100  0.7632 -1.6367
17174TIP3   OH273012   4.040   2.393  11.223 -0.3617 -0.2031 -0.5352
17174TIP3    H173013   3.954   2.361  11.195 -0.0192 -1.1752 -0.4936
17174TIP3    H273014   4.021   2.450  11.297 -1.0850  0.6834 -1.3724
17175TIP3   OH273015   5.167   5.630  12.507  0.1299  0.1623 -0.2847
17175TIP3    H173016   5.089   5.630  12.452 -0.6902 -0.0458  0.8624
17175TIP3    H273017   5.238   5.657  12.448 -0.6638 -0.4120 -1.5223
17176TIP3   OH273018   5.196   0.009  12.279  0.1194  0.2573 -0.3592
17176TIP3    H173019   5.167   0.062  12.206  1.4464 -1.7823 -2.4362
17176TIP3    H273020   5.289   0.029  12.289 -0.2353  1.1373  1.3208
17177TIP3   OH273021   2.493   3.337  13.309 -0.2607 -0.3409 -0.0819
17177TIP3    H173022   2.465   3.255  13.350  0.4805 -0.4371  0.2305
17177TIP3    H273023   2.588   3.333  13.310 -0.2181 -0.8198 -2.7710
17178TIP3   OH273024   1.223   0.796   0.898 -0.4309 -0.6544 -0.2997
17178TIP3    H173025   1.192   0.857   0.965  0.0768  1.3848 -1.8491
17178TIP3    H273026   1.293   0.747   0.940 -0.6308  0.0751  0.8952
17179TIP3   OH273027   6.442   1.485   1.528  0.1859  0.1016  0.8241
17179TIP3    H173028   6.389   1.551   1.572  0.3431  0.4183  0.5433
17179TIP3    H273029   6.401   1.473   1.442  0.9949  0.9018  0.3134
17180TIP3   OH273030   1.921   2.733  10.646 -0.4711  0.9264 -0.4913
17180TIP3    H173031   1.850   2.786  10.609 -2.9624 -1.7366  0.2474
17180TIP3    H273032   1.904   2.733  10.740 -0.7156 -1.3604 -0.5022
17181TIP3   OH273033   0.081   3.695   4.393  0.0795  0.3031  0.7476
17181TIP3    H173034   0.114   3.671   4.306 -1.4944  1.2021 -0.1332
17181TIP3    H273035   0.151   3.745   4.432  0.7706 -0.0214 -0.0587
17182TIP3   OH273036   4.794   0.259  15.290 -0.4037 -0.3461  0.7029
17182TIP3    H173037   4.741   0.297  15.360 -3.0837  0.3049 -1.6227
17182TIP3    H273038   4.764   0.301  15.210  2.5152 -1.1652 -0.9150
17183TIP3   OH273039   3.232   1.370  15.076  0.1369  0.6892  0.4617
17183TIP3    H173040   3.205   1.338  15.162  0.3359  0.7865  0.5598
17183TIP3    H273041   3.274   1.454  15.094  1.2779  0.1377  0.3945
17184TIP3   OH273042   4.432   2.214   6.328 -0.6427  0.7390 -0.7385
17184TIP3    H173043   4.442   2.122   6.304  0.0368  0.8683 -0.9356
17184TIP3    H273044   4.519   2.243   6.354 -1.3771  0.5073  2.2461
17185TIP3   OH273045   3.333   2.236   5.844  0.6452  0.1442  0.1256
17185TIP3    H173046   3.426   2.257   5.854  0.5994  0.1940  0.4480
17185TIP3    H273047   3.322   2.220   5.750  0.8831  0.6043  0.0177
17186TIP3   OH273048   4.954   1.304   4.603  0.0407  0.8300  0.1899
17186TIP3    H173049   4.861   1.282   4.600  0.4182 -1.5015  2.7924
17186TIP3    H273050   4.994   1.249   4.536 -0.3157  1.0587 -0.2113
17187TIP3   OH273051   2.452   5.159   0.386  0.1911  0.0516  0.1291
17187TIP3    H173052   2.418   5.249   0.384  0.3854  0.0927 -1.4268
17187TIP3    H273053   2.512   5.154   0.312 -1.0461 -1.8553 -0.7567
17188TIP3   OH273054   1.056   3.368  15.474 -0.2096  0.3926 -0.0039
17188TIP3    H173055   1.148   3.362  15.448 -0.0312  0.6365  0.5643
17188TIP3    H273056   1.051   3.448  15.527 -0.4211 -0.4499  1.2725
17189TIP3   OH273057   5.558   2.130   1.403 -0.0813  0.2654  0.0784
17189TIP3    H173058   5.495   2.064   1.430 -0.9506 -0.0503 -2.5997
17189TIP3    H273059   5.542   2.205   1.461 -0.3806 -1.1561  1.8541
17190TIP3   OH273060   2.516   5.484  12.650 -0.1522  0.1661  0.2822
17190TIP3    H173061   2.575   5.558  12.637 -0.1908  0.2520  0.6084
17190TIP3    H273062   2.431   5.523  12.669 -0.1545  0.0368  0.5322
17191TIP3   OH273063   5.258   6.723  11.940 -0.0140 -0.1385  0.4312
17191TIP3    H173064   5.299   6.809  11.949  1.5048 -1.0562  3.0472
17191TIP3    H273065   5.281   6.695  11.852  1.3082  1.2639  0.3007
17192TIP3   OH273066   3.032   1.191   1.630  0.2413  0.4816  0.3428
17192TIP3    H173067   3.020   1.181   1.536  0.4967  2.5993  0.0510
17192TIP3    H273068   2.952   1.233   1.660  1.3338  2.4542  0.5726
17193TIP3   OH273069   4.704   1.153  11.191  0.2044 -0.1586 -0.2641
17193TIP3    H173070   4.696   1.067  11.233 -2.2534 -0.1459 -0.6336
17193TIP3    H273071   4.614   1.178  11.170  0.6962  3.2154  1.2455
17194TIP3   OH273072   5.282   3.511   2.700 -0.1938 -0.4250 -0.1704
17194TIP3    H173073   5.215   3.551   2.644  1.6813  1.6450 -1.0375
17194TIP3    H273074   5.269   3.417   2.690 -1.6540 -0.0596 -1.9555
17195TIP3   OH273075   5.690   1.737   5.473  0.0964  0.2645 -0.6831
17195TIP3    H173076   5.687   1.828   5.441  1.0439  0.2711 -0.7860
17195TIP3    H273077   5.704   1.745   5.567 -1.6441  0.2330 -0.4003
17196TIP3   OH273078   0.589   0.647   2.366 -0.1717 -0.1991  0.8351
17196TIP3    H173079   0.562   0.619   2.279 -0.1654  0.5307  0.5939
17196TIP3    H273080   0.538   0.726   2.383 -1.5987 -1.3830  2.2877
17197TIP3   OH273081   0.623   1.834  15.009  0.4284  0.4591 -0.0409
17197TIP3    H173082   0.543   1.879  14.985 -0.0519 -0.2085  0.2810
17197TIP3    H273083   0.621   1.753  14.957  1.0561  0.5962 -0.2828
17198TIP3   OH273084   4.523   0.873  14.557 -0.1245 -0.8513  0.0761
17198TIP3    H173085   4.522   0.798  14.616  1.3943 -2.1426 -1.4815
17198TIP3    H273086   4.430   0.891  14.540 -0.5902 -0.5172  2.7060
17199TIP3   OH273087   0.975   1.062  12.501  0.1262 -0.3631  1.0836
17199TIP3    H173088   0.989   1.079  12.594 -1.3733  2.9931  0.7486
17199TIP3    H273089   0.881   1.073  12.488  0.5959  1.1250 -1.1943
17200TIP3   OH273090   1.176   1.837  13.798  0.1164  0.5119  0.0481
17200TIP3    H173091   1.252   1.863  13.850  0.7138  0.1027 -0.6155
17200TIP3    H273092   1.125   1.918  13.789  2.1951  1.6064 -2.3961
17201TIP3   OH273093   1.058   5.379   1.284 -0.1911  0.0805 -0.0769
17201TIP3    H173094   1.110   5.325   1.343 -0.0602 -0.0286 -0.2919
17201TIP3    H273095   0.973   5.335   1.279 -0.5734  0.6743  0.8892
17202TIP3   OH273096   6.465   0.703   0.856 -0.3177 -0.2852  0.3703
17202TIP3    H173097   6.440   0.734   0.943 -1.2581  0.7159 -0.2438
17202TIP3    H273098   6.409   0.752   0.796 -0.4069 -1.7095 -0.7486
17203TIP3   OH273099   1.234   3.853   5.354 -0.2824  0.4062 -0.0353
17203TIP3    H173100   1.244   3.945   5.378  1.5885  0.7093 -1.8552
17203TIP3    H273101   1.232   3.806   5.438 -0.8418  2.0604  0.8857
17204TIP3   OH273102   1.764   0.747   0.982 -0.4056  0.3902  0.7139
17204TIP3    H173103   1.735   0.756   1.073  0.9239  2.4094  0.9600
17204TIP3    H273104   1.835   0.810   0.973 -0.1168 -0.2214 -1.5733
17205TIP3   OH273105   3.217   0.344   0.709 -0.2600 -0.1532 -0.1773
17205TIP3    H173106   3.219   0.305   0.621 -0.8979  0.5422 -0.5007
17205TIP3    H273107   3.189   0.434   0.695  0.4162  0.1975  0.6643
17206TIP3   OH273108   6.200   2.664   3.588  0.5879 -0.1575  0.0093
17206TIP3    H173109   6.136   2.723   3.549 -2.8604 -3.0303  1.1250
17206TIP3    H273110   6.237   2.616   3.513 -0.0100  0.0688 -0.4334
17207TIP3   OH273111   2.942   3.087   3.537  0.5582  0.1241  0.2226
17207TIP3    H173112   2.882   3.160   3.528  0.1893 -0.3088 -0.8375
17207TIP3    H273113   2.971   3.068   3.448  1.0201 -0.7095  0.5413
17208TIP3   OH273114   6.671   0.800   3.058  0.2039  0.6104 -0.1622
17208TIP3    H173115   6.710   0.840   3.135  1.0220 -0.0503 -0.2325
17208TIP3    H273116   6.608   0.866   3.026 -2.5721 -0.4355  2.9528
17209TIP3   OH273117   0.369   6.079   6.708  0.7485  0.1846 -0.1002
17209TIP3    H173118   0.311   6.036   6.771 -0.2381 -0.7253 -1.5973
17209TIP3    H273119   0.322   6.158   6.683  0.6671  0.0235 -0.4596
17210TIP3   OH273120   5.155   1.525   0.011  0.1050  0.2822  0.1728
17210TIP3    H173121   5.111   1.444   0.038 -0.7169 -0.0130 -1.9622
17210TIP3    H273122   5.192   1.505  -0.075 -1.6672  2.7238 -1.2267
17211TIP3   OH273123   1.357   6.152   4.761  0.2249  0.0262  0.0365
17211TIP3    H173124   1.312   6.099   4.826  0.1421 -0.0082 -0.0475
17211TIP3    H273125   1.334   6.242   4.783 -0.4878 -0.0314 -0.4452
17212TIP3   OH273126   6.478   4.079   0.287  0.5696 -0.0583 -0.0343
17212TIP3    H173127   6.489   3.998   0.237 -0.5833 -1.6900  2.2724
17212TIP3    H273128   6.390   4.109   0.265  0.5124 -0.1323  0.0909
17213TIP3   OH273129   6.252   2.629  15.512  0.0991  0.5325 -0.0161
17213TIP3    H173130   6.190   2.556  15.516 -1.0152  1.5547  1.7997
17213TIP3    H273131   6.235   2.671  15.427  0.8502 -1.3572 -1.1425
17214TIP3   OH273132   5.342   4.726   5.476  0.4579 -0.0575  0.6588
17214TIP3    H173133   5.378   4.799   5.526 -0.4427 -0.5636  2.0786
17214TIP3    H273134   5.400   4.653   5.494  0.5301 -0.0619  0.4071
17215TIP3   OH273135   0.604   0.199  16.015 -0.5741  0.0813  0.3416
17215TIP3    H173136   0.680   0.175  16.069 -0.3381  0.1596  0.0490
17215TIP3    H273137   0.571   0.116  15.981  0.3966  0.1744 -0.8698
17216TIP3   OH273138   5.762   4.226   3.864  0.1824  0.0283  0.2108
17216TIP3    H173139   5.781   4.309   3.907  1.0471  0.0656 -0.2180
17216TIP3    H273140   5.846   4.198   3.827 -0.3092 -0.5280 -0.5212
17217TIP3   OH273141   4.909   2.418  15.703  0.2666  0.3661  0.1595
17217TIP3    H173142   4.874   2.501  15.670  2.5382  1.0326 -0.6896
17217TIP3    H273143   4.947   2.376  15.626  0.2649 -0.8774  0.8313
17218TIP3   OH273144   4.261   4.641   5.674  0.2982 -0.0935 -0.3886
17218TIP3    H173145   4.352   4.620   5.694  0.2086  2.0871  2.8011
17218TIP3    H273146   4.266   4.722   5.623  0.1588  0.2983  0.2097
17219TIP3   OH273147   5.733   0.338  15.462 -0.1274 -0.2412 -0.4141
17219TIP3    H173148   5.660   0.396  15.439 -0.1195 -0.1683 -0.2621
17219TIP3    H273149   5.767   0.307  15.379 -1.8101 -2.1426 -0.4089
17220TIP3   OH273150   1.953   2.690  11.603  0.5107 -0.0426  0.0727
17220TIP3    H173151   1.955   2.774  11.557  0.8280  1.2241  2.3206
17220TIP3    H273152   1.946   2.714  11.696 -1.1803 -2.5340  0.6419
17221TIP3   OH273153   4.529   4.576   5.773  0.3211  0.0826 -0.1303
17221TIP3    H173154   4.573   4.582   5.858 -0.8367  1.0662  0.4140
17221TIP3    H273155   4.515   4.667   5.746  0.6603 -0.2200 -1.3744
17222TIP3   OH273156   2.006   3.825  11.666  0.1033  0.0589 -0.5518
17222TIP3    H173157   1.996   3.732  11.682  1.9742 -0.1640 -0.5273
17222TIP3    H273158   2.053   3.859  11.742 -2.2711  1.4120  0.3622
17223TIP3   OH273159   3.532   5.291   3.457 -0.3166 -0.5225 -0.6011
17223TIP3    H173160   3.536   5.386   3.471 -0.2124 -0.5668 -0.3202
17223TIP3    H273161   3.478   5.280   3.379  1.1577 -0.1352 -1.7050
17224TIP3   OH273162   1.532   6.573  12.781 -0.4020  0.0651 -0.0627
17224TIP3    H173163   1.560   6.542  12.867  1.7730 -2.3495 -1.5672
17224TIP3    H273164   1.508   6.664  12.795  0.0498 -0.2412  3.0613
17225TIP3   OH273165   0.999   3.606   0.163  0.3462  0.2199  0.1519
17225TIP3    H173166   1.049   3.655   0.098 -2.6048  0.8964 -1.7391
17225TIP3    H273167   0.965   3.673   0.223  0.0444 -0.0125  0.2402
17226TIP3   OH273168   4.512   3.462   4.333  0.2955 -0.1623  0.0296
17226TIP3    H173169   4.487   3.381   4.287 -0.1209  0.7203 -1.3119
17226TIP3    H273170   4.501   3.441   4.426 -0.7854 -1.3276 -0.3543
17227TIP3   OH273171   5.795   2.269   1.694 -0.7185  0.3360  0.2586
17227TIP3    H173172   5.867   2.235   1.641 -0.6250 -1.8240  1.7062
17227TIP3    H273173   5.724   2.283   1.632 -0.3001 -1.2041 -0.5926
17228TIP3   OH273174   5.063   0.063   0.050  0.9024  0.3851 -0.0618
17228TIP3    H173175   5.119  -0.013   0.038 -0.2698 -0.2764 -1.4408
17228TIP3    H273176   4.984   0.029   0.092  1.2396  1.2051  1.2793
17229TIP3   OH273177   5.362   5.974  12.464 -0.6744 -0.1505  0.0783
17229TIP3    H173178   5.344   5.880  12.472 -1.3704 -0.0617 -0.3667
17229TIP3    H273179   5.441   5.979  12.412 -1.3924 -0.4572 -1.0511
17230TIP3   OH273180   6.209   0.766   4.108 -0.7963  0.3246 -0.2700
17230TIP3    H173181   6.162   0.813   4.039  0.8548  0.1624 -1.5304
17230TIP3    H273182   6.296   0.804   4.109 -0.1775 -1.0497  0.3591
17231TIP3   OH273183   2.910   3.993  14.521  0.1553 -0.2277 -0.2490
17231TIP3    H173184   2.848   4.001  14.593  0.6556  0.3956  0.1101
17231TIP3    H273185   2.982   3.942  14.557 -0.5363 -1.7192 -0.9258
17232TIP3   OH273186   0.874   1.811   3.887  0.0229  0.2041 -0.7924
17232TIP3    H173187   0.968   1.824   3.873  0.0068  1.9362  0.5367
17232TIP3    H273188   0.857   1.850   3.972 -1.8663 -0.3415 -0.9021
17233TIP3   OH273189   5.884   4.310  16.455 -0.5105  0.6558 -0.7054
17233TIP3    H173190   5.925   4.347  16.533 -0.6476  1.1113 -0.8466
17233TIP3    H273191   5.803   4.269  16.488  0.3403 -0.7543 -0.3407
17234TIP3   OH273192   2.073   5.126   2.314  0.0618 -0.2716  0.1389
17234TIP3    H173193   2.055   5.133   2.220  2.7977 -2.1385 -0.5905
17234TIP3    H273194   2.141   5.192   2.330 -1.1212  0.7455  1.0327
17235TIP3   OH273195   2.759   4.744   4.572 -0.0559  0.4085  0.3420
17235TIP3    H173196   2.672   4.731   4.608 -0.1684  0.2251  0.0082
17235TIP3    H273197   2.747   4.741   4.477  0.4886 -0.8653  0.2922
17236TIP3   OH273198   0.572   6.287  13.078  0.7761 -0.9580 -0.1787
17236TIP3    H173199   0.506   6.298  13.147  0.2029 -0.1070 -0.8683
17236TIP3    H273200   0.538   6.336  13.003  1.8767 -1.0576 -0.7536
17237TIP3   OH273201   3.557   4.944   1.584 -0.1982  0.3692  0.7352
17237TIP3    H173202   3.537   5.034   1.611  1.0813  0.5684  1.0578
17237TIP3    H273203   3.606   4.954   1.502 -1.1553 -0.0928  0.1032
17238TIP3   OH273204   3.786   3.292   1.658 -0.3141  0.2205  0.0315
17238TIP3    H173205   3.782   3.386   1.643 -1.5015  0.1561 -0.1294
17238TIP3    H273206   3.741   3.254   1.582 -0.0749 -0.4610  0.2272
17239TIP3   OH273207   6.008   6.763   5.932 -0.6265 -0.0410  0.0062
17239TIP3    H173208   5.936   6.737   5.875 -1.7722  0.1648  1.3036
17239TIP3    H273209   5.968   6.825   5.994  0.1835 -1.4644  2.0236
17240TIP3   OH273210   2.095   0.660   0.516  0.3955  0.6695 -0.5249
17240TIP3    H173211   2.050   0.737   0.551  1.2108  0.0597  1.9614
17240TIP3    H273212   2.026   0.595   0.505  0.1556  0.8131  0.1312
17241TIP3   OH273213   0.828   6.342   0.512 -0.1580  0.5356 -0.5003
17241TIP3    H173214   0.909   6.379   0.548  0.2024 -0.6617 -0.0679
17241TIP3    H273215   0.759   6.403   0.540  0.2370  0.1392  1.4039
17242TIP3   OH273216   5.942   3.034  12.892  0.2936 -0.2589  0.0088
17242TIP3    H173217   6.020   2.978  12.897  1.0424  0.9256  1.9445
17242TIP3    H273218   5.923   3.038  12.798  2.1071 -1.1884 -0.4398
17243TIP3   OH273219   3.190   0.079   2.147  0.7518 -0.1963  0.4348
17243TIP3    H173220   3.225   0.135   2.077 -0.3156  0.5350  0.4635
17243TIP3    H273221   3.136   0.138   2.200  0.7210 -0.9687  1.2763
17244TIP3   OH273222   6.175   3.185  12.339 -0.0616 -0.6921 -0.6948
17244TIP3    H173223   6.207   3.268  12.303  0.6387 -1.1186 -1.0844
17244TIP3    H273224   6.218   3.178  12.424 -0.1816 -0.6128 -0.6285
17245TIP3   OH273225   4.349   1.050   2.188 -0.0457  0.1455  0.0464
17245TIP3    H173226   4.280   1.112   2.163 -1.0501 -1.2273 -0.6362
17245TIP3    H273227   4.355   1.058   2.284  0.8130  2.2995 -0.1679
17246TIP3   OH273228   5.437   1.805   5.652 -0.8225 -0.9204 -0.1315
17246TIP3    H173229   5.460   1.739   5.587 -1.3554  0.0797 -1.3510
17246TIP3    H273230   5.515   1.814   5.707 -0.0361 -1.0819 -1.2234
17247TIP3   OH273231   2.924   6.508  14.668 -0.0038 -0.1317 -0.0401
17247TIP3    H173232   2.841   6.556  14.666 -1.0835 -1.9913 -0.8723
17247TIP3    H273233   2.943   6.498  14.761  0.3366  2.0195  0.1583
17248TIP3   OH273234   4.102   0.656   5.076  0.2143  0.0289  0.0528
17248TIP3    H173235   4.143   0.742   5.087  0.5832  0.5163 -4.2995
17248TIP3    H273236   4.170   0.603   5.034 -1.3992 -1.1846 -1.0478
17249TIP3   OH273237   6.001   2.852   4.648 -0.2033 -1.0090  0.1546
17249TIP3    H173238   6.016   2.762   4.678 -1.7885 -0.4132  2.8978
17249TIP3    H273239   5.907   2.858   4.635 -0.4227  0.8751  2.2429
17250TIP3   OH273240   6.201   5.609   6.403  0.0028 -0.1780 -0.6552
17250TIP3    H173241   6.164   5.560   6.476 -1.4070 -0.7920 -1.7456
17250TIP3    H273242   6.281   5.561   6.379 -1.7906 -2.4997 -2.2507
17251TIP3   OH273243   6.226   4.426   3.314  0.8963  0.2525  0.7720
17251TIP3    H173244   6.259   4.418   3.403  2.1154  1.8531  0.4990
17251TIP3    H273245   6.260   4.510   3.283 -1.8780  1.0628 -0.2310
17252TIP3   OH273246   1.637   5.318   2.415  0.3839  0.3037  0.0577
17252TIP3    H173247   1.564   5.286   2.467  0.8555 -0.1757  0.4330
17252TIP3    H273248   1.642   5.412   2.433  0.6384  0.1106  0.9900
17253TIP3   OH273249   4.359   5.615  16.871 -0.1157 -0.1110 -0.5684
17253TIP3    H173250   4.275   5.658  16.857  0.1866  0.1489 -1.6574
17253TIP3    H273251   4.406   5.627  16.789  1.2736  0.3906  0.2718
17254TIP3   OH273252   2.863   0.701  12.161  0.3314 -0.5053 -0.0186
17254TIP3    H173253   2.773   0.734  12.154  0.4345 -0.2160  0.0191
17254TIP3    H273254   2.854   0.616  12.204  0.0403 -0.6456 -0.3604
17255TIP3   OH273255   2.615   2.509  17.191  0.0276 -0.2538 -0.1816
17255TIP3    H173256   2.688   2.486  17.135  2.2765 -0.3408  2.6731
17255TIP3    H273257   2.609   2.604  17.185  0.2243 -0.2656 -0.5867
17256TIP3   OH273258   5.202   5.409   0.594 -0.5465  0.3468  0.1175
17256TIP3    H173259   5.139   5.364   0.649  0.8011 -0.2494  1.2114
17256TIP3    H273260   5.178   5.384   0.504 -1.3893 -0.4871  0.5661
17257TIP3   OH273261   3.903   2.007  13.004 -0.2922 -0.2869  0.0439
17257TIP3    H173262   3.983   1.955  13.008 -1.6194 -2.4336 -0.5310
17257TIP3    H273263   3.885   2.017  12.910 -0.6705  0.2698  0.1709
17258TIP3   OH273264   0.845   3.709   4.981 -0.0661 -0.3612 -0.1274
17258TIP3    H173265   0.832   3.621   5.015  0.4867 -0.1504  0.6524
17258TIP3    H273266   0.893   3.755   5.051 -1.0167  0.7803 -0.2065
17259TIP3   OH273267   3.684   6.340   1.803 -0.1837 -0.6869  0.2812
17259TIP3    H173268   3.657   6.319   1.892  0.5240 -0.0636  0.6476
17259TIP3    H273269   3.604   6.331   1.751 -1.2353  1.5744  1.4194
17260TIP3   OH273270   0.822   2.401   0.892 -0.2087 -0.2537 -0.3973
17260TIP3    H173271   0.896   2.358   0.933 -0.0131 -0.4119 -0.9113
17260TIP3    H273272   0.800   2.473   0.951  0.8190  0.2401 -0.6038
17261TIP3   OH273273   6.812   3.478  11.555 -0.5210 -0.1467  0.6900
17261TIP3    H173274   6.839   3.446  11.469 -0.6955  1.2041  0.1195
17261TIP3    H273275   6.716   3.476  11.553 -0.5412  1.0563  0.4007
17262TIP3   OH273276   1.714   0.418  13.949  0.1120 -0.3226  0.0721
17262TIP3    H173277   1.694   0.368  14.027 -1.5907 -2.1420 -1.4891
17262TIP3    H273278   1.777   0.365  13.901 -1.0496 -0.6302 -1.1700
17263TIP3   OH273279   6.645   0.843  11.250  0.0900 -0.5956 -0.6047
17263TIP3    H173280   6.676   0.864  11.162  2.3273 -1.4808 -0.0537
17263TIP3    H273281   6.550   0.841  11.242  0.2405  0.1354 -2.8193
17264TIP3   OH273282   3.401   6.505   3.362  0.3702  0.4132  0.1842
17264TIP3    H173283   3.420   6.459   3.280 -0.5784 -0.9846  0.7322
17264TIP3    H273284   3.305   6.506   3.366  0.4132 -0.1818  1.6345
17265TIP3   OH273285   0.667   1.808   1.278 -0.1397  0.6896 -0.8327
17265TIP3    H173286   0.711   1.725   1.261  0.8186  0.8361  0.8108
17265TIP3    H273287   0.715   1.846   1.351 -2.0207  1.5891 -0.0249
17266TIP3   OH273288   0.887   1.157   5.724 -0.4595 -0.3012 -0.3851
17266TIP3    H173289   0.968   1.109   5.711 -0.6376 -0.8749  0.6454
17266TIP3    H273290   0.844   1.155   5.638 -0.1665 -1.4294 -0.5088
17267TIP3   OH273291   4.386   4.136  12.145 -0.2250  0.3928 -0.0926
17267TIP3    H173292   4.349   4.061  12.192  1.3742 -1.7592 -2.1476
17267TIP3    H273293   4.320   4.159  12.080 -1.3737  1.8094  1.5095
17268TIP3   OH273294   6.729   1.497  13.137  0.4697 -0.0719  0.4935
17268TIP3    H173295   6.821   1.522  13.125 -0.0189  1.1749 -0.9792
17268TIP3    H273296   6.682   1.553  13.075 -1.4080  0.1927  2.1294
17269TIP3   OH273297   1.063   6.734  15.314  0.0685  0.5418  0.0806
17269TIP3    H173298   1.025   6.653  15.279  1.0548 -0.1903  0.6958
17269TIP3    H273299   1.005   6.758  15.387  0.2471 -0.0583  0.4208
17270TIP3   OH273300   4.391   1.066  16.078 -0.2708  0.1073 -0.3627
17270TIP3    H173301   4.303   1.102  16.085 -1.0887 -1.0848 -3.5947
17270TIP3    H273302   4.445   1.141  16.052 -0.5501  0.5923  0.4477
17271TIP3   OH273303   5.526   0.426  15.315 -0.4064  0.0322  0.0968
17271TIP3    H173304   5.525   0.386  15.228 -0.5048 -1.6957  0.8609
17271TIP3    H273305   5.434   0.448  15.332 -0.3722  0.4581 -0.2825
17272TIP3   OH273306   1.400   5.756  12.306 -0.5267 -0.5673 -0.3724
17272TIP3    H173307   1.476   5.699  12.319  0.2891  0.1157 -1.9646
17272TIP3    H273308   1.401   5.776  12.212  0.1098  3.3057  0.3816
17273TIP3   OH273309   4.700   5.855  12.851 -0.4251  0.6163 -0.5142
17273TIP3    H173310   4.666   5.944  12.851  0.7673  1.0849 -2.1130
17273TIP3    H273311   4.789   5.862  12.817 -0.8424 -1.3597 -2.1886
17274TIP3   OH273312   3.631   3.606   5.495 -0.5479  0.4229 -0.0699
17274TIP3    H173313   3.706   3.574   5.545 -1.6687 -1.3025  0.5936
17274TIP3    H273314   3.599   3.529   5.447 -1.7399  1.1728 -0.5182
17275TIP3   OH273315   6.183   0.447  16.156  0.1812  0.0059 -0.1917
17275TIP3    H173316   6.252   0.402  16.204 -1.0224 -1.9131 -0.2249
17275TIP3    H273317   6.131   0.491  16.223 -0.0713 -0.6615  0.0470
17276TIP3   OH273318   3.605   5.290  15.750  0.0593 -0.7001  0.1819
17276TIP3    H173319   3.669   5.337  15.803 -1.4541 -0.4774  1.8438
17276TIP3    H273320   3.569   5.356  15.690  1.0575 -0.7373 -0.4728
17277TIP3   OH273321   0.640   5.372   2.084 -0.6081  0.1743  0.1249
17277TIP3    H173322   0.575   5.306   2.107 -1.6213  0.0739 -2.8351
17277TIP3    H273323   0.723   5.324   2.086 -1.2620 -1.0855 -1.3897
17278TIP3   OH273324   0.448   4.545   2.481  0.5283  0.2168  0.0949
17278TIP3    H173325   0.481   4.458   2.459 -2.9492 -2.0288  3.3719
17278TIP3    H273326   0.525   4.591   2.516  2.2287 -1.7516 -0.8967
17279TIP3   OH273327   1.289   6.183   2.376  0.2242 -0.2753  0.6595
17279TIP3    H173328   1.234   6.147   2.306 -0.1526  1.6793 -0.0810
17279TIP3    H273329   1.233   6.183   2.453 -0.6231  1.0697  0.0663
17280TIP3   OH273330   1.333   1.420   2.124  0.2064 -0.0632  0.2914
17280TIP3    H173331   1.246   1.387   2.100  0.3813 -1.3509  1.3569
17280TIP3    H273332   1.378   1.433   2.041 -0.3938 -1.1045 -0.2081
17281TIP3   OH273333   5.995   5.442   2.621 -0.0765 -0.5756 -0.3870
17281TIP3    H173334   5.939   5.500   2.671 -1.5455 -1.2629 -1.1931
17281TIP3    H273335   5.982   5.355   2.660 -0.0326 -0.8414 -0.9448
17282TIP3   OH273336   2.128   2.096  12.749  0.4841  0.1202 -0.4873
17282TIP3    H173337   2.135   2.139  12.664 -0.2472 -0.6618 -0.9583
17282TIP3    H273338   2.197   2.030  12.749  0.9159  0.5745 -0.2035
17283TIP3   OH273339   4.934   3.950  11.021 -0.0300  0.3131 -0.4572
17283TIP3    H173340   4.939   4.043  11.041  2.6425 -0.1336  1.2434
17283TIP3    H273341   4.953   3.906  11.104 -0.2223 -1.7416 -1.4572
17284TIP3   OH273342   3.743   3.924   0.373 -0.4035  0.2687 -0.3732
17284TIP3    H173343   3.670   3.938   0.434  0.2518 -1.2532  0.7947
17284TIP3    H273344   3.810   3.986   0.401 -0.7389  0.7528 -0.6251
17285TIP3   OH273345   4.136   5.522  12.312 -0.0145 -0.1528 -0.8476
17285TIP3    H173346   4.113   5.613  12.295 -2.9921 -0.7207 -0.1907
17285TIP3    H273347   4.189   5.525  12.392 -1.1251  0.9192 -0.1386
17286TIP3   OH273348   4.099   0.373   1.560 -0.5644 -0.2170 -0.4859
17286TIP3    H173349   4.049   0.384   1.641 -0.7865  0.5064 -0.7183
17286TIP3    H273350   4.033   0.354   1.493 -0.5916  1.1564 -0.8752
17287TIP3   OH273351   3.863   2.229  15.303  0.2633  0.0635 -0.1731
17287TIP3    H173352   3.921   2.212  15.377  1.1420  0.3271 -0.7854
17287TIP3    H273353   3.888   2.317  15.273  0.9985 -0.6518 -1.7413
17288TIP3   OH273354   3.150   5.361   3.598  0.1318  0.0853 -0.3241
17288TIP3    H173355   3.073   5.318   3.634 -0.9180  1.3906 -0.9642
17288TIP3    H273356   3.203   5.290   3.561 -1.0672 -0.7532 -0.4364
17289TIP3   OH273357   3.323   5.000   2.322 -0.6597  0.6405 -0.4647
17289TIP3    H173358   3.282   5.087   2.320  0.3042  1.1362  0.6275
17289TIP3    H273359   3.323   4.975   2.414  1.4423  0.6707 -0.4145
17290TIP3   OH273360   1.065   2.755   0.826 -0.3648 -0.2628 -0.1518
17290TIP3    H173361   1.080   2.780   0.735  0.0293  2.0848  0.5168
17290TIP3    H273362   0.987   2.803   0.852 -0.1512 -0.4776  0.9229
17291TIP3   OH273363   2.602   2.927   5.818 -0.0086 -0.1026 -0.4049
17291TIP3    H173364   2.561   2.919   5.732  2.2965 -0.6566 -1.5043
17291TIP3    H273365   2.612   2.837   5.848  0.9902 -0.0125 -0.4532
17292TIP3   OH273366   6.473   0.745  17.094 -0.0859  0.7854  0.5371
17292TIP3    H173367   6.527   0.666  17.085 -1.0920  0.1401  0.0858
17292TIP3    H273368   6.536   0.814  17.117  1.3765  0.6733 -2.7654
17293TIP3   OH273369   4.400   6.563   1.157 -0.2886  0.1742  0.1755
17293TIP3    H173370   4.439   6.557   1.244 -2.0346 -0.6435  0.9094
17293TIP3    H273371   4.411   6.476   1.120 -0.4764  0.2402 -0.0367
17294TIP3   OH273372   3.159   2.976  13.337  0.6035 -0.0232  0.2364
17294TIP3    H173373   3.108   2.917  13.282 -0.4195  1.3987 -0.3810
17294TIP3    H273374   3.117   2.970  13.423  0.5343 -0.2218  0.1903
17295TIP3   OH273375   1.901   0.186   3.847 -0.0364 -0.3775  0.1295
17295TIP3    H173376   1.833   0.223   3.791  0.3984  0.4070  0.1033
17295TIP3    H273377   1.975   0.172   3.788 -0.4462 -2.0157 -0.0147
17296TIP3   OH273378   2.290   2.970   2.214 -0.2369  0.2210  0.0107
17296TIP3    H173379   2.287   2.936   2.124  1.9815  0.4618 -0.1968
17296TIP3    H273380   2.362   2.922   2.255 -0.6898  0.7186  1.4061
17297TIP3   OH273381   0.274   1.211  13.772 -0.7640  0.0665  0.0394
17297TIP3    H173382   0.194   1.170  13.738  0.2745 -0.4084 -1.8622
17297TIP3    H273383   0.272   1.300  13.736  0.6692 -0.6426 -1.9075
17298TIP3   OH273384   1.189   3.556   2.553  0.3080 -0.0911  0.4438
17298TIP3    H173385   1.240   3.493   2.501 -0.2551 -1.1348  1.1297
17298TIP3    H273386   1.218   3.540   2.643 -0.3056  0.2110  0.6929
17299TIP3   OH273387   1.391   0.015  13.222  0.1603  0.7678 -0.2777
17299TIP3    H173388   1.319  -0.032  13.180  0.0706  0.3589  0.3301
17299TIP3    H273389   1.393   0.101  13.178 -1.1363  1.0320  0.1733
17300TIP3   OH273390   1.201   0.064  11.795  0.8557  0.7932  0.0996
17300TIP3    H173391   1.294   0.042  11.795 -0.0246 -3.4126  1.1666
17300TIP3    H273392   1.169   0.033  11.880 -2.0899 -0.6693 -1.4730
17301TIP3   OH273393   0.119   2.678   3.429  0.1636 -0.4958  0.0722
17301TIP3    H173394   0.081   2.623   3.360 -0.3413 -1.9787  1.4916
17301TIP3    H273395   0.205   2.639   3.445  0.4217  0.0621  0.0420
17302TIP3   OH273396   5.183   3.928   3.461  0.1698  0.2273  0.3171
17302TIP3    H173397   5.189   3.962   3.550 -0.0976 -0.0765  0.4518
17302TIP3    H273398   5.124   3.989   3.416  1.8392  1.4975 -0.1925
17303TIP3   OH273399   3.005   6.234   2.121  0.2521 -0.0916  0.6280
17303TIP3    H173400   3.035   6.249   2.031  0.1061 -3.0962  0.0146
17303TIP3    H273401   2.913   6.261   2.119  1.2517  3.7249  1.0280
17304TIP3   OH273402   6.528   5.675   1.627  0.2194 -0.1656 -0.7625
17304TIP3    H173403   6.438   5.702   1.612  0.6629 -0.8062 -5.4785
17304TIP3    H273404   6.576   5.757   1.644 -0.9206  0.3605 -0.0606
17305TIP3   OH273405   0.364   1.508  14.571 -0.1941 -0.6708 -0.0408
17305TIP3    H173406   0.284   1.552  14.601 -0.3188 -0.6615 -0.3831
17305TIP3    H273407   0.343   1.479  14.482  0.3803 -0.1633 -0.3453
17306TIP3   OH273408   5.161   6.018   2.981 -0.2487 -0.1765 -0.2233
17306TIP3    H173409   5.154   5.953   2.910  1.4795 -0.0265 -0.5678
17306TIP3    H273410   5.071   6.045   2.998 -0.8558 -1.5493 -1.1243
17307TIP3   OH273411   1.349   5.492   1.755  0.3172  0.3039 -0.3249
17307TIP3    H173412   1.386   5.408   1.781  0.0340 -0.2435 -1.6570
17307TIP3    H273413   1.395   5.557   1.808  2.6638 -0.4280 -1.4141
17308TIP3   OH273414   0.024   0.939   5.827  0.2916 -0.5185 -0.7953
17308TIP3    H173415   0.057   1.013   5.878 -0.2056 -0.9997  0.2238
17308TIP3    H273416   0.013   0.974   5.738 -0.3840  0.7489 -0.2149
17309TIP3   OH273417   4.624   1.820   2.428  0.3763  0.3063 -0.6465
17309TIP3    H173418   4.608   1.821   2.333  1.2662 -2.0678 -0.8488
17309TIP3    H273419   4.704   1.870   2.439  0.5741  0.1210 -1.2209
17310TIP3   OH273420   2.969   2.595  10.582  0.0646 -0.3552  0.0924
17310TIP3    H173421   3.007   2.516  10.543  1.0056  0.1667 -0.0565
17310TIP3    H273422   3.044   2.647  10.608 -0.4200  2.1938 -3.1933
17311TIP3   OH273423   3.734   6.183  11.412 -0.3038  0.1765  0.3077
17311TIP3    H173424   3.707   6.123  11.481 -1.5069  0.5384  0.1601
17311TIP3    H273425   3.678   6.161  11.337  0.9043 -0.1341 -0.5304
17312TIP3   OH273426   5.521   4.511   0.460 -0.4499 -0.2812 -0.5526
17312TIP3    H173427   5.591   4.573   0.440 -1.6293  1.0224 -0.6638
17312TIP3    H273428   5.455   4.525   0.393 -1.9975  0.3524  1.0453
17313TIP3   OH273429   0.342   3.340   1.212  0.0009 -0.3807 -0.2279
17313TIP3    H173430   0.420   3.321   1.160  1.4226 -0.4677  1.8759
17313TIP3    H273431   0.279   3.273   1.187  2.6227 -3.9516  2.2366
17314TIP3   OH273432   3.936   4.644   1.043 -0.1024 -0.0708  0.2369
17314TIP3    H173433   4.009   4.677   1.096  0.4140  0.4063 -0.7485
17314TIP3    H273434   3.945   4.690   0.959 -2.5196  1.2482  0.6390
17315TIP3   OH273435   3.238   2.198   0.970  0.0112 -0.2351  0.3273
17315TIP3    H173436   3.265   2.286   0.943  0.5860 -0.2478  0.8629
17315TIP3    H273437   3.158   2.212   1.021 -1.3181 -0.2389 -1.6931
17316TIP3   OH273438   4.032   0.601  15.350  0.7565  0.0550  0.4207
17316TIP3    H173439   3.983   0.545  15.290  0.3109  0.1557  0.6836
17316TIP3    H273440   4.051   0.545  15.425  0.4737  0.1970  0.6014
17317TIP3   OH273441   0.168   5.083   5.324  0.0489 -0.0021 -0.1543
17317TIP3    H173442   0.207   5.008   5.281  0.7644 -0.0045  0.4883
17317TIP3    H273443   0.114   5.045   5.394  0.2008  0.0750  0.0034
17318TIP3   OH273444   0.762   3.229  11.740  0.5647  0.4053  0.2105
17318TIP3    H173445   0.680   3.279  11.742  0.0337 -0.4907  1.6981
17318TIP3    H273446   0.778   3.213  11.647 -0.3509  1.5566 -0.1619
17319TIP3   OH273447   0.160   5.712   2.609 -0.8019 -0.3966 -0.1896
17319TIP3    H173448   0.165   5.772   2.534 -1.0639 -0.7001 -0.4496
17319TIP3    H273449   0.109   5.637   2.577 -0.9424 -0.5128  0.3014
17320TIP3   OH273450   5.335   5.299   2.491 -0.0270 -0.1714  0.1179
17320TIP3    H173451   5.404   5.358   2.519  1.7105 -1.9868 -0.2621
17320TIP3    H273452   5.366   5.212   2.513 -1.8746 -1.0859 -0.7166
17321TIP3   OH273453   5.202   3.369  12.884 -0.1966  0.1780  0.3308
17321TIP3    H173454   5.287   3.351  12.924  0.4965 -0.1121 -1.2659
17321TIP3    H273455   5.152   3.288  12.897  0.0057  0.0989  0.6302
17322TIP3   OH273456   5.901   3.077  13.937 -0.0828 -0.2171  1.4488
17322TIP3    H173457   5.808   3.075  13.916  0.4176 -0.9360 -0.8310
17322TIP3    H273458   5.943   3.106  13.856  1.9805 -3.3905  1.3120
17323TIP3   OH273459   0.748   1.369  15.438  0.4612  0.6845  0.3030
17323TIP3    H173460   0.816   1.350  15.373 -0.5400  0.8645 -0.8190
17323TIP3    H273461   0.741   1.465  15.437  0.1655  0.6639  0.3745
17324TIP3   OH273462   2.873   1.281  11.400  0.0901 -1.0370 -1.0006
17324TIP3    H173463   2.888   1.375  11.389 -0.0190 -0.7635  1.0962
17324TIP3    H273464   2.956   1.241  11.373  0.4785 -0.2712 -0.9765
17325TIP3   OH273465   0.067   0.781   4.316  0.4196  0.5705  0.4624
17325TIP3    H173466   0.055   0.865   4.360  0.0364  0.8865 -0.2367
17325TIP3    H273467  -0.022   0.753   4.295  0.4541 -0.5719  1.7205
17326TIP3   OH273468   3.044   4.964  10.334 -0.0822  0.3398 -0.3811
17326TIP3    H173469   3.062   5.057  10.320  0.4374  0.1472 -1.0579
17326TIP3    H273470   3.131   4.924  10.340 -0.3028 -0.1158 -0.1872
17327TIP3   OH273471   2.678   2.473   3.969 -0.8836  0.0078  0.0404
17327TIP3    H173472   2.742   2.412   4.006 -1.7143 -0.9964 -0.1542
17327TIP3    H273473   2.718   2.503   3.887 -1.1782 -1.5585 -0.6949
17328TIP3   OH273474   2.422   6.138  12.498 -0.0958 -0.1310 -0.6816
17328TIP3    H173475   2.404   6.225  12.463 -0.5452  0.1215  0.1829
17328TIP3    H273476   2.470   6.153  12.579 -0.0222 -0.6904 -0.6142
17329TIP3   OH273477   6.141   0.175   4.108 -0.0417  0.4319  0.1911
17329TIP3    H173478   6.150   0.144   4.199  1.4140 -0.4317 -0.2238
17329TIP3    H273479   6.174   0.102   4.055  0.2565  1.4049 -0.9745
17330TIP3   OH273480   3.491   3.242   6.270 -0.1986 -0.9918  0.4226
17330TIP3    H173481   3.546   3.288   6.207  0.2643 -1.8358  0.2108
17330TIP3    H273482   3.406   3.233   6.226  0.4129 -2.4687 -0.4969
17331TIP3   OH273483   1.965   3.901   1.518  0.0296  0.0051  0.7501
17331TIP3    H173484   1.870   3.896   1.506 -0.0465  1.3866  0.6656
17331TIP3    H273485   1.988   3.821   1.565 -1.1051 -0.5769  0.3378
17332TIP3   OH273486   1.407   3.027   1.713  0.3302 -0.4269  0.2447
17332TIP3    H173487   1.426   3.025   1.807 -1.8678  1.3222  0.7611
17332TIP3    H273488   1.317   3.058   1.707  0.4848 -0.3806 -2.4688
17333TIP3   OH273489   4.312   6.315   2.532 -0.6670  0.8833  0.3484
17333TIP3    H173490   4.390   6.314   2.476 -0.9404 -1.7493 -0.0404
17333TIP3    H273491   4.344   6.343   2.617  1.2882 -2.6604  0.9038
17334TIP3   OH273492   1.733   0.835   1.409  0.1043  0.0419 -0.4590
17334TIP3    H173493   1.770   0.878   1.332  1.1575  0.5021  0.2866
17334TIP3    H273494   1.657   0.888   1.432 -0.2104 -0.0902 -1.1592
17335TIP3   OH273495   0.067   2.388   4.021 -0.3908 -0.1788  0.1874
17335TIP3    H173496   0.000   2.424   3.962  0.2099 -0.0663 -0.4271
17335TIP3    H273497   0.150   2.419   3.985  0.1353 -2.0852 -0.2895
17336TIP3   OH273498   4.572   0.145   2.866 -0.5111 -0.1079  0.3310
17336TIP3    H173499   4.568   0.241   2.871  1.2641 -0.0277  0.5689
17336TIP3    H273500   4.546   0.124   2.777  0.8861  0.7278 -0.2867
17337TIP3   OH273501   6.276   1.360  11.650  0.5797  0.2367  0.0210
17337TIP3    H173502   6.203   1.352  11.589  0.9733  0.9342 -0.5526
17337TIP3    H273503   6.256   1.299  11.720 -0.9209  0.9423  0.2302
17338TIP3   OH273504   5.586   3.093  12.014 -0.5480  0.5154 -0.2607
17338TIP3    H173505   5.557   3.159  11.950 -2.5220 -0.7535 -0.7335
17338TIP3    H273506   5.574   3.009  11.969  1.9253 -0.2087  0.3296
17339TIP3   OH273507   3.893   4.186  13.303 -0.3156  0.1618 -0.6530
17339TIP3    H173508   3.836   4.109  13.300  0.6336 -0.5232 -1.3665
17339TIP3    H273509   3.901   4.206  13.396  0.5987 -1.4966 -0.3514
17340TIP3   OH273510   6.337   5.594   1.435 -0.3311  0.0219  0.2019
17340TIP3    H173511   6.322   5.609   1.528  0.4817  1.3111  0.1330
17340TIP3    H273512   6.291   5.667   1.392  0.2884  0.0869 -0.3478
17341TIP3   OH273513   0.912   1.319  13.044 -0.2879 -0.4072  0.1826
17341TIP3    H173514   0.980   1.264  13.084 -0.5729  0.9455  2.6120
17341TIP3    H273515   0.886   1.271  12.965  1.3714 -2.4135  0.8027
17342TIP3   OH273516   5.193   0.561   5.802  0.6957 -0.9161  0.5028
17342TIP3    H173517   5.164   0.469   5.798  0.2310 -0.7502  0.0610
17342TIP3    H273518   5.236   0.568   5.887  1.3160 -1.7206  0.2638
17343TIP3   OH273519   2.563   5.356   3.636  0.3878 -0.7212  0.3120
17343TIP3    H173520   2.518   5.281   3.674  0.9546 -2.4914 -2.4005
17343TIP3    H273521   2.508   5.383   3.562  1.3424  0.1198 -0.1059
17344TIP3   OH273522   0.870   3.830   0.810  0.2224  0.0125 -0.1453
17344TIP3    H173523   0.939   3.797   0.753 -1.7530  0.1206 -2.6757
17344TIP3    H273524   0.880   3.779   0.891  2.4698 -0.8055 -0.8973
17345TIP3   OH273525   2.177   0.697   1.055  0.0164  0.0043 -0.8691
17345TIP3    H173526   2.258   0.738   1.024  0.2162  0.4147  0.2002
17345TIP3    H273527   2.207   0.622   1.107 -0.2830  0.3765 -0.1628
17346TIP3   OH273528   0.051   4.261  12.795  0.8784  0.2212 -0.0022
17346TIP3    H173529   0.061   4.295  12.884 -2.1905  0.0222  0.4625
17346TIP3    H273530   0.030   4.338  12.742 -0.4829 -0.1055  0.0441
17347TIP3   OH273531   6.543   2.044  15.775  0.1048 -0.3297  0.1532
17347TIP3    H173532   6.531   1.949  15.771 -0.4493 -0.2297 -0.5442
17347TIP3    H273533   6.550   2.063  15.869  1.1785 -1.1751  0.2561
17348TIP3   OH273534   4.369   2.459   4.783 -0.4441 -0.0860  0.1762
17348TIP3    H173535   4.278   2.448   4.755 -0.4193 -3.1136  1.1236
17348TIP3    H273536   4.421   2.427   4.709 -0.1999 -0.1809  0.3868
17349TIP3   OH273537   6.485   0.906   2.733  0.4537  0.4616  0.1579
17349TIP3    H173538   6.502   0.948   2.817  1.1048  2.4806 -0.9396
17349TIP3    H273539   6.390   0.913   2.722  0.2513 -0.6022  1.0980
17350TIP3   OH273540   4.857   3.700   5.651  0.0466  0.5213  0.1644
17350TIP3    H173541   4.949   3.696   5.674  0.0381  1.3312  0.3700
17350TIP3    H273542   4.856   3.720   5.558  0.0767 -1.5493 -0.2977
17351TIP3   OH273543   6.028   2.325  11.456  0.3430 -0.0852 -0.1287
17351TIP3    H173544   6.069   2.360  11.535 -0.8539  1.4200 -0.1469
17351TIP3    H273545   5.961   2.265  11.489  1.7925 -1.7319 -0.0823
17352TIP3   OH273546   4.207   2.348   2.657  0.0085  0.2549 -0.1571
17352TIP3    H173547   4.205   2.252   2.657  1.3669  0.1974  2.1461
17352TIP3    H273548   4.123   2.373   2.618 -0.9713 -1.8688  0.4764
17353TIP3   OH273549   2.814   5.827  15.255  0.3206 -0.2713  0.1542
17353TIP3    H173550   2.869   5.792  15.326  1.3366 -1.7389 -1.3158
17353TIP3    H273551   2.780   5.749  15.212 -0.1489  0.6075 -1.0766
17354TIP3   OH273552   2.580   4.586  12.272  0.3318 -0.3526  0.3815
17354TIP3    H173553   2.569   4.501  12.314 -0.3770 -0.4430  0.0232
17354TIP3    H273554   2.529   4.646  12.326  0.5146 -0.2269  0.4134
17355TIP3   OH273555   2.239   1.091  11.420 -0.3248 -0.0082  0.3315
17355TIP3    H173556   2.255   1.046  11.503  1.7326  0.5828  0.2855
17355TIP3    H273557   2.151   1.063  11.394 -0.9456 -0.2889  2.6431
17356TIP3   OH273558   3.480   2.057  13.232 -1.1314 -0.5828 -0.4371
17356TIP3    H173559   3.429   2.129  13.268 -1.4805 -0.9420 -0.2110
17356TIP3    H273560   3.516   2.012  13.308 -1.9449 -1.3932 -0.5146
17357TIP3   OH273561   5.898   3.839   2.529 -0.4038 -0.4081 -0.8218
17357TIP3    H173562   5.989   3.863   2.511 -0.1982  0.6750  1.5014
17357TIP3    H273563   5.891   3.748   2.498  1.4423 -0.4967 -1.0514
17358TIP3   OH273564   5.816   0.464   2.327 -0.1880 -0.2569  0.3365
17358TIP3    H173565   5.849   0.476   2.417 -0.0163  0.0392  0.2358
17358TIP3    H273566   5.878   0.404   2.286  0.3526  0.4644  0.0825
17359TIP3   OH273567   6.112   1.569  10.626 -0.2891  0.0891 -0.5379
17359TIP3    H173568   6.176   1.622  10.578 -1.3182  2.2937  0.4919
17359TIP3    H273569   6.040   1.628  10.645 -1.6764 -1.7942  0.2872
17360TIP3   OH273570   1.736   3.120  15.772 -0.3545 -0.3401 -0.2911
17360TIP3    H173571   1.648   3.151  15.750 -0.6723 -1.5089 -0.6940
17360TIP3    H273572   1.723   3.032  15.806  0.7772 -1.0160 -1.5304
17361TIP3   OH273573   0.170   3.482  14.146 -0.0593  0.4643 -0.0001
17361TIP3    H173574   0.171   3.399  14.098  0.9370  0.4653  0.0057
17361TIP3    H273575   0.232   3.469  14.217 -0.3607  1.0057  0.3617
17362TIP3   OH273576   3.967   6.793   4.715  0.0606  0.0492  0.0483
17362TIP3    H173577   4.036   6.732   4.688  0.9856  1.4322 -0.8002
17362TIP3    H273578   4.002   6.835   4.794 -0.5894 -0.5450  0.6532
17363TIP3   OH273579   4.387   2.719   2.849 -0.3375 -0.3202 -0.1837
17363TIP3    H173580   4.458   2.733   2.787  1.4028 -0.1162  1.7890
17363TIP3    H273581   4.326   2.791   2.833  0.7883  0.5298 -0.7185
17364TIP3   OH273582   4.778   3.752  16.369  0.2012  0.2450  0.4019
17364TIP3    H173583   4.856   3.738  16.315 -0.7268 -1.7164 -0.4942
17364TIP3    H273584   4.812   3.782  16.453  1.7749  1.8300 -0.7445
17365TIP3   OH273585   6.570   5.398  15.181 -0.0773 -0.7776  0.2498
17365TIP3    H173586   6.493   5.391  15.239 -2.3099  1.5555 -2.2955
17365TIP3    H273587   6.557   5.330  15.115 -2.0219  1.9870 -2.3613
17366TIP3   OH273588   2.612   3.044  17.104 -0.3361 -0.7374  0.3078
17366TIP3    H173589   2.555   3.121  17.095 -0.1391 -0.6841 -0.5882
17366TIP3    H273590   2.677   3.069  17.169  1.6307  1.0530 -2.2496
17367TIP3   OH273591   4.815   5.864  14.636 -0.2475  0.5273 -0.1692
17367TIP3    H173592   4.819   5.945  14.584 -0.2320  0.0408 -0.9377
17367TIP3    H273593   4.724   5.857  14.663 -0.6715 -0.1789 -1.7035
17368TIP3   OH273594   3.360   4.964   1.824  0.7761  0.2409  0.0875
17368TIP3    H173595   3.446   4.994   1.852  1.2797 -2.4363  1.5635
17368TIP3    H273596   3.304   4.975   1.901  0.8041 -1.8015  0.4304
17369TIP3   OH273597   5.859   5.301   3.307  0.1741  0.2801  0.0903
17369TIP3    H173598   5.821   5.385   3.333 -0.3212 -0.2074  0.9609
17369TIP3    H273599   5.924   5.282   3.375  0.1244 -0.1440  0.0204
17370TIP3   OH273600   4.679   4.316  16.428  0.6620 -1.0254  0.5118
17370TIP3    H173601   4.633   4.321  16.344  1.1295  1.4237  0.3582
17370TIP3    H273602   4.770   4.297  16.405  1.2538  1.9051  0.2684
17371TIP3   OH273603   2.826   3.560   0.713 -0.2001 -0.2804  0.1998
17371TIP3    H173604   2.802   3.513   0.793 -2.3293  1.5773  0.6928
17371TIP3    H273605   2.813   3.497   0.643 -2.6818 -0.5597  0.8845
17372TIP3   OH273606   1.157   5.544  14.618  0.6654 -0.5314 -0.1759
17372TIP3    H173607   1.171   5.461  14.662 -1.1181 -1.5341 -1.4745
17372TIP3    H273608   1.245   5.573  14.592  1.6310 -0.4449  3.0102
17373TIP3   OH273609   2.399   0.737  13.626 -0.2449 -0.4977  0.1884
17373TIP3    H173610   2.356   0.773  13.704 -0.6433  0.6832 -0.5692
17373TIP3    H273611   2.407   0.643  13.645 -2.0853 -0.5568  0.8539
17374TIP3   OH273612   4.619   5.529   4.340  0.6677 -0.1717 -0.0639
17374TIP3    H173613   4.640   5.436   4.325 -1.1436 -0.6962  0.5285
17374TIP3    H273614   4.584   5.531   4.429  3.2817  1.5533  0.9896
17375TIP3   OH273615   0.092   6.488  12.470 -0.5443 -0.1494  0.2280
17375TIP3    H173616   0.081   6.533  12.554 -1.8385 -0.8489  0.4540
17375TIP3    H273617   0.104   6.558  12.406 -0.0282  0.4082  0.9216
17376TIP3   OH273618   5.024   5.661   4.994  1.0373 -0.5908 -0.3100
17376TIP3    H173619   4.967   5.737   4.981  2.3453  0.3350 -0.7277
17376TIP3    H273620   5.014   5.610   4.913 -0.0471 -1.0231  0.0806
17377TIP3   OH273621   0.861   3.143   0.577 -0.4684  0.4133 -0.8109
17377TIP3    H173622   0.807   3.067   0.598 -0.0629  0.6181  1.1333
17377TIP3    H273623   0.947   3.121   0.612 -0.0801  1.3473 -1.1517
17378TIP3   OH273624   6.611   1.971  12.962  0.4648 -0.4128  0.0175
17378TIP3    H173625   6.638   2.022  13.039  0.7883 -0.1393 -0.2775
17378TIP3    H273626   6.515   1.977  12.962  0.4612 -0.4364  0.4155
17379TIP3   OH273627   3.722   6.013   4.272 -0.0665  0.1080  0.3316
17379TIP3    H173628   3.758   5.957   4.340  0.4485  1.3264  1.0766
17379TIP3    H273629   3.683   5.953   4.210 -0.0603 -1.0435  1.4306
17380TIP3   OH273630   0.672   6.468  15.219  0.2918 -0.1647 -0.4333
17380TIP3    H173631   0.579   6.454  15.201  0.4511 -2.7081  0.4204
17380TIP3    H273632   0.674   6.537  15.286 -0.9323  0.3835 -0.9548
17381TIP3   OH273633   0.275   0.786   5.951  0.6984  0.2256 -0.8268
17381TIP3    H173634   0.187   0.788   5.987  0.3022 -0.7777 -1.7289
17381TIP3    H273635   0.323   0.852   6.001 -0.1298 -0.3724  0.7676
17382TIP3   OH273636   3.783   3.640   1.948 -0.0434 -0.1854  0.0834
17382TIP3    H173637   3.846   3.711   1.959  1.5126 -1.5519  0.3926
17382TIP3    H273638   3.790   3.590   2.029 -1.7131 -0.2256  0.2074
17383TIP3   OH273639   4.395   6.293  15.830 -0.2065  1.3105  0.0021
17383TIP3    H173640   4.379   6.379  15.789  2.2682  2.3037  1.0066
17383TIP3    H273641   4.420   6.314  15.920 -0.1637 -0.5276  0.4343
17384TIP3   OH273642   3.816   5.843   4.465  0.1861  0.1740  0.2388
17384TIP3    H173643   3.911   5.858   4.461  0.1373  1.0318  1.8177
17384TIP3    H273644   3.797   5.839   4.558 -1.4896  1.0231 -0.0552
17385TIP3   OH273645   1.888   4.693   6.298 -0.0000  0.2626  0.2546
17385TIP3    H173646   1.812   4.699   6.241 -0.0444  1.0112  0.3760
17385TIP3    H273647   1.939   4.619   6.264 -0.1453  0.5550 -0.6113
17386TIP3   OH273648   4.794   3.339   5.254  0.1358 -0.1870  0.5065
17386TIP3    H173649   4.728   3.280   5.218 -0.3328  0.6390 -0.0035
17386TIP3    H273650   4.777   3.338   5.349 -0.4469 -0.1675  0.4054
17387TIP3   OH273651   2.460   4.930  13.131  0.6885  0.0133 -0.4918
17387TIP3    H173652   2.404   4.899  13.202  1.6216 -1.7396 -0.4893
17387TIP3    H273653   2.443   5.024  13.126 -0.4168 -0.0831  1.1281
17388TIP3   OH273654   1.242   6.425  15.893  0.9987  0.1411 -0.1913
17388TIP3    H173655   1.301   6.500  15.905  0.3657  0.5585  0.3772
17388TIP3    H273656   1.300   6.352  15.870  2.0761 -0.0876  2.9895
17389TIP3   OH273657   3.850   4.662  16.445 -0.1038 -0.2814  0.2681
17389TIP3    H173658   3.923   4.613  16.482 -0.9917 -0.2681  2.0775
17389TIP3    H273659   3.847   4.743  16.496  0.4827  1.0745 -1.7804
17390TIP3   OH273660   5.358   4.776  13.352 -0.5719  0.0305 -0.4170
17390TIP3    H173661   5.319   4.697  13.389  0.4429 -0.1153  0.3438
17390TIP3    H273662   5.343   4.767  13.257 -0.4993 -1.0496 -0.3375
17391TIP3   OH273663   6.603   6.665   0.034 -0.4176  0.0973 -0.5436
17391TIP3    H173664   6.607   6.751  -0.008 -0.7855  0.2742 -0.2144
17391TIP3    H273665   6.553   6.611  -0.027 -0.9567  0.3556 -0.3338
17392TIP3   OH273666   0.627   4.430  13.648  0.0176  0.0376  0.6100
17392TIP3    H173667   0.606   4.514  13.689  1.4527  0.4462  0.5336
17392TIP3    H273668   0.714   4.408  13.682 -0.8968 -2.0631  1.6281
17393TIP3   OH273669   2.048   3.409   5.798 -0.0128  0.2336 -0.2168
17393TIP3    H173670   2.106   3.471   5.842 -0.2846  1.0826 -1.0461
17393TIP3    H273671   1.961   3.448   5.807 -0.0452  0.5347 -1.7064
17394TIP3   OH273672   2.167   1.820  16.105 -0.6743 -0.0000 -0.7499
17394TIP3    H173673   2.144   1.861  16.022  0.9191  1.4946 -0.4956
17394TIP3    H273674   2.144   1.727  16.093 -1.7347  0.4370 -2.3436
17395TIP3   OH273675   1.248   0.160   6.756 -0.6615  0.5991 -0.1392
17395TIP3    H173676   1.190   0.111   6.697 -0.4730  0.5278 -0.2652
17395TIP3    H273677   1.192   0.227   6.795 -0.9550  0.2019  0.1305
17396TIP3   OH273678   3.952   0.020   4.378 -0.4337 -0.2177  0.4907
17396TIP3    H173679   4.008   0.059   4.310 -1.7210  1.6959  0.4788
17396TIP3    H273680   3.890  -0.034   4.329  0.7225 -1.4851  0.4169
17397TIP3   OH273681   6.118   3.896  11.732  0.3112  0.0217 -0.3824
17397TIP3    H173682   6.071   3.930  11.808  0.7866 -1.5874  0.6727
17397TIP3    H273683   6.067   3.924  11.657 -1.5919 -0.5455  0.6640
17398TIP3   OH273684   3.515   3.612   1.133 -0.9985  0.2668  0.4839
17398TIP3    H173685   3.495   3.592   1.041 -1.1743 -0.7090  0.7203
17398TIP3    H273686   3.437   3.582   1.181 -0.5266 -0.0813  1.0410
17399TIP3   OH273687   2.093   2.867  10.902  0.2092 -0.2772  0.1964
17399TIP3    H173688   2.095   2.890  10.809  1.0513  0.2083  0.3346
17399TIP3    H273689   2.086   2.771  10.902 -0.3097 -0.2481 -0.3608
17400TIP3   OH273690   4.391   4.667  13.513 -0.2336  0.6430 -0.3118
17400TIP3    H173691   4.461   4.714  13.558 -0.6678 -0.5764  1.7008
17400TIP3    H273692   4.328   4.647  13.582 -0.3085 -2.3941 -1.2144
17401TIP3   OH273693   6.024   2.962   4.379  0.5328 -0.0033  0.2925
17401TIP3    H173694   6.067   2.933   4.460 -0.4339 -0.5282  0.6298
17401TIP3    H273695   5.984   3.046   4.403  1.5024  0.5625 -0.0654
17402TIP3   OH273696   6.339   0.323   3.534  0.2476  0.2666 -0.2528
17402TIP3    H173697   6.370   0.413   3.531 -0.0308  0.3577 -0.3494
17402TIP3    H273698   6.346   0.298   3.626  1.2471  0.0671 -0.3774
17403TIP3   OH273699   2.234   5.594   2.109 -0.1425 -0.5277  0.0932
17403TIP3    H173700   2.253   5.682   2.143 -1.6994 -0.3672  0.5953
17403TIP3    H273701   2.290   5.586   2.031  0.7551  0.5103  0.6082
17404TIP3   OH273702   1.468   4.609   3.324  0.2446 -0.5341 -0.5649
17404TIP3    H173703   1.386   4.585   3.367  0.0191  0.7707 -0.2419
17404TIP3    H273704   1.521   4.529   3.327 -1.1335 -1.4891 -1.0919
17405TIP3   OH273705   6.063   6.737   1.463  0.1325 -0.6243  0.0391
17405TIP3    H173706   5.997   6.683   1.505  0.1709 -1.5076 -1.0079
17405TIP3    H273707   6.146   6.698   1.489  0.3946  1.8244  3.1969
17406TIP3   OH273708   3.070   5.719  11.125  0.0738 -0.1900 -0.1086
17406TIP3    H173709   3.072   5.624  11.128  2.1979 -0.1922 -0.3986
17406TIP3    H273710   3.113   5.747  11.206 -2.2669  0.5734  0.9202
17407TIP3   OH273711   2.328   4.766  10.588  0.0434  0.0748  0.1672
17407TIP3    H173712   2.351   4.851  10.626  1.4077 -0.3492  0.3342
17407TIP3    H273713   2.327   4.707  10.663  2.0884 -0.6346 -0.3193
17408TIP3   OH273714   0.898   2.918  16.213 -0.1087 -0.0322 -0.2979
17408TIP3    H173715   0.954   2.937  16.137 -0.3184 -0.3898 -0.5466
17408TIP3    H273716   0.909   2.993  16.270  0.2961  0.1011 -0.5412
17409TIP3   OH273717   4.313   6.015  14.078 -0.0474 -0.2794 -0.0237
17409TIP3    H173718   4.336   5.927  14.107  0.7453 -0.1210 -0.1710
17409TIP3    H273719   4.291   6.006  13.985 -0.4548 -0.4041  0.0831
17410TIP3   OH273720   2.309   6.149   0.014  0.3595 -0.2638 -0.3223
17410TIP3    H173721   2.373   6.101   0.067 -0.2044 -0.6171  0.0375
17410TIP3    H273722   2.244   6.179   0.077  1.2037  1.8154 -0.3887
17411TIP3   OH273723   2.422   0.002  10.743  0.2646  0.3363 -0.2301
17411TIP3    H173724   2.338  -0.041  10.755  1.3705 -1.7846  0.0235
17411TIP3    H273725   2.449   0.027  10.832  1.7891 -2.6358  0.1761
17412TIP3   OH273726   2.664   0.035  14.716 -0.2924  0.5475  0.6196
17412TIP3    H173727   2.633  -0.055  14.707  1.3489  0.0605 -0.1673
17412TIP3    H273728   2.598   0.077  14.772 -0.3949 -1.4788  2.0730
17413TIP3   OH273729   2.246   4.954  16.259  0.1697  0.3312  0.0656
17413TIP3    H173730   2.180   4.909  16.312 -0.5977 -0.3776 -1.4822
17413TIP3    H273731   2.267   5.033  16.309 -1.7656  0.5083  0.6125
17414TIP3   OH273732   3.210   0.149   4.917 -0.1157 -0.5085 -0.2782
17414TIP3    H173733   3.186   0.183   4.831 -0.6524  0.2502  0.1690
17414TIP3    H273734   3.127   0.122   4.957  0.3008 -2.3410 -0.6214
17415TIP3   OH273735   0.070   1.483  15.805 -0.0321 -0.2129 -0.0765
17415TIP3    H173736   0.155   1.494  15.847 -0.3491 -0.2389  0.5791
17415TIP3    H273737   0.086   1.499  15.712  0.9641 -1.5759 -0.1498
17416TIP3   OH273738   0.868   3.922  14.907 -0.3554  0.0647 -0.1963
17416TIP3    H173739   0.827   4.005  14.928  0.2071  0.7719 -1.8111
17416TIP3    H273740   0.920   3.900  14.985  0.8114  2.0474 -0.3730
17417TIP3   OH273741   1.419   3.181   3.520  0.5161  0.0361  0.2909
17417TIP3    H173742   1.499   3.129   3.509  0.1943 -0.4137  0.0633
17417TIP3    H273743   1.355   3.120   3.556  0.8020  0.8522  2.2174
17418TIP3   OH273744   0.796   4.719  13.505 -0.1593  0.7293 -0.0882
17418TIP3    H173745   0.768   4.688  13.592 -0.5438  1.6547  0.1238
17418TIP3    H273746   0.731   4.682  13.445  0.5662 -0.5734 -0.0757
17419TIP3   OH273747   2.282   2.521  14.885  0.5610  0.1994  0.1925
17419TIP3    H173748   2.353   2.576  14.853 -0.5061  1.2900 -0.3173
17419TIP3    H273749   2.202   2.567  14.860 -0.3300 -0.7943  1.1468
17420TIP3   OH273750   0.554   4.824  14.566  0.2055  0.0055  0.4755
17420TIP3    H173751   0.641   4.814  14.604 -0.8189 -0.3471  2.8014
17420TIP3    H273752   0.503   4.871  14.632 -0.6792  2.5820 -1.9463
17421TIP3   OH273753   0.694   6.142  10.471 -0.3247  0.0313 -0.2959
17421TIP3    H173754   0.772   6.195  10.455  0.1562 -0.5247  0.1810
17421TIP3    H273755   0.643   6.149  10.390  0.6382 -0.3086 -0.9482
17422TIP3   OH273756   4.743   6.654  14.722 -0.0514  0.2840  0.1601
17422TIP3    H173757   4.650   6.633  14.713  0.0925 -0.2464 -0.1105
17422TIP3    H273758   4.757   6.725  14.659  0.3042 -1.4644 -1.8009
17423TIP3   OH273759   5.745   3.877  14.993 -0.0962  0.0739 -0.0098
17423TIP3    H173760   5.725   3.970  14.982 -1.4523  0.1797  2.9144
17423TIP3    H273761   5.790   3.852  14.912 -1.0834  2.8863 -1.4743
17424TIP3   OH273762   2.857   1.550  10.577 -0.1994 -0.0328  0.0591
17424TIP3    H173763   2.845   1.470  10.628 -0.5185  0.4257  0.7042
17424TIP3    H273764   2.895   1.520  10.494  2.0590 -0.5999  1.2569
17425TIP3   OH273765   0.053   0.681  14.976  0.2208  0.4939 -0.5983
17425TIP3    H173766   0.101   0.653  14.898 -1.3246  0.7316 -1.6625
17425TIP3    H273767   0.047   0.777  14.967  0.5999  0.5876  0.1401
17426TIP3   OH273768   6.321   3.363  16.484  0.1178  0.3398 -0.7604
17426TIP3    H173769   6.272   3.329  16.560 -0.5765  0.5494 -1.1111
17426TIP3    H273770   6.413   3.345  16.505 -0.1183 -0.1930 -0.1579
17427TIP3   OH273771   1.210   4.680   3.973  0.3495  0.1624 -0.2730
17427TIP3    H173772   1.214   4.761   4.023  1.0163 -0.3219  0.4801
17427TIP3    H273773   1.250   4.614   4.030  2.2153 -0.1771 -1.9101
17428TIP3   OH273774   0.741   3.130   0.177  0.0819 -0.6451  0.7008
17428TIP3    H173775   0.749   3.036   0.196 -0.0584 -0.2980  2.5809
17428TIP3    H273776   0.824   3.152   0.134  0.0590 -1.6648  0.1240
17429TIP3   OH273777   4.018   2.858  13.752 -0.0335  0.0502 -0.2002
17429TIP3    H173778   3.961   2.934  13.767  0.1368  0.4721 -1.6754
17429TIP3    H273779   3.979   2.813  13.677  0.2397 -0.9693  0.2586
17430TIP3   OH273780   2.307   1.734  15.347 -0.1353  0.4020 -0.3954
17430TIP3    H173781   2.219   1.706  15.325 -0.2606 -0.7743  1.4814
17430TIP3    H273782   2.353   1.737  15.263 -1.5228 -0.4979 -1.2115
17431TIP3   OH273783   6.183   6.227  15.050 -0.0020  0.3403 -0.1659
17431TIP3    H173784   6.219   6.153  15.000 -1.3201 -0.3516 -0.1202
17431TIP3    H273785   6.112   6.261  14.994  0.0846  1.0691  0.1658
17432TIP3   OH273786   4.468   1.430   3.132 -0.1465 -0.3697 -0.0974
17432TIP3    H173787   4.554   1.425   3.091 -0.0223  0.7890  0.0053
17432TIP3    H273788   4.455   1.523   3.149 -0.0882 -0.8108  2.6735
17433TIP3   OH273789   6.484   2.894   0.410 -0.1002  0.3381  0.0982
17433TIP3    H173790   6.389   2.896   0.427  0.3489 -0.9259  3.0166
17433TIP3    H273791   6.510   2.986   0.409 -1.3245  0.6904 -0.6136
17434TIP3   OH273792   5.785   1.246   2.265 -0.0544 -0.6335 -0.4180
17434TIP3    H173793   5.832   1.226   2.184  2.6165 -0.7927  1.0816
17434TIP3    H273794   5.854   1.277   2.325 -1.0622 -4.9321  3.2676
17435TIP3   OH273795   2.989   6.597  15.296 -0.1776  0.0542  0.1640
17435TIP3    H173796   3.034   6.545  15.362  0.7921 -2.9298 -2.7144
17435TIP3    H273797   3.060   6.637  15.245 -0.8860  1.4298  0.2489
17436TIP3   OH273798   4.026   0.170   2.263  0.7298 -0.2194 -0.0004
17436TIP3    H173799   4.120   0.189   2.267  0.5621  0.7136 -0.4490
17436TIP3    H273800   4.015   0.092   2.318  1.8193 -0.5522 -0.2478
17437TIP3   OH273801   0.708   5.665  15.608  0.5719 -0.0477 -0.4832
17437TIP3    H173802   0.701   5.596  15.543 -0.4341  0.0868 -0.5304
17437TIP3    H273803   0.697   5.621  15.692  3.0164 -0.3946 -0.3096
17438TIP3   OH273804   2.143   0.177  15.690 -0.3126 -0.4718 -0.3892
17438TIP3    H173805   2.185   0.236  15.751 -0.8151 -0.0795 -0.4232
17438TIP3    H273806   2.113   0.104  15.744  0.7015 -0.9235 -0.4110
17439TIP3   OH273807   6.525   5.283   4.457 -0.3182 -0.0334 -0.0504
17439TIP3    H173808   6.528   5.353   4.392  0.8316 -1.2847 -1.4093
17439TIP3    H273809   6.599   5.301   4.515 -2.4059  2.0751  2.0040
17440TIP3   OH273810   1.551   4.323  16.541  0.2548  0.0382  0.4456
17440TIP3    H173811   1.463   4.288  16.528  0.3236 -0.3422  0.9805
17440TIP3    H273812   1.538   4.405  16.589  0.2089 -0.1102  0.6833
17441TIP3   OH273813   5.155   5.842  10.939  0.9964 -0.2480  0.2208
17441TIP3    H173814   5.145   5.755  10.979 -0.6133  0.3060  1.0455
17441TIP3    H273815   5.145   5.825  10.845  1.0472 -1.0109  0.3435
17442TIP3   OH273816   6.818   0.905  14.220 -0.1913  0.2916  0.0182
17442TIP3    H173817   6.912   0.925  14.229  0.7431 -3.6406  0.1577
17442TIP3    H273818   6.794   0.939  14.134  1.4479  1.0308 -0.1692
17443TIP3   OH273819   2.008   3.696  14.103 -0.1556 -0.2890 -0.4923
17443TIP3    H173820   2.025   3.618  14.049  1.6624  0.8468 -1.6243
17443TIP3    H273821   2.022   3.769  14.043  0.5297  0.9678  1.1768
17444TIP3   OH273822   1.758   6.769  17.260 -0.3679 -0.1189  0.0719
17444TIP3    H173823   1.700   6.829  17.213  2.3058  2.2838 -0.3184
17444TIP3    H273824   1.826   6.748  17.197 -0.2106 -2.0441  0.8556
17445TIP3   OH273825   4.621   6.369   0.669 -0.4536 -0.8336 -0.4004
17445TIP3    H173826   4.644   6.377   0.762  1.1025  0.9057 -0.9146
17445TIP3    H273827   4.650   6.281   0.645  2.5597  0.0386 -0.1524
17446TIP3   OH273828   4.445   3.224  15.458 -0.3410 -0.4222 -0.0886
17446TIP3    H173829   4.520   3.279  15.438 -0.7524  0.1282 -0.1117
17446TIP3    H273830   4.431   3.173  15.378  0.2074 -0.7597  0.0281
17447TIP3   OH273831   1.066   3.992  14.341 -0.2270  0.1123  0.1544
17447TIP3    H173832   1.135   3.980  14.275 -0.5061 -0.7332  0.0009
17447TIP3    H273833   1.113   3.990  14.425 -0.0482 -0.3280  0.0460
17448TIP3   OH273834   1.680   2.337   5.223  0.0287 -0.7245 -0.2740
17448TIP3    H173835   1.723   2.297   5.299 -1.4583 -1.1474  0.3717
17448TIP3    H273836   1.587   2.329   5.242 -0.3948 -1.8621 -2.6867
17449TIP3   OH273837   1.731   2.198  10.969  0.1820  0.2673  0.0921
17449TIP3    H173838   1.813   2.181  11.014 -0.4565 -1.0417  0.7788
17449TIP3    H273839   1.750   2.274  10.914  1.6918  0.3132  0.6406
17450TIP3   OH273840   4.648   0.674  15.945 -0.2657  0.1750  0.0460
17450TIP3    H173841   4.739   0.691  15.969 -0.0291  1.1417 -1.4536
17450TIP3    H273842   4.596   0.718  16.013  0.3669 -2.0736  2.0276
17451TIP3   OH273843   3.700   4.272  17.214 -0.1742 -0.1477  0.2330
17451TIP3    H173844   3.642   4.204  17.248 -0.7772 -1.3233 -2.9417
17451TIP3    H273845   3.703   4.338  17.282  0.6989 -3.4693  3.6142
17452TIP3   OH273846   0.892   4.233   1.050 -0.5095 -0.4590  0.6976
17452TIP3    H173847   0.980   4.270   1.054 -0.4957 -0.6371  2.3368
17452TIP3    H273848   0.903   4.141   1.075 -0.5190 -1.7404 -3.4994
17453TIP3   OH273849   6.718   3.368  15.763 -0.3044  0.8273  0.7061
17453TIP3    H173850   6.700   3.435  15.829  1.5872  0.8167  1.2737
17453TIP3    H273851   6.814   3.364  15.759 -0.3531 -2.1776  1.0514
17454TIP3   OH273852   4.811   4.529  15.767  0.0179  0.2173  0.5695
17454TIP3    H173853   4.779   4.568  15.849  0.2268  1.9078 -0.1456
17454TIP3    H273854   4.903   4.508  15.785 -0.5815 -1.7502  1.5768
17455TIP3   OH273855   4.913   6.511   2.513 -0.0607 -0.0768 -0.1416
17455TIP3    H173856   4.928   6.597   2.474  1.0083  0.0781  0.6194
17455TIP3    H273857   4.878   6.530   2.600 -1.2393 -0.4236 -0.5321
17456TIP3   OH273858   1.386   0.054   4.525  0.0204 -0.0372 -0.2717
17456TIP3    H173859   1.355   0.044   4.615  1.8986 -1.7951  0.2166
17456TIP3    H273860   1.315   0.020   4.471 -1.2773  1.3962  0.5127
17457TIP3   OH273861   3.005   5.495  14.371  0.7913  0.0338  0.2180
17457TIP3    H173862   2.974   5.419  14.321 -0.8532  1.0787 -0.3634
17457TIP3    H273863   3.028   5.560  14.305 -0.8130  1.1984  0.7862
17458TIP3   OH273864   3.343   4.933   2.583 -0.1991 -0.2449 -0.3665
17458TIP3    H173865   3.367   5.025   2.590  0.4830 -0.4784  0.3982
17458TIP3    H273866   3.385   4.891   2.658 -0.9205 -1.0924 -0.4247
17459TIP3   OH273867   0.767   2.615  11.499 -0.1459 -0.1686  0.1996
17459TIP3    H173868   0.799   2.625  11.589  1.8382 -0.0965 -0.4791
17459TIP3    H273869   0.747   2.704  11.471 -0.0526 -0.1034  0.3349
17460TIP3   OH273870   6.254   1.871   4.021  0.6754  0.2460  0.4524
17460TIP3    H173871   6.324   1.912   3.970 -0.2992 -0.3411 -1.4420
17460TIP3    H273872   6.262   1.777   4.001 -1.8475  0.3704 -1.3987
17461TIP3   OH273873   5.931   4.865   3.259 -0.1240 -0.3588  0.1807
17461TIP3    H173874   5.904   4.809   3.332 -0.7166  0.4906  0.6091
17461TIP3    H273875   6.001   4.919   3.295 -0.1058 -0.2544 -0.0118
17462TIP3   OH273876   5.349   6.121  11.722  0.2826 -0.2990 -0.5390
17462TIP3    H173877   5.354   6.211  11.752  1.7467 -0.1551 -1.1408
17462TIP3    H273878   5.377   6.125  11.630 -0.3942 -1.2572 -0.7949
17463TIP3   OH273879   4.993   3.399   1.729 -0.4066  0.1492  0.3991
17463TIP3    H173880   4.969   3.449   1.651 -3.3191 -0.5326  0.7716
17463TIP3    H273881   4.974   3.308   1.706  1.3400 -0.3643  0.9693
17464TIP3   OH273882   6.262   6.519   3.842 -0.4054 -1.1211  0.0753
17464TIP3    H173883   6.256   6.448   3.778  0.0732 -1.6652  0.6179
17464TIP3    H273884   6.277   6.597   3.790  0.4358 -1.6257 -0.4500
17465TIP3   OH273885   1.286   3.661   1.793 -0.7283 -0.3802 -0.1420
17465TIP3    H173886   1.240   3.742   1.813 -1.1716 -1.1322  1.9834
17465TIP3    H273887   1.355   3.655   1.859  1.6759  0.0968 -2.5217
17466TIP3   OH273888   5.952   2.226   0.482  0.3941 -0.0565  0.4137
17466TIP3    H173889   6.027   2.273   0.443 -0.6278  0.3304 -1.1466
17466TIP3    H273890   5.950   2.256   0.573  2.0471  0.0521  0.4343
17467TIP3   OH273891   3.567   4.694  13.237 -0.1482 -0.1861  0.2636
17467TIP3    H173892   3.547   4.765  13.297 -1.8989  0.0689 -0.5786
17467TIP3    H273893   3.662   4.699  13.223 -0.0144  0.9135  1.5079
17468TIP3   OH273894   5.817   3.915  16.160  0.0549 -1.0966  0.0445
17468TIP3    H173895   5.778   4.000  16.181 -0.7097 -1.5951  0.6920
17468TIP3    H273896   5.895   3.909  16.215  1.8807  0.5109 -2.2769
17469TIP3   OH273897   4.818   6.419  10.911 -0.4054  0.4372  0.3405
17469TIP3    H173898   4.750   6.464  10.860 -0.2303  0.3179  0.0015
17469TIP3    H273899   4.844   6.345  10.856 -0.8310 -0.1899  0.9881
17470TIP3   OH273900   6.436   4.728  11.568  0.3896 -0.1562  0.4388
17470TIP3    H173901   6.452   4.823  11.565  0.9081 -0.1439  2.6887
17470TIP3    H273902   6.522   4.691  11.586 -0.1437 -0.9265  1.3903
17471TIP3   OH273903   1.324   2.798   4.168 -0.0424  0.4760 -0.2221
17471TIP3    H173904   1.230   2.787   4.177  0.1259 -1.8884 -0.9607
17471TIP3    H273905   1.355   2.714   4.132  2.0293  1.9881 -2.1159
17472TIP3   OH273906   4.261   4.003  12.575 -0.1265 -0.4369 -0.1135
17472TIP3    H173907   4.328   3.955  12.624 -0.1563  0.0541  0.4212
17472TIP3    H273908   4.300   4.088  12.558 -0.6052 -0.1525  0.1949
17473TIP3   OH273909   5.098   3.688   3.546  0.2671  0.7177  0.1472
17473TIP3    H173910   5.119   3.762   3.490 -1.5082  0.7829 -0.4482
17473TIP3    H273911   5.133   3.712   3.632 -0.0465  2.1037 -0.1083
17474TIP3   OH273912   5.768   2.455  16.523  0.3303 -0.8324 -0.4746
17474TIP3    H173913   5.745   2.431  16.433 -0.3305 -0.0035 -0.5392
17474TIP3    H273914   5.685   2.453  16.570  0.7015 -1.4049  0.1530
17475TIP3   OH273915   3.969   5.904   2.211  0.2530  0.1958  0.2731
17475TIP3    H173916   3.925   5.909   2.295  0.2993  1.9450  0.2023
17475TIP3    H273917   3.905   5.937   2.148  1.3694  2.0667  0.0791
17476TIP3   OH273918   4.715   1.848  11.735 -0.2471 -0.1521 -0.3494
17476TIP3    H173919   4.668   1.915  11.685  0.2845  0.8949  0.5363
17476TIP3    H273920   4.660   1.833  11.812 -0.0392 -0.2711 -0.2245
17477TIP3   OH273921   4.293   1.227  13.265 -0.1742  0.1417 -0.4578
17477TIP3    H173922   4.283   1.308  13.215 -3.0505 -0.4289 -0.9214
17477TIP3    H273923   4.350   1.172  13.211  2.3611  2.0572  0.1775
17478TIP3   OH273924   5.394   4.768   1.395  0.2309 -0.6935 -0.1114
17478TIP3    H173925   5.369   4.733   1.309 -0.0770  0.8591 -0.6722
17478TIP3    H273926   5.334   4.725   1.457 -1.3649  0.2181 -0.9940
17479TIP3   OH273927   6.683   2.950  15.014  0.0998  0.1973  0.0074
17479TIP3    H173928   6.736   2.949  14.934  0.1022  1.1654 -0.0021
17479TIP3    H273929   6.622   2.877  15.003  0.6069 -0.1483 -0.5376
17480TIP3   OH273930   4.359   1.490   6.547  0.7786 -0.0099  0.0699
17480TIP3    H173931   4.303   1.567   6.554  0.6395  0.1591 -2.3569
17480TIP3    H273932   4.351   1.446   6.631 -0.1088  1.9708  1.0445
17481TIP3   OH273933   3.044   0.678  10.485  0.4872  0.3410  0.3769
17481TIP3    H173934   3.057   0.602  10.429 -0.2444  0.7639 -0.3675
17481TIP3    H273935   3.107   0.743  10.453 -0.4600  0.8550 -0.4528
17482TIP3   OH273936   5.315   5.429   3.086  0.3109  0.0941 -0.3449
17482TIP3    H173937   5.221   5.420   3.069  0.3994 -2.6145  0.3397
17482TIP3    H273938   5.320   5.456   3.178  0.2014  0.5701 -0.4767
17483TIP3   OH273939   3.293   6.205  15.630 -0.9755  1.0550 -0.3600
17483TIP3    H173940   3.306   6.228  15.538 -0.6237  2.5076  0.0333
17483TIP3    H273941   3.342   6.124  15.643 -0.2105  1.3800 -1.2055
17484TIP3   OH273942   0.642   0.103  13.315  0.0403 -0.5040 -0.2203
17484TIP3    H173943   0.574   0.059  13.264  0.4812  0.2620 -1.5032
17484TIP3    H273944   0.694   0.032  13.352  0.1493 -1.0801 -1.4456
17485TIP3   OH273945   5.348   0.764   3.412 -0.0555 -0.2472  0.3311
17485TIP3    H173946   5.266   0.785   3.457 -1.4784 -1.3170 -1.6393
17485TIP3    H273947   5.350   0.824   3.337  1.1208 -0.0221  0.5348
17486TIP3   OH273948   1.008   6.647  11.231 -0.1258 -0.0384 -0.6503
17486TIP3    H173949   0.954   6.655  11.152  0.4886 -0.1654 -1.0865
17486TIP3    H273950   1.093   6.616  11.199  0.3021  0.4608 -0.0096
17487TIP3   OH273951   2.402   1.629  11.355  0.6311  0.2034 -0.6978
17487TIP3    H173952   2.479   1.573  11.352  1.2901  1.1901 -3.5580
17487TIP3    H273953   2.357   1.613  11.272 -1.6642  0.4800  0.4467
17488TIP3   OH273954   6.630   6.713   0.683  1.1657  0.4624  0.0109
17488TIP3    H173955   6.671   6.740   0.601  1.2245  1.1735  0.2690
17488TIP3    H273956   6.596   6.794   0.721  0.3847  0.0197  0.2773
17489TIP3   OH273957   2.775   3.281  13.327  0.8734  0.0936 -0.2270
17489TIP3    H173958   2.801   3.234  13.406  2.0919  1.2189  0.0721
17489TIP3    H273959   2.849   3.267  13.267  0.1702 -0.3503 -0.9961
17490TIP3   OH273960   2.289   1.487   5.967  0.2627  0.0017 -0.7704
17490TIP3    H173961   2.226   1.492   6.039  0.2401  0.2049 -0.8046
17490TIP3    H273962   2.236   1.496   5.888  0.0511 -2.0369 -0.8916
17491TIP3   OH273963   3.418   1.602  16.194 -0.1150 -0.1531 -0.2697
17491TIP3    H173964   3.382   1.640  16.114 -0.9698  1.1667  0.7086
17491TIP3    H273965   3.512   1.613  16.185 -0.2833  1.1730 -0.5290
17492TIP3   OH273966   5.953   3.556  14.620  0.2751 -0.3810 -0.1936
17492TIP3    H173967   5.875   3.501  14.617 -0.4579  0.5714  1.1012
17492TIP3    H273968   6.002   3.533  14.540 -0.9904 -1.4582 -0.6669
17493TIP3   OH273969   4.855   4.232  13.147 -0.2248  0.4451  0.2502
17493TIP3    H173970   4.805   4.211  13.226 -0.6037  4.4787  1.2416
17493TIP3    H273971   4.946   4.237  13.177 -0.0957 -0.1726 -0.0428
17494TIP3   OH273972   1.521   2.545  10.751 -0.3462 -0.2176  0.1955
17494TIP3    H173973   1.539   2.597  10.673  1.4801  0.9499  1.3737
17494TIP3    H273974   1.441   2.584  10.787  0.4693  1.1586  0.5383
17495TIP3   OH273975   6.624   4.921  16.795  0.3063  0.0322 -0.4490
17495TIP3    H173976   6.629   5.005  16.841  0.1843 -0.1016 -0.1901
17495TIP3    H273977   6.709   4.912  16.752  0.0981  0.5756 -0.9867
17496TIP3   OH273978   1.865   6.430   0.157  0.2114 -0.2203  0.0162
17496TIP3    H173979   1.842   6.497   0.222 -0.0668  0.2475 -0.5636
17496TIP3    H273980   1.817   6.455   0.078  2.4421  0.5955 -1.1204
17497TIP3   OH273981   2.296   4.847  13.358  0.1760  0.5947 -0.7376
17497TIP3    H173982   2.299   4.928  13.410  1.0758  1.5173 -2.1898
17497TIP3    H273983   2.222   4.798  13.394 -0.7649  2.3422 -0.2332
17498TIP3   OH273984   6.135   5.882   2.069 -1.0448 -0.0650 -0.2024
17498TIP3    H173985   6.224   5.880   2.103 -1.1147  1.1081  0.0581
17498TIP3    H273986   6.141   5.929   1.986 -1.6973  1.5561  0.6547
17499TIP3   OH273987   2.402   0.242  16.220  0.5766 -0.0548  0.3286
17499TIP3    H173988   2.413   0.240  16.125 -0.4931  2.8264  0.0748
17499TIP3    H273989   2.346   0.167  16.240  0.2428 -0.2872 -1.4345
17500TIP3   OH273990   4.528   0.192  15.057  0.4510  0.8130  0.0399
17500TIP3    H173991   4.519   0.202  14.962 -1.4686 -0.7216  0.0309
17500TIP3    H273992   4.602   0.132  15.069  1.1065  1.5175 -0.4546
17501TIP3   OH273993   2.910   6.211  11.594 -0.3951 -0.3010  1.2694
17501TIP3    H173994   2.916   6.267  11.517 -0.6706 -0.0665  1.4166
17501TIP3    H273995   2.851   6.140  11.569  1.5770 -1.6646  0.3957
17502TIP3   OH273996   6.062   0.988   4.350 -0.4387 -0.0974  0.8044
17502TIP3    H173997   5.986   1.017   4.299 -0.3049  1.0279  1.2274
17502TIP3    H273998   6.086   1.064   4.403  2.1416  0.1784 -0.6878
17503TIP3   OH273999   5.046   2.755   6.592 -0.8893 -0.1444 -0.3444
17503TIP3    H174000   4.960   2.778   6.558 -0.6551  0.8105 -0.2984
17503TIP3    H274001   5.078   2.835   6.635 -0.9994 -1.1835  1.7698
17504TIP3   OH274002   3.175   0.514   3.292  0.4034  0.2939  0.0045
17504TIP3    H174003   3.233   0.459   3.240  1.4628 -0.0107  1.4890
17504TIP3    H274004   3.099   0.459   3.309  0.0562  0.3826 -1.1496
17505TIP3   OH274005   1.028   2.946  14.698 -0.1649 -0.3310 -0.3816
17505TIP3    H174006   1.033   2.932  14.792  1.5478  2.5282  0.0187
17505TIP3    H274007   1.027   2.858  14.661  2.1119 -1.5252  2.1896
17506TIP3   OH274008   1.817   6.549  14.383 -0.3163 -0.0688 -0.4897
17506TIP3    H174009   1.745   6.611  14.369 -1.5177 -0.4751  3.2330
17506TIP3    H274010   1.891   6.604  14.408 -0.7687  0.0264  0.6582
17507TIP3   OH274011   3.668   6.445  11.479  0.2418  0.8085 -0.7214
17507TIP3    H174012   3.612   6.434  11.403 -2.3317  0.4380  1.1347
17507TIP3    H274013   3.686   6.355  11.509 -1.4367  0.9679  0.9069
17508TIP3   OH274014   4.912   3.401  16.646  0.4337  1.1551  0.0670
17508TIP3    H174015   4.825   3.403  16.685 -1.1814  2.3852 -3.3746
17508TIP3    H274016   4.953   3.322  16.681 -1.2377  1.6689  3.3650
17509TIP3   OH274017   4.080   4.031  13.133  0.1868 -0.2751  0.6680
17509TIP3    H174018   4.007   4.077  13.176  0.1096  0.2554 -0.0304
17509TIP3    H274019   4.082   4.067  13.045  0.8306 -0.8280  0.4596
17510TIP3   OH274020   3.981   1.168  10.761 -0.5400 -0.9049 -0.1516
17510TIP3    H174021   4.076   1.163  10.749 -0.4334 -0.7870  0.6319
17510TIP3    H274022   3.961   1.261  10.751 -0.6887 -1.0313 -1.1181
17511TIP3   OH274023   0.394   4.810  12.861  0.4873  0.1394  0.0711
17511TIP3    H174024   0.397   4.872  12.933 -2.4376 -0.5731  0.8801
17511TIP3    H274025   0.385   4.724  12.903 -0.7647 -0.3285 -1.0951
17512TIP3   OH274026   2.198   4.571  15.816 -0.0522 -0.0194 -0.1618
17512TIP3    H174027   2.284   4.532  15.826  0.0501  0.4382  0.8983
17512TIP3    H274028   2.209   4.638  15.749  0.1656 -0.6599 -0.7731
17513TIP3   OH274029   0.088   3.422  17.025  0.3156  0.3322 -0.1927
17513TIP3    H174030   0.161   3.402  17.084 -0.3066 -0.8650  0.1908
17513TIP3    H274031   0.106   3.370  16.947  0.4724  0.9414 -0.5715
17514TIP3   OH274032   4.958   1.333  14.442 -0.1106  0.2532 -0.7223
17514TIP3    H174033   4.941   1.246  14.480 -1.0375 -0.0033 -1.7036
17514TIP3    H274034   5.021   1.373  14.503 -1.1196 -0.3683  0.7775
17515TIP3   OH274035   3.333   4.942  10.982 -0.2470 -0.3948 -0.3465
17515TIP3    H174036   3.262   4.911  11.039  0.6499 -1.0094  0.4562
17515TIP3    H274037   3.314   5.035  10.969 -0.2961 -0.1683  1.2307
17516TIP3   OH274038   4.406   3.706   4.700 -0.5795  0.0824  0.0267
17516TIP3    H174039   4.350   3.705   4.778  1.0939  0.2841  1.2591
17516TIP3    H274040   4.390   3.792   4.660 -0.8222  0.3241  0.6320
17517TIP3   OH274041   4.640   3.780   3.681 -0.7824 -0.5191  0.2689
17517TIP3    H174042   4.724   3.751   3.716 -0.5794 -0.5078 -0.2032
17517TIP3    H274043   4.662   3.829   3.601 -1.1721  0.2625  0.6315
17518TIP3   OH274044   1.746   6.560  11.941 -0.5613  0.2929 -0.0041
17518TIP3    H174045   1.666   6.547  11.991 -1.2883 -0.4590 -1.3195
17518TIP3    H274046   1.748   6.654  11.922 -1.3431  0.2536 -0.3021
17519TIP3   OH274047   4.124   0.795  15.173  0.2563  0.1455 -0.0800
17519TIP3    H174048   4.078   0.879  15.176  0.1446  0.1193 -0.7936
17519TIP3    H274049   4.080   0.740  15.237  0.1453  0.5444  0.1843
17520TIP3   OH274050   2.129   3.538  15.926 -0.2200  0.2371  0.3458
17520TIP3    H174051   2.109   3.573  16.012  1.8669  0.5335  0.7337
17520TIP3    H274052   2.064   3.468  15.913 -2.7794  2.4858  0.6375
17521TIP3   OH274053   1.234   1.525   2.370 -0.1551 -0.0859 -0.1814
17521TIP3    H174054   1.294   1.566   2.431 -1.2216 -0.0680  0.8787
17521TIP3    H274055   1.288   1.502   2.295  0.8215  1.4833  0.0291
17522TIP3   OH274056   4.888   3.791   3.035  0.0170  0.0675 -0.2289
17522TIP3    H174057   4.857   3.881   3.041 -1.0143 -0.3466  0.9991
17522TIP3    H274058   4.967   3.796   2.982  1.8140  2.1872  2.4701
17523TIP3   OH274059   4.646   2.350   0.561 -0.1515 -0.0497 -0.0939
17523TIP3    H174060   4.722   2.296   0.542 -0.1191  0.0837 -0.3489
17523TIP3    H274061   4.660   2.431   0.511  0.5128  0.8120  1.4489
17524TIP3   OH274062   4.191   3.104  16.685  0.2313 -0.0468  0.0144
17524TIP3    H174063   4.285   3.092  16.690  0.0417 -2.7405 -1.9185
17524TIP3    H274064   4.154   3.021  16.716 -1.4363  0.2644 -1.0551
17525TIP3   OH274065   3.153   5.551   6.281  0.5600 -0.7402 -0.0851
17525TIP3    H174066   3.182   5.498   6.355 -1.6669 -0.1154  1.2691
17525TIP3    H274067   3.107   5.625   6.321 -0.2207 -0.1259 -2.0760
17526TIP3   OH274068   0.913   4.792   2.851 -0.0471  0.3739 -0.3862
17526TIP3    H174069   0.963   4.750   2.782  0.2123 -0.0771  0.0746
17526TIP3    H274070   0.873   4.721   2.900 -0.2870  0.6912 -0.1126
17527TIP3   OH274071   4.358   4.115  12.905 -0.4224  0.7421  0.4577
17527TIP3    H174072   4.394   4.040  12.859  0.4989  0.8559  0.9694
17527TIP3    H274073   4.435   4.164  12.934 -1.0142  2.0776 -0.1868
17528TIP3   OH274074   4.325   3.245  14.766  0.8033 -0.2275 -0.4635
17528TIP3    H174075   4.252   3.221  14.824  0.1389  2.4158 -0.1588
17528TIP3    H274076   4.318   3.340  14.756  2.7159 -0.2604 -2.4789
17529TIP3   OH274077   6.384   1.889   3.090 -0.0270  0.2270 -0.6500
17529TIP3    H174078   6.338   1.958   3.139 -0.0953 -0.4941  0.3207
17529TIP3    H274079   6.445   1.937   3.034  1.4222  1.0560  1.5262
17530TIP3   OH274080   5.538   4.318   3.124  0.2089  0.7600  0.0919
17530TIP3    H174081   5.450   4.302   3.157 -0.7755  2.0093 -1.8064
17530TIP3    H274082   5.546   4.414   3.122 -0.0900  0.7989 -3.8397
17531TIP3   OH274083   6.265   2.931  11.591  0.3923 -0.0714 -0.0964
17531TIP3    H174084   6.292   2.971  11.674  0.0418 -0.7967  0.3841
17531TIP3    H274085   6.231   3.003  11.539  1.6024  0.5613 -0.0142
17532TIP3   OH274086   0.481   5.988   4.053  0.8634  0.2004  0.4964
17532TIP3    H174087   0.428   6.000   4.131 -0.7526 -0.8607 -0.4107
17532TIP3    H274088   0.445   6.051   3.990  1.0959 -0.0788  0.0799
17533TIP3   OH274089   3.153   0.698  14.113  0.0861  0.2798 -0.0191
17533TIP3    H174090   3.087   0.757  14.151  0.5216  0.6132  0.2223
17533TIP3    H274091   3.107   0.615  14.102 -0.9893  1.0587 -1.7454
17534TIP3   OH274092   5.683   3.163  14.182  0.6026 -0.0705  0.2939
17534TIP3    H174093   5.677   3.232  14.116  1.8849 -1.8877 -1.8391
17534TIP3    H274094   5.595   3.123  14.182  0.5962 -0.0770 -0.3754
17535TIP3   OH274095   2.286   2.417  16.796  0.1342  0.4776  0.1033
17535TIP3    H174096   2.232   2.495  16.809 -0.2090  0.4296 -1.0144
17535TIP3    H274097   2.314   2.422  16.705  1.8431  0.3802  0.6027
17536TIP3   OH274098   0.935   6.576  15.735  0.4521  0.2924 -0.9299
17536TIP3    H174099   1.017   6.579  15.685  2.7505 -0.0044  2.5876
17536TIP3    H274100   0.904   6.666  15.734  0.9422  0.4607 -2.1275
17537TIP3   OH274101   3.266   0.496   6.065  0.4121 -0.2019 -0.5029
17537TIP3    H174102   3.188   0.530   6.108  1.3720  0.7565  0.5209
17537TIP3    H274103   3.321   0.465   6.136  0.3414 -2.2394 -1.3167
17538TIP3   OH274104   0.980   4.531  14.889  0.1378  0.0396 -0.8296
17538TIP3    H174105   0.956   4.438  14.890  1.3133 -0.2668  0.8503
17538TIP3    H274106   0.961   4.560  14.799 -1.9815 -1.3478 -0.8555
17539TIP3   OH274107   5.165   1.988   1.619 -0.1460  0.3332 -0.2338
17539TIP3    H174108   5.082   1.941   1.630  0.9410 -1.0431  2.5890
17539TIP3    H274109   5.151   2.070   1.666  0.3734 -0.3235  1.1126
17540TIP3   OH274110   0.586   4.615  17.115  0.3031 -0.0374 -0.1511
17540TIP3    H174111   0.584   4.543  17.179  0.6272 -1.0152 -1.2375
17540TIP3    H274112   0.619   4.690  17.165  0.5427 -0.7940  0.8447
17541TIP3   OH274113   1.678   1.335  13.253  0.1537 -0.1617 -0.0526
17541TIP3    H174114   1.633   1.276  13.313  1.0335 -0.3569  0.4307
17541TIP3    H274115   1.767   1.300  13.246 -0.5231 -1.4157 -3.2190
17542TIP3   OH274116   1.098   5.349   3.640 -0.1875 -0.2860 -0.5064
17542TIP3    H174117   1.056   5.351   3.726 -0.5371 -1.4981 -0.6304
17542TIP3    H274118   1.026   5.335   3.579  0.2179 -0.8995 -0.8549
17543TIP3   OH274119   2.130   2.862  16.469 -0.3240 -0.6365  0.6108
17543TIP3    H174120   2.112   2.864  16.375  1.0960 -0.0470  0.3424
17543TIP3    H274121   2.221   2.891  16.477 -0.4845 -0.5229  2.1823
17544TIP3   OH274122   3.286   1.349   0.295 -0.0324  0.2136  0.5828
17544TIP3    H174123   3.225   1.361   0.222 -0.5320 -2.7913  0.4747
17544TIP3    H274124   3.371   1.335   0.253  0.7238  3.8440  0.7267
17545TIP3   OH274125   3.114   6.569   5.662 -0.0669 -0.6904  0.3433
17545TIP3    H174126   3.116   6.618   5.745  1.0580 -0.7168  0.3362
17545TIP3    H274127   3.035   6.601   5.618  0.9259  1.5192  0.1140
17546TIP3   OH274128   2.460   1.879   0.385  0.7725  0.0956 -0.1732
17546TIP3    H174129   2.381   1.895   0.333 -0.4318  0.0377  1.6032
17546TIP3    H274130   2.453   1.787   0.412  3.0608 -0.8570 -2.6518
17547TIP3   OH274131   3.593   4.135  11.028 -0.0015 -0.1570 -0.0599
17547TIP3    H174132   3.642   4.198  10.975  0.3550  0.2056  0.6949
17547TIP3    H274133   3.504   4.171  11.032  0.2548  0.4375  0.5642
17548TIP3   OH274134   5.963   3.983  16.563 -0.6701  0.2652 -0.2553
17548TIP3    H174135   6.030   3.934  16.610  0.9289  1.5768 -1.0985
17548TIP3    H274136   5.973   4.073  16.594 -0.8894  0.7858 -1.6383
17549TIP3   OH274137   6.437   5.048  13.996 -0.0713  0.5939  0.1797
17549TIP3    H174138   6.351   5.082  13.970  0.4287  1.1785 -0.7246
17549TIP3    H274139   6.482   5.123  14.034 -0.1549  0.1552  1.1541
17550TIP3   OH274140   4.696   2.126  11.881  0.3263 -0.0991  0.2391
17550TIP3    H174141   4.639   2.197  11.910  0.4607  0.8255 -1.6440
17550TIP3    H274142   4.676   2.116  11.788  1.9116 -1.0077 -0.0246
17551TIP3   OH274143   5.752   6.414   2.993 -0.0198  0.3336 -0.0597
17551TIP3    H174144   5.748   6.465   2.912 -1.4142 -1.1392 -0.9366
17551TIP3    H274145   5.821   6.350   2.977 -1.5730 -1.1934 -0.8524
17552TIP3   OH274146   3.806   5.224  16.121  0.5739  0.0478  0.5784
17552TIP3    H174147   3.721   5.254  16.088  1.1677  1.3875  0.2419
17552TIP3    H274148   3.848   5.303  16.155  2.1927 -0.3712 -0.3917
17553TIP3   OH274149   6.164   6.652   7.009 -0.3131 -0.2242 -0.0082
17553TIP3    H174150   6.076   6.657   6.971 -0.6518  0.1210  0.8167
17553TIP3    H274151   6.195   6.564   6.987  0.1292  0.4923 -2.4630
17554TIP3   OH274152   4.835   1.889   2.150 -0.5453 -0.1721  0.2265
17554TIP3    H174153   4.926   1.918   2.143 -0.4345 -0.4064  0.7056
17554TIP3    H274154   4.839   1.813   2.208 -0.9975 -0.4009 -0.0445
17555TIP3   OH274155   6.259   4.015  10.627 -0.2690  0.2375  0.9024
17555TIP3    H174156   6.190   3.974  10.575  0.0481 -0.4356  1.0074
17555TIP3    H274157   6.290   3.946  10.685  1.0434  0.3124  0.3088
17556TIP3   OH274158   4.443   3.943   5.559  0.4272  0.1723 -0.2426
17556TIP3    H174159   4.532   3.966   5.588  0.2957  1.7686 -1.0113
17556TIP3    H274160   4.390   4.018   5.585 -0.8174 -1.0065  0.6789
17557TIP3   OH274161   4.201   3.437  16.877  0.0722  0.0408  0.1872
17557TIP3    H174162   4.155   3.393  16.806 -0.3987 -0.2106  0.6436
17557TIP3    H274163   4.208   3.528  16.849  0.3502 -0.1626 -0.4090
17558TIP3   OH274164   2.592   5.311  13.680  0.1646  0.1291  0.1759
17558TIP3    H174165   2.613   5.396  13.718 -1.0050 -0.1440  1.4661
17558TIP3    H274166   2.536   5.269  13.745  1.2949 -1.9136 -0.1330
17559TIP3   OH274167   0.555   4.654  16.264 -0.2961  0.2792  0.0475
17559TIP3    H174168   0.500   4.614  16.330 -0.0772 -0.0503  0.0332
17559TIP3    H274169   0.636   4.676  16.311  0.2005 -0.7603 -0.3041
17560TIP3   OH274170   4.427   5.028   2.911  0.8586  0.0788  0.2941
17560TIP3    H174171   4.335   5.025   2.936  0.5731 -0.0995 -0.7419
17560TIP3    H274172   4.458   4.939   2.923  1.0497  0.2614  1.1858
17561TIP3   OH274173   4.809   2.827  12.150  0.2583  0.4854 -0.1386
17561TIP3    H174174   4.750   2.867  12.087 -0.2290  0.4956  0.3198
17561TIP3    H274175   4.894   2.867  12.132 -0.3089  2.0836  0.6287
17562TIP3   OH274176   5.640   1.823  15.633  0.0789  0.7712 -0.4082
17562TIP3    H174177   5.693   1.841  15.555 -0.5448  1.9855 -0.5612
17562TIP3    H274178   5.594   1.742  15.612 -0.4231  1.3264 -1.4795
17563TIP3   OH274179   3.188   0.047  12.348 -0.6040  0.5740  1.0951
17563TIP3    H174180   3.233   0.093  12.278 -1.2748 -0.0339  0.2490
17563TIP3    H274181   3.121   0.108  12.379 -2.5983 -0.3780 -1.1480
17564TIP3   OH274182   2.404   2.198  12.141 -0.2632 -0.2758  0.3913
17564TIP3    H174183   2.401   2.181  12.046 -0.2335 -1.3274  0.5735
17564TIP3    H274184   2.478   2.257  12.152  0.1772 -0.7107 -0.1647
17565TIP3   OH274185   4.139   3.013   1.465 -0.3844  0.2617 -0.3894
17565TIP3    H174186   4.185   3.006   1.381 -0.7054 -1.2968 -0.4472
17565TIP3    H274187   4.174   3.093   1.504  1.6776 -0.3759 -0.8526
17566TIP3   OH274188   4.912   1.328  10.534 -0.1639  0.4402 -1.0308
17566TIP3    H174189   4.931   1.307  10.442 -0.6969  1.7676 -1.4506
17566TIP3    H274190   4.998   1.328  10.576  0.2864  1.5436 -1.8998
17567TIP3   OH274191   1.771   3.558  16.169 -0.3816 -0.4665  0.4146
17567TIP3    H174192   1.701   3.531  16.228  0.3338 -0.9688  1.0539
17567TIP3    H274193   1.741   3.641  16.132 -1.4599 -0.8465  0.4193
17568TIP3   OH274194   5.821   5.562   3.287  0.4556 -0.1326 -0.5456
17568TIP3    H174195   5.878   5.628   3.326 -0.6493 -0.2878  1.4309
17568TIP3    H274196   5.840   5.566   3.194 -0.3060  3.7400 -0.6550
17569TIP3   OH274197   3.242   2.299   2.995 -0.1043 -0.0393  0.1182
17569TIP3    H174198   3.202   2.305   3.082  0.3129  0.4534  0.2769
17569TIP3    H274199   3.291   2.216   2.998  0.6312  0.4049  0.6656
17570TIP3   OH274200   5.612   3.307   3.902 -0.9845 -0.1582 -0.0779
17570TIP3    H174201   5.633   3.220   3.937  2.0377  0.2451 -0.7425
17570TIP3    H274202   5.615   3.365   3.978  1.6713  0.0804 -0.3113
17571TIP3   OH274203   5.728   1.699   5.207  0.5134 -0.5711  0.3559
17571TIP3    H174204   5.719   1.780   5.156  2.2806 -0.1829  0.6369
17571TIP3    H274205   5.717   1.728   5.298  1.8565 -0.5222  0.5071
17572TIP3   OH274206   3.154   5.197  13.149 -0.2855  0.4664 -0.3530
17572TIP3    H174207   3.094   5.270  13.132 -2.0233 -0.7345  0.5061
17572TIP3    H274208   3.108   5.142  13.212  2.0033 -0.1492  0.8531
17573TIP3   OH274209   5.296   0.676  13.698 -0.1246  0.4181 -0.0104
17573TIP3    H174210   5.233   0.658  13.628  0.3050  1.0961 -0.5755
17573TIP3    H274211   5.297   0.596  13.751  0.8180 -0.7394 -1.7634
17574TIP3   OH274212   4.763   2.172  11.262 -0.2432 -0.3478  0.1546
17574TIP3    H174213   4.689   2.212  11.307  0.1569 -0.1620  0.6618
17574TIP3    H274214   4.821   2.246  11.241  0.5755 -0.6627  1.2407
17575TIP3   OH274215   0.130   3.391  16.267 -0.1414  0.3478 -0.5360
17575TIP3    H174216   0.160   3.301  16.283  0.6236  0.7052  0.0426
17575TIP3    H274217   0.207   3.446  16.283 -0.9146  1.2108  0.3148
17576TIP3   OH274218   3.960   4.708  12.235 -0.6163  0.2730  0.3351
17576TIP3    H174219   3.886   4.667  12.190 -0.9032  0.6828  0.4365
17576TIP3    H274220   3.941   4.802  12.232 -0.1601  0.3708  0.4657
17577TIP3   OH274221   5.746   5.286  11.086  0.1778  0.0884 -0.6050
17577TIP3    H174222   5.808   5.216  11.106 -0.0614 -0.4089 -1.5872
17577TIP3    H274223   5.768   5.313  10.997  0.7383  1.7597  0.0141
17578TIP3   OH274224   1.581   5.301  12.093  0.9552  0.1085 -0.1228
17578TIP3    H174225   1.594   5.206  12.101  1.0420  0.2327  1.3572
17578TIP3    H274226   1.643   5.339  12.154  0.4365  1.1007 -0.1994
17579TIP3   OH274227   5.954   6.381   0.145  0.4906 -0.3155 -0.3498
17579TIP3    H174228   5.980   6.386   0.053  1.2134  0.6891 -0.0950
17579TIP3    H274229   5.886   6.314   0.146 -0.4765  0.5904 -1.8462
17580TIP3   OH274230   4.652   0.384  15.834 -0.5243 -0.5615 -0.6186
17580TIP3    H174231   4.633   0.468  15.874 -1.4327 -0.3624 -1.4428
17580TIP3    H274232   4.740   0.394  15.797 -0.7639  0.1282 -0.9992
17581TIP3   OH274233   5.767   5.577   5.839  0.2831  0.5050 -0.1137
17581TIP3    H174234   5.766   5.496   5.787  0.5236  1.0766 -1.0029
17581TIP3    H274235   5.844   5.568   5.895  0.6668  0.4036 -0.6588
17582TIP3   OH274236   2.559   4.947   4.511  0.1656  0.1446 -0.2730
17582TIP3    H174237   2.616   5.021   4.530  0.2567 -0.4806  2.1487
17582TIP3    H274238   2.592   4.911   4.429  1.4976  1.4417 -0.3220
17583TIP3   OH274239   5.512   2.667  12.771 -0.0784 -0.0165 -0.1123
17583TIP3    H174240   5.598   2.654  12.730 -0.3575 -1.4272 -0.2769
17583TIP3    H274241   5.450   2.645  12.702 -0.5559 -2.0333  0.9397
17584TIP3   OH274242   1.350   6.628  11.205 -0.0773 -0.1539 -0.1607
17584TIP3    H174243   1.436   6.609  11.167  0.0191  0.7807 -0.4381
17584TIP3    H274244   1.328   6.551  11.257  1.4185  0.0277  0.7808
17585TIP3   OH274245   4.703   5.751   3.293  0.1432  0.0164  0.0749
17585TIP3    H174246   4.745   5.830   3.326 -0.0551  0.2793 -0.2887
17585TIP3    H274247   4.668   5.707   3.370  1.3757 -0.3757  0.4134
17586TIP3   OH274248   3.340   0.399  11.414 -0.1470 -0.4481  0.4307
17586TIP3    H174249   3.343   0.362  11.503 -0.4694  1.6944  1.3673
17586TIP3    H274250   3.251   0.434  11.406  0.0364 -0.2027 -0.5591
17587TIP3   OH274251   5.110   3.592  11.297  0.7196 -0.6622  0.1819
17587TIP3    H174252   5.060   3.523  11.254 -0.7895  0.0626  0.7162
17587TIP3    H274253   5.071   3.598  11.384  1.6912 -0.0174  0.5750
17588TIP3   OH274254   3.956   0.071  11.052  0.6367 -0.9104  0.3068
17588TIP3    H174255   4.026   0.048  10.991 -0.0480 -1.9265 -0.1162
17588TIP3    H274256   3.895  -0.003  11.047 -0.3549 -0.1405  0.8374
17589TIP3   OH274257   1.976   4.107  13.266  0.1984  0.4145 -0.0440
17589TIP3    H174258   2.032   4.088  13.191 -0.1513  2.1836 -0.7670
17589TIP3    H274259   1.958   4.200  13.260 -0.7545  0.3631  1.6224
17590TIP3   OH274260   4.356   6.757   3.313 -0.2013 -0.3786  0.1663
17590TIP3    H174261   4.430   6.713   3.354 -0.8081 -1.6621 -0.1151
17590TIP3    H274262   4.283   6.696   3.321 -0.5775 -0.2360 -1.9337
17591TIP3   OH274263   1.910   5.120   4.347  0.3061  0.3759 -0.0429
17591TIP3    H174264   1.991   5.154   4.383  0.5429 -1.6628  1.4441
17591TIP3    H274265   1.935   5.038   4.304 -0.4949  1.2131 -2.1777
17592TIP3   OH274266   5.347   1.160   5.271  0.6487  0.0509  0.0891
17592TIP3    H174267   5.261   1.155   5.312  0.4282  1.5398 -0.1967
17592TIP3    H274268   5.330   1.164   5.177  1.1560 -3.4600 -0.2528
17593TIP3   OH274269   2.304   5.133  16.456 -0.6952 -0.0351 -0.0883
17593TIP3    H174270   2.368   5.199  16.482 -0.2648 -0.2492 -0.6139
17593TIP3    H274271   2.222   5.162  16.497 -0.2422  0.1745  0.6775
17594TIP3   OH274272   3.865   5.441   5.918 -0.1952 -0.1100  0.0472
17594TIP3    H174273   3.787   5.417   5.967 -0.6601  0.2514 -0.5079
17594TIP3    H274274   3.832   5.490   5.842  0.5233 -0.4807 -0.5124
17595TIP3   OH274275   3.317   6.492   5.498 -0.1584  0.1987  0.1061
17595TIP3    H174276   3.317   6.557   5.427 -0.5492  0.5336  0.4109
17595TIP3    H274277   3.261   6.531   5.565  3.4601  1.7780  2.3706
17596TIP3   OH274278   6.481   5.623  16.965 -0.2010  0.3463 -0.1287
17596TIP3    H174279   6.439   5.705  16.939  0.2292  0.7145  0.3012
17596TIP3    H274280   6.422   5.554  16.935  0.1784  0.7551 -1.8610
17597TIP3   OH274281   5.590   1.540  16.384 -0.2177 -0.5867 -0.4192
17597TIP3    H174282   5.638   1.524  16.466 -1.4942 -0.9840  0.2765
17597TIP3    H274283   5.654   1.579  16.325  0.4105  0.8513  1.1833
17598TIP3   OH274284   1.644   6.092  15.096  1.0783 -0.2433  0.0160
17598TIP3    H174285   1.577   6.160  15.084  1.5341 -0.0950 -1.7478
17598TIP3    H274286   1.675   6.073  15.008  3.0052 -0.6890  0.7823
17599TIP3   OH274287   0.252   5.176  16.017  0.4876  0.2652 -0.2421
17599TIP3    H174288   0.208   5.101  16.057 -0.2934  0.2411 -1.1357
17599TIP3    H274289   0.284   5.143  15.933  0.0856  0.9450 -0.6692
17600TIP3   OH274290   5.053   3.980   0.741  0.4090  0.2762 -0.2070
17600TIP3    H174291   5.093   3.978   0.828  1.2912 -0.0478 -0.6150
17600TIP3    H274292   5.020   4.069   0.732 -0.3920  0.0978  0.7661
17601TIP3   OH274293   2.089   4.728   2.868 -0.3157  0.2708 -0.7301
17601TIP3    H174294   2.087   4.814   2.826  0.4556  0.2989 -0.7303
17601TIP3    H274295   2.151   4.677   2.816 -0.8209 -0.3083 -0.7680
17602TIP3   OH274296   6.050   0.566  13.366  0.7073 -0.1660  0.3204
17602TIP3    H174297   6.059   0.505  13.439  0.5531  0.9754  1.3029
17602TIP3    H274298   5.992   0.521  13.304  0.4285 -0.9223  1.1246
17603TIP3   OH274299   1.663   0.211  15.547  0.7402 -0.3890 -0.5766
17603TIP3    H174300   1.736   0.271  15.561  2.2938 -2.4880  0.6970
17603TIP3    H274301   1.679   0.172  15.462  0.9550 -0.6474 -0.4180
17604TIP3   OH274302   2.263   6.086  14.441  0.1523 -0.0217 -0.5093
17604TIP3    H174303   2.309   6.002  14.447 -0.0459 -0.0082  1.7553
17604TIP3    H274304   2.176   6.064  14.407  0.4741 -0.5821 -0.9810
17605TIP3   OH274305   4.722   3.865   0.244  0.0429 -0.1166 -0.3576
17605TIP3    H174306   4.798   3.888   0.298  0.9721 -0.9438 -1.3201
17605TIP3    H274307   4.698   3.947   0.201  1.3121 -0.1961 -1.2174
17606TIP3   OH274308   3.867   5.729   1.589 -0.3468 -0.0738 -0.0037
17606TIP3    H174309   3.945   5.676   1.602 -0.4267  0.0247  0.8694
17606TIP3    H274310   3.805   5.670   1.547 -0.5465 -0.7790  1.2556
17607TIP3   OH274311   3.754   6.069   0.992  0.6207  0.1443 -0.1014
17607TIP3    H174312   3.675   6.096   0.946  0.5588  0.7635  0.3573
17607TIP3    H274313   3.733   6.081   1.085  0.8302 -0.8606  0.0788
17608TIP3   OH274314   5.038   4.079   4.950 -0.8524  0.2191 -1.1533
17608TIP3    H174315   5.061   3.986   4.951 -0.8448  0.2125 -1.6331
17608TIP3    H274316   5.102   4.119   4.892 -0.4837  0.6285 -0.4639
17609TIP3   OH274317   3.430   1.678   0.852 -0.2045 -0.0460 -0.6052
17609TIP3    H174318   3.480   1.617   0.905  0.1600 -0.4349 -1.3947
17609TIP3    H274319   3.394   1.741   0.915  1.4640  0.3751 -0.0522
17610TIP3   OH274320   1.596   3.144   3.218  0.1512  0.0801 -0.2584
17610TIP3    H174321   1.629   3.067   3.170 -2.1037  0.2203 -2.1756
17610TIP3    H274322   1.519   3.111   3.265  1.7515  0.1938  2.5351
17611TIP3   OH274323   2.774   3.215  13.821  0.0100 -0.7489  0.5819
17611TIP3    H174324   2.734   3.189  13.738  0.3298  2.5737 -0.6747
17611TIP3    H274325   2.701   3.250  13.872  0.4351  0.7391  0.1961
17612TIP3   OH274326   3.109   5.618   0.918  0.0227 -0.4981 -0.6330
17612TIP3    H174327   3.097   5.554   0.848 -3.3561  1.5453 -2.0597
17612TIP3    H274328   3.143   5.695   0.874 -1.1983  0.4835  0.1163
17613TIP3   OH274329   1.534   3.481  14.201 -0.5498  0.2899  0.8537
17613TIP3    H174330   1.469   3.509  14.137 -0.1871  2.2001  1.3132
17613TIP3    H274331   1.609   3.537  14.186  0.6362 -1.2172  1.0242
17614TIP3   OH274332   4.476   2.958  13.417  0.5969  0.4384 -0.2338
17614TIP3    H174333   4.443   3.032  13.367 -0.4474 -0.7791 -1.4165
17614TIP3    H274334   4.397   2.912  13.447  1.2212 -0.2611  0.3699
17615TIP3   OH274335   0.166   3.524   1.302 -0.1584  0.4143 -0.6122
17615TIP3    H174336   0.232   3.466   1.266  0.6462  1.0616 -0.1864
17615TIP3    H274337   0.096   3.525   1.237  0.3982  0.0005 -1.2126
17616TIP3   OH274338   6.674   5.876  15.184 -0.4465 -0.9477 -0.0242
17616TIP3    H174339   6.634   5.880  15.097 -0.3497 -2.3363 -0.1397
17616TIP3    H274340   6.679   5.783  15.205  3.0402 -0.8724 -0.1711
17617TIP3   OH274341   1.681   6.130  11.704  0.3321  0.6765 -0.2613
17617TIP3    H174342   1.737   6.177  11.641  1.3601  0.5947  0.5856
17617TIP3    H274343   1.636   6.065  11.651  1.6899  0.1668 -0.8261
17618TIP3   OH274344   5.969   4.197  16.749  0.3793 -0.1278  0.1194
17618TIP3    H174345   5.950   4.284  16.783 -0.9008  0.0195 -0.9471
17618TIP3    H274346   5.976   4.142  16.827 -2.1649  0.2719  0.6721
17619TIP3   OH274347   3.232   5.893  13.343  0.1917 -0.1599  0.1909
17619TIP3    H174348   3.146   5.867  13.310  0.3237 -1.0027  0.5091
17619TIP3    H274349   3.218   5.980  13.381 -0.3403  0.0537 -0.4816
17620TIP3   OH274350   1.061   0.419   3.019  0.1342 -0.2814 -0.0352
17620TIP3    H174351   1.008   0.389   2.945 -0.3155  0.0110  0.1706
17620TIP3    H274352   1.058   0.346   3.081 -0.7568  0.0942  0.3591
17621TIP3   OH274353   5.970   0.905  13.563 -0.6130 -0.0709  0.7950
17621TIP3    H174354   6.036   0.951  13.512  0.8117 -3.1540 -0.2318
17621TIP3    H274355   5.995   0.921  13.654  0.2175  0.6188  0.4533
17622TIP3   OH274356   2.466   6.591  14.459  0.1987  0.0997 -0.3818
17622TIP3    H174357   2.422   6.507  14.472  1.7098 -0.5558  0.6853
17622TIP3    H274358   2.521   6.577  14.381 -2.0237  1.1712 -2.2055
17623TIP3   OH274359   1.675   4.153  14.577  0.3240  0.1123  1.1969
17623TIP3    H174360   1.582   4.128  14.580  0.3056  0.0413  0.3066
17623TIP3    H274361   1.673   4.249  14.580  0.0127  0.2814 -2.2294
17624TIP3   OH274362   5.188   4.537  15.069  0.4139 -0.6709 -0.2367
17624TIP3    H174363   5.256   4.470  15.061 -0.2139 -1.4069  0.3654
17624TIP3    H274364   5.153   4.546  14.981  1.4192 -0.1452 -0.5877
17625TIP3   OH274365   3.331   0.164  12.146  0.2097 -0.4411  0.2285
17625TIP3    H174366   3.274   0.116  12.086  0.2541 -0.9664  0.6012
17625TIP3    H274367   3.308   0.256  12.133 -1.3623 -0.7032  1.0217
17626TIP3   OH274368   1.034   0.479   2.365 -0.6988 -0.4411 -0.1976
17626TIP3    H174369   1.123   0.453   2.390 -0.4220  0.4436 -0.2317
17626TIP3    H274370   0.980   0.457   2.440 -0.2153  0.2926  0.3707
17627TIP3   OH274371   5.333   4.087   0.913  0.1823  0.2560 -0.9664
17627TIP3    H174372   5.421   4.051   0.920  0.2772  0.6163 -0.2730
17627TIP3    H274373   5.312   4.117   1.001 -0.6574  0.1235 -1.1093
17628TIP3   OH274374   4.162   5.257   6.007 -0.1735  0.3230 -0.1090
17628TIP3    H174375   4.229   5.281   6.071 -0.1418  0.3234 -0.1430
17628TIP3    H274376   4.082   5.245   6.060  0.1074 -0.7730  0.0703
17629TIP3   OH274377   4.100   5.169   4.104  0.0483 -0.6407 -0.7291
17629TIP3    H174378   4.114   5.261   4.079 -0.7838 -0.1861  0.4047
17629TIP3    H274379   4.189   5.133   4.112  0.4508  0.5971  0.6708
17630TIP3   OH274380   6.553   3.778   6.469  0.0296  0.4673  0.1250
17630TIP3    H174381   6.623   3.751   6.528  0.3633 -0.4148 -0.6515
17630TIP3    H274382   6.597   3.787   6.384 -0.6760  0.5183 -0.2337
17631TIP3   OH274383   5.404   3.667  13.708  0.4048  0.2233  0.4794
17631TIP3    H174384   5.420   3.591  13.652  0.5031  1.0358 -0.6257
17631TIP3    H274385   5.467   3.657  13.780 -0.8854 -1.7188  1.3774
17632TIP3   OH274386   1.573   3.592  15.085 -0.4344 -0.5909 -0.2634
17632TIP3    H174387   1.643   3.533  15.112  0.4441  0.8388  0.6581
17632TIP3    H274388   1.495   3.537  15.081  0.2344 -1.6916  1.2292
17633TIP3   OH274389   3.958   6.627  14.521 -1.0293 -0.0897  0.2926
17633TIP3    H174390   3.882   6.569  14.520 -0.6095 -0.6498  0.8139
17633TIP3    H274391   4.033   6.569  14.507 -0.7900  0.6072 -1.4030
17634TIP3   OH274392   0.615   5.315  14.091 -0.1529 -0.1986  0.5022
17634TIP3    H174393   0.646   5.225  14.096  0.6565  0.0141 -0.5955
17634TIP3    H274394   0.594   5.328  13.999  0.2496  0.9077  0.5592
17635TIP3   OH274395   5.569   5.345   1.041 -0.0161  0.5025 -0.0294
17635TIP3    H174396   5.560   5.423   0.987 -0.0142  1.7259  1.7064
17635TIP3    H274397   5.523   5.366   1.123  0.6905 -0.9961  0.7904
17636TIP3   OH274398   2.315   5.895  16.772  0.4654  0.2200  0.2826
17636TIP3    H174399   2.380   5.833  16.807  0.2741 -1.2175 -1.7870
17636TIP3    H274400   2.364   5.976  16.761  1.1747 -0.0292  1.4187
17637TIP3   OH274401   0.864   2.014  16.394 -0.5740  0.2981  0.2631
17637TIP3    H174402   0.895   1.982  16.478  0.0697 -3.0599 -1.1690
17637TIP3    H274403   0.932   2.073  16.364  0.6806 -0.9036  0.7092
17638TIP3   OH274404   0.219   2.701  12.827 -0.0080  0.3526  0.5114
17638TIP3    H174405   0.307   2.739  12.823  0.0810  0.0361 -0.5652
17638TIP3    H274406   0.207   2.657  12.744 -1.0232  0.0029  0.8261
17639TIP3   OH274407   5.091   3.279  12.271  0.2660  0.2702 -0.3208
17639TIP3    H174408   5.027   3.329  12.322  0.2829  0.8957 -0.9091
17639TIP3    H274409   5.176   3.316  12.294  0.2901  0.4298 -0.6621
17640TIP3   OH274410   6.694   5.367  10.748  0.2274 -0.2511  0.8346
17640TIP3    H174411   6.683   5.345  10.840  0.6684 -0.0657  0.9359
17640TIP3    H274412   6.703   5.462  10.747 -1.8307 -0.0389  0.3879
17641TIP3   OH274413   6.046   5.460   4.301  0.1731  0.0464  0.4939
17641TIP3    H174414   6.068   5.551   4.284 -0.2217  0.2572  1.0948
17641TIP3    H274415   6.071   5.413   4.221  1.7392  0.4519  0.7291
17642TIP3   OH274416   2.342   5.769   5.055 -0.1230 -0.5148 -0.6494
17642TIP3    H174417   2.272   5.802   4.999 -0.8936 -0.9423  0.0560
17642TIP3    H274418   2.297   5.718   5.122  0.6109  1.7398  1.6330
17643TIP3   OH274419   5.475   6.596  13.740 -0.0519 -0.0351 -0.4397
17643TIP3    H174420   5.525   6.658  13.794 -1.8513 -0.0646  1.3239
17643TIP3    H274421   5.506   6.510  13.767 -0.3624 -0.0205 -0.0233
17644TIP3   OH274422   2.773   1.594   5.856  0.2160 -0.1123  0.6188
17644TIP3    H174423   2.690   1.570   5.817  0.6787  1.2298 -1.2532
17644TIP3    H274424   2.839   1.573   5.789  1.0200  2.1942  0.6294
17645TIP3   OH274425   4.336   4.124   2.356 -0.0791 -0.3433 -0.2206
17645TIP3    H174426   4.322   4.218   2.366  1.7721  0.1729 -1.9501
17645TIP3    H274427   4.248   4.086   2.352 -0.8416  1.4141 -0.3613
17646TIP3   OH274428   5.730   6.747  14.132 -0.4430 -0.2689  0.1244
17646TIP3    H174429   5.768   6.686  14.069  0.1241  1.1580 -0.9569
17646TIP3    H274430   5.637   6.722  14.137 -0.1670 -1.3763 -0.0793
17647TIP3   OH274431   2.187   4.023  15.922  0.2592  0.1877  0.3932
17647TIP3    H174432   2.187   4.118  15.912  0.8980  0.1236 -0.2797
17647TIP3    H274433   2.174   3.990  15.833 -2.5235 -0.3540  0.9634
17648TIP3   OH274434   0.309   2.825  14.365 -0.3869 -0.1791 -0.1545
17648TIP3    H174435   0.334   2.917  14.354 -0.3662 -0.1130  0.4577
17648TIP3    H274436   0.333   2.804  14.455 -0.0088 -0.9061 -0.4217
17649TIP3   OH274437   2.425   0.766   2.094 -0.5560 -0.5259  0.1465
17649TIP3    H174438   2.473   0.763   2.011  0.4180 -0.6909  0.7063
17649TIP3    H274439   2.489   0.798   2.157 -1.4586  0.1479  0.7259
17650TIP3   OH274440   0.301   6.124  12.827 -0.3697 -1.1312 -0.0816
17650TIP3    H174441   0.297   6.164  12.913  1.5699 -0.5380 -0.2571
17650TIP3    H274442   0.213   6.138  12.790 -0.7850 -0.1769  1.2378
17651TIP3   OH274443   4.846   2.793  12.839 -0.3278 -1.2010 -0.6123
17651TIP3    H174444   4.937   2.766  12.840  0.1949  0.5220 -0.6365
17651TIP3    H274445   4.835   2.836  12.754 -1.1177 -1.2246 -0.5264
17652TIP3   OH274446   3.847   3.987  14.863  0.8129 -0.2638 -0.6075
17652TIP3    H174447   3.913   3.987  14.794  1.1022  0.9703 -0.3455
17652TIP3    H274448   3.777   4.044  14.830  0.7911  0.0495 -0.0416
17653TIP3   OH274449   6.060   3.027  10.703  0.1209 -0.3166  0.7685
17653TIP3    H174450   6.140   3.078  10.716 -0.7719  1.5045 -0.8341
17653TIP3    H274451   6.091   2.944  10.667  1.5931 -1.0694  3.5922
17654TIP3   OH274452   0.467   5.531   6.201 -0.4616  0.7655 -0.0570
17654TIP3    H174453   0.462   5.474   6.277 -1.3841  0.9474  0.0317
17654TIP3    H274454   0.527   5.601   6.227  2.0693 -1.1044 -0.8214
17655TIP3   OH274455   2.681   4.114  13.245  0.0511  0.4985 -0.5164
17655TIP3    H174456   2.692   4.208  13.229 -0.9868  0.9187  1.1285
17655TIP3    H274457   2.587   4.098  13.233  0.2817 -0.4085 -1.1636
17656TIP3   OH274458   0.332   3.582   1.576 -0.4200 -0.0815 -0.1182
17656TIP3    H174459   0.411   3.528   1.577 -0.0103  0.5358  0.9293
17656TIP3    H274460   0.363   3.671   1.592 -1.1919  0.3536 -0.9865
17657TIP3   OH274461   1.553   1.816   4.507 -0.3020 -0.6946  0.1394
17657TIP3    H174462   1.576   1.832   4.416  0.8598  0.5786  0.6482
17657TIP3    H274463   1.529   1.902   4.542  0.7093 -0.9207  1.4290
17658TIP3   OH274464   0.059   6.557  16.099 -0.2849 -0.2571 -0.3826
17658TIP3    H174465  -0.010   6.491  16.105  1.2103 -1.9161 -0.8992
17658TIP3    H274466   0.022   6.635  16.142 -2.2983 -1.2215 -0.2976
17659TIP3   OH274467   1.789   1.929   1.701 -0.1451 -0.2622  0.5425
17659TIP3    H174468   1.808   1.864   1.633  0.1793 -1.4011  1.6888
17659TIP3    H274469   1.864   1.923   1.760  0.5748  2.1853 -0.0876
17660TIP3   OH274470   0.852   0.971   5.337  0.4493  0.6881  0.1175
17660TIP3    H174471   0.922   1.034   5.320  0.8807  0.2064  0.0924
17660TIP3    H274472   0.897   0.893   5.371 -0.0645  0.3439  0.0235
17661TIP3   OH274473   1.046   0.383  16.852  0.4203 -0.7464  0.1986
17661TIP3    H174474   1.112   0.314  16.846  2.4264  1.0583  0.6914
17661TIP3    H274475   1.069   0.444  16.781  0.6488  1.0082  1.7374
17662TIP3   OH274476   2.483   3.461  11.046 -0.2209  0.2342 -0.5385
17662TIP3    H174477   2.407   3.483  11.100 -0.7497  1.3138 -1.6984
17662TIP3    H274478   2.448   3.407  10.975  0.0216  1.0824 -1.3084
17663TIP3   OH274479   6.715   4.624  13.304  0.3440 -0.1138 -0.7721
17663TIP3    H174480   6.809   4.643  13.311 -0.0790  1.2601  1.9854
17663TIP3    H274481   6.676   4.706  13.274 -0.0942 -0.2877 -0.6835
17664TIP3   OH274482   0.142   0.620  13.703 -0.8298  0.5389 -0.0268
17664TIP3    H174483   0.116   0.539  13.658  0.9282  0.3847 -0.8253
17664TIP3    H274484   0.163   0.681  13.632 -1.9022  1.6399  0.5735
17665TIP3   OH274485   3.997   4.564   1.484 -0.8116  0.3078 -0.2216
17665TIP3    H174486   3.993   4.617   1.563  1.0035 -1.1647  0.8834
17665TIP3    H274487   4.048   4.616   1.422 -3.0304  1.8825 -0.8127
17666TIP3   OH274488   1.956   2.286   0.516  0.4127 -0.0973  0.0005
17666TIP3    H174489   1.910   2.343   0.456  0.5964  1.7901  1.6121
17666TIP3    H274490   2.047   2.287   0.485 -0.1559 -2.0917 -1.8655
17667TIP3   OH274491   2.505   3.602  17.245 -0.1289  0.0317  0.0208
17667TIP3    H174492   2.564   3.641  17.310  1.4258 -0.6038 -0.9738
17667TIP3    H274493   2.462   3.677  17.204  1.5078  0.6423 -0.6387
17668TIP3   OH274494   3.823   1.120  16.680  0.1746  0.4083  0.1148
17668TIP3    H174495   3.775   1.038  16.694  1.4779 -0.4985 -0.6057
17668TIP3    H274496   3.837   1.124  16.586  1.0844  0.9036  0.2631
17669TIP3   OH274497   6.594   5.603  14.209 -0.4222 -0.0922 -0.4049
17669TIP3    H174498   6.607   5.681  14.264 -0.6432 -0.6830  0.5018
17669TIP3    H274499   6.673   5.597  14.156  1.1405 -1.1776  1.9533
17670TIP3   OH274500   3.894   2.934  11.717 -0.2425 -0.0365  0.4879
17670TIP3    H174501   3.895   2.838  11.726 -0.4128 -0.1888 -1.0072
17670TIP3    H274502   3.938   2.965  11.796  0.2200 -1.3749  0.7851
17671TIP3   OH274503   2.144   6.625   1.720 -0.7838 -0.1903  0.5757
17671TIP3    H174504   2.138   6.640   1.626 -1.3679 -0.2071  0.6122
17671TIP3    H274505   2.058   6.593   1.745 -1.3557  2.0284  1.5068
17672TIP3   OH274506   2.277   5.378   4.329 -0.1888  0.4077  0.0865
17672TIP3    H174507   2.367   5.344   4.323  0.5437  2.4628 -0.9999
17672TIP3    H274508   2.288   5.469   4.357 -1.9813  0.4640  0.6101
17673TIP3   OH274509   6.506   3.501  11.581 -0.1934  0.1855 -0.0259
17673TIP3    H174510   6.423   3.511  11.533 -1.3733 -0.3463  1.8811
17673TIP3    H274511   6.485   3.523  11.671  1.0519 -2.8721  1.0579
17674TIP3   OH274512   3.437   1.878   3.267  0.4167 -0.2465  0.2364
17674TIP3    H174513   3.428   1.788   3.298 -0.7804  0.4603  2.0038
17674TIP3    H274514   3.530   1.887   3.247  0.3780 -2.1586 -0.8574
17675TIP3   OH274515   5.530   5.670   5.058 -0.0599  0.0934  0.0967
17675TIP3    H174516   5.510   5.674   5.152  0.4403 -1.7752  0.3177
17675TIP3    H274517   5.532   5.576   5.039  0.9927  0.4420 -1.5459
17676TIP3   OH274518   4.709   2.604  10.970 -0.1372  0.2448 -0.2514
17676TIP3    H174519   4.684   2.557  11.050  1.4941  0.9941  0.7233
17676TIP3    H274520   4.695   2.697  10.991  1.2883  0.5175 -0.4609
17677TIP3   OH274521   1.313   2.910  15.071 -0.9389  0.2125  0.0128
17677TIP3    H174522   1.316   2.993  15.024 -0.1677  0.4236  0.4364
17677TIP3    H274523   1.329   2.844  15.004 -0.2471  0.4884 -0.0985
17678TIP3   OH274524   4.897   1.174  11.810  0.0898 -0.4830  0.0766
17678TIP3    H174525   4.936   1.222  11.738 -3.7874  0.8004 -1.2969
17678TIP3    H274526   4.846   1.105  11.769  0.4428 -1.7985  1.7627
17679TIP3   OH274527   3.048   6.731   1.880 -0.5341  0.3229 -0.4830
17679TIP3    H174528   3.103   6.670   1.830 -0.0539 -0.1485  0.5987
17679TIP3    H274529   3.018   6.794   1.815  1.1267  0.4807 -1.1392
17680TIP3   OH274530   5.198   5.746   3.680  0.3934  0.0435 -0.1460
17680TIP3    H174531   5.135   5.717   3.746 -0.0797  1.0295 -0.1565
17680TIP3    H274532   5.246   5.817   3.722  1.6386 -0.8242 -0.0703
17681TIP3   OH274533   6.209   4.586   4.173 -0.3254  0.3625 -0.1084
17681TIP3    H174534   6.136   4.648   4.168 -0.1300  0.5495 -0.5929
17681TIP3    H274535   6.193   4.537   4.254  0.0233  1.6605  0.7615
17682TIP3   OH274536   0.618   5.240   1.815 -0.1813  0.3436  0.3927
17682TIP3    H174537   0.596   5.328   1.844 -1.8984 -0.2610  0.9634
17682TIP3    H274538   0.542   5.187   1.836  0.4959 -1.1298 -0.7020
17683TIP3   OH274539   2.379   2.072  16.203 -0.0167 -0.4044  0.1769
17683TIP3    H174540   2.405   2.003  16.142  0.5037  0.3581 -0.4713
17683TIP3    H274541   2.449   2.137  16.198 -0.2431 -0.0663  1.1702
17684TIP3   OH274542   3.492   3.457   0.544 -0.0282  0.4097 -0.5728
17684TIP3    H174543   3.417   3.398   0.546  0.1180  0.2560  0.8359
17684TIP3    H274544   3.553   3.418   0.481  0.7946 -1.8577  1.5551
17685TIP3   OH274545   1.396   0.218  15.137  0.6610  0.6535 -0.3956
17685TIP3    H174546   1.400   0.197  15.230 -0.7352 -0.0433 -0.4710
17685TIP3    H274547   1.305   0.243  15.122  0.1079 -2.1166 -2.1385
17686TIP3   OH274548   3.676   6.270   2.107 -0.5675 -0.7586 -0.0571
17686TIP3    H174549   3.601   6.309   2.151 -0.2522  0.0549 -0.2255
17686TIP3    H274550   3.739   6.253   2.177 -0.6587 -0.8485  0.0020
17687TIP3   OH274551   1.933   4.303   5.472 -0.5606  0.0704  0.0490
17687TIP3    H174552   1.960   4.226   5.522 -0.7896  0.7807  1.2749
17687TIP3    H274553   1.861   4.271   5.417  1.4192 -1.3552 -1.7907
17688TIP3   OH274554   0.188   3.022   0.270  0.1165 -0.0056  0.5802
17688TIP3    H174555   0.263   2.964   0.281  1.0429  1.5910  2.9428
17688TIP3    H274556   0.123   2.990   0.333  0.8764  1.8705  2.3568
17689TIP3   OH274557   5.991   5.723   1.258  0.5397  0.2243 -0.6401
17689TIP3    H174558   6.050   5.778   1.310  0.9446 -0.2950 -0.5491
17689TIP3    H274559   5.982   5.769   1.175 -1.4656  1.9458  0.4882
17690TIP3   OH274560   5.614   5.036   1.657 -0.4910 -0.1463 -0.3604
17690TIP3    H174561   5.653   4.983   1.725 -0.7729 -0.9443 -0.8190
17690TIP3    H274562   5.688   5.080   1.614 -0.2504 -0.2612 -0.0604
17691TIP3   OH274563   5.865   0.404   4.974  0.0487 -0.1329 -1.0403
17691TIP3    H174564   5.899   0.486   5.009  0.7762 -1.0759  0.5152
17691TIP3    H274565   5.770   0.413   4.977  0.1200  0.2771  0.0368
17692TIP3   OH274566   6.255   0.207   5.555 -0.1092  0.0556 -0.0594
17692TIP3    H174567   6.229   0.160   5.476 -3.6091  2.6512 -0.5576
17692TIP3    H274568   6.192   0.278   5.562  1.4945  1.1896  3.8820
17693TIP3   OH274569   0.422   6.741   4.668 -0.7631  0.4496  0.0617
17693TIP3    H174570   0.436   6.703   4.582 -1.4319  2.3683 -0.9317
17693TIP3    H274571   0.466   6.681   4.729  1.0220 -0.1209 -1.7438
17694TIP3   OH274572   0.460   6.462  12.316 -0.0930 -0.0142  0.4467
17694TIP3    H174573   0.415   6.394  12.366 -1.0666 -0.1209 -0.5495
17694TIP3    H274574   0.505   6.413  12.246 -1.6732  0.4344 -0.9210
17695TIP3   OH274575   4.170   6.243  12.193 -0.6346  0.2908 -0.2319
17695TIP3    H174576   4.231   6.195  12.138 -0.1843 -0.5278  0.9458
17695TIP3    H274577   4.221   6.266  12.271 -1.0253  2.1444 -0.4909
17696TIP3   OH274578   1.864   1.489  12.929  0.0367  0.0295  0.5219
17696TIP3    H174579   1.883   1.507  12.836 -2.0642 -2.8491 -0.5274
17696TIP3    H274580   1.905   1.404  12.946 -1.9571 -0.7746  1.4305
17697TIP3   OH274581   6.218   0.320   5.126 -0.8800 -0.0988  0.3177
17697TIP3    H174582   6.289   0.268   5.162 -0.5484  0.3154  0.2543
17697TIP3    H274583   6.249   0.346   5.039 -0.5140  1.3045  0.8654
17698TIP3   OH274584   3.481   2.489  13.388  0.5168 -0.0052 -0.0071
17698TIP3    H174585   3.564   2.513  13.347  1.2324  1.3572  2.1249
17698TIP3    H274586   3.475   2.547  13.464 -2.3118 -0.2054 -0.0342
17699TIP3   OH274587   5.547   0.735   6.288  0.2818  0.3789 -0.0764
17699TIP3    H174588   5.591   0.672   6.344 -0.1682  0.3860  0.2899
17699TIP3    H274589   5.487   0.781   6.346  1.2782  1.7941 -0.1437
17700TIP3   OH274590   3.927   3.993   5.931 -0.1638 -0.4595  0.1167
17700TIP3    H174591   3.854   3.944   5.969 -0.1156 -0.4905  0.1689
17700TIP3    H274592   3.903   4.085   5.942 -1.6695 -0.4627 -2.6773
17701TIP3   OH274593   4.866   6.564   4.095  0.3773 -0.1376 -0.2375
17701TIP3    H174594   4.913   6.497   4.144 -0.9903  0.2752  1.6558
17701TIP3    H274595   4.893   6.550   4.004  0.7791 -2.6927  0.2437
17702TIP3   OH274596   5.830   3.909  14.329  0.0312  0.4313 -0.8014
17702TIP3    H174597   5.745   3.904  14.286 -0.3955 -0.3847  0.1244
17702TIP3    H274598   5.893   3.909  14.257 -0.6429 -1.5770 -1.4376
17703TIP3   OH274599   3.435   3.078  12.911  0.7467 -0.1561  0.1683
17703TIP3    H174600   3.410   3.047  12.824 -0.3763  0.6023  0.2016
17703TIP3    H274601   3.486   3.157  12.895 -3.3315  2.6337  0.2632
17704TIP3   OH274602   4.003   6.376  15.339  0.0112 -0.6514  0.1707
17704TIP3    H174603   4.008   6.427  15.420  0.3861 -0.1709 -0.1516
17704TIP3    H274604   4.086   6.329  15.336  0.1048 -0.4690 -0.0664
17705TIP3   OH274605   4.833   4.662   2.367  0.1433  0.3089 -0.1109
17705TIP3    H174606   4.921   4.627   2.358  0.6889  1.7995 -0.7953
17705TIP3    H274607   4.845   4.745   2.412 -0.8538  0.7639 -0.6587
17706TIP3   OH274608   3.642   1.206  13.002  0.5980  0.1660  0.4839
17706TIP3    H174609   3.652   1.301  13.010  1.3012  0.1391 -0.0454
17706TIP3    H274610   3.648   1.174  13.092  0.1613  0.6390  0.6867
17707TIP3   OH274611   6.810   2.309   4.772  0.0992  0.3232 -0.0001
17707TIP3    H174612   6.868   2.235   4.752  0.0683 -0.2821  2.0654
17707TIP3    H274613   6.722   2.274   4.760  0.0850  0.0330  0.9491
17708TIP3   OH274614   1.196   0.463   3.859 -0.1045  0.2476 -0.1862
17708TIP3    H174615   1.289   0.480   3.846 -0.2340  1.0554 -0.1158
17708TIP3    H274616   1.185   0.371   3.837  0.7947  0.0260  0.2640
17709TIP3   OH274617   6.767   5.112   5.540 -0.3989 -0.2142 -0.3771
17709TIP3    H174618   6.850   5.160   5.532 -0.0657 -0.6645  0.2362
17709TIP3    H274619   6.784   5.049   5.611 -2.4313  2.1359  2.3207
17710TIP3   OH274620   2.394   1.575   6.580 -0.5165  0.5183  0.6183
17710TIP3    H174621   2.324   1.613   6.527 -1.7802 -2.2858  0.1848
17710TIP3    H274622   2.348   1.533   6.653  0.9091  0.7286  1.6540
17711TIP3   OH274623   6.550   3.615   1.263 -0.5423  0.3034 -0.3900
17711TIP3    H174624   6.588   3.669   1.333  1.0847  0.0995 -1.1023
17711TIP3    H274625   6.532   3.532   1.306  1.9083 -0.3577 -0.5266
17712TIP3   OH274626   2.512   2.488  11.924  0.2037 -0.4306 -0.2663
17712TIP3    H174627   2.529   2.441  12.005  1.1484  3.0435  1.6716
17712TIP3    H274628   2.417   2.487  11.915  0.1774 -2.2863 -0.0675
17713TIP3   OH274629   0.966   5.308   6.325 -0.2389  0.1999 -0.2528
17713TIP3    H174630   0.969   5.267   6.411 -0.2571  0.6416 -0.0368
17713TIP3    H274631   0.920   5.391   6.340 -0.0317  0.3866 -0.6385
17714TIP3   OH274632   1.095   2.131  14.919  0.0794  0.4393 -0.2097
17714TIP3    H174633   1.033   2.097  14.983  1.2405 -2.4708 -0.5522
17714TIP3    H274634   1.081   2.078  14.841  1.3596  1.3404 -1.0771
17715TIP3   OH274635   4.823   4.458  13.016 -0.6207 -0.7488 -0.0927
17715TIP3    H174636   4.898   4.456  12.957 -1.7584 -1.7621 -1.5512
17715TIP3    H274637   4.833   4.380  13.070  1.1569  0.9012  2.0466
17716TIP3   OH274638   1.577   4.138  10.985 -0.0181 -0.2128 -0.4007
17716TIP3    H174639   1.564   4.196  10.910 -1.7318  1.7817  1.3557
17716TIP3    H274640   1.657   4.170  11.027  0.8491 -1.2254 -1.2460
17717TIP3   OH274641   5.573   4.548   0.766  0.4404  0.1194 -0.4215
17717TIP3    H174642   5.665   4.573   0.755  0.7568 -1.8074 -2.6446
17717TIP3    H274643   5.539   4.543   0.677 -1.1603 -1.5145  0.2527
17718TIP3   OH274644   4.397   5.731   0.098 -0.0330 -0.4997 -0.6413
17718TIP3    H174645   4.358   5.754   0.182 -0.0210 -2.3165 -0.1178
17718TIP3    H274646   4.476   5.784   0.092 -1.6773  1.9754 -0.9533
17719TIP3   OH274647   4.519   5.226  10.994 -0.2113  0.1904  0.5220
17719TIP3    H174648   4.564   5.175  10.926 -1.0747  0.4286 -0.2359
17719TIP3    H274649   4.491   5.306  10.950  0.7394  1.1361  1.6021
17720TIP3   OH274650   3.084   5.715   2.263 -0.0665 -0.2981 -0.0022
17720TIP3    H174651   3.138   5.748   2.335 -0.6401  0.0302  0.2818
17720TIP3    H274652   3.134   5.735   2.184  0.7393 -0.9860  0.3186
17721TIP3   OH274653   2.437   5.212  13.928  0.0046 -0.0568 -0.4010
17721TIP3    H174654   2.343   5.217  13.912 -0.2690 -1.0987  0.8741
17721TIP3    H274655   2.450   5.256  14.012  0.7165  0.3727 -0.7190
17722TIP3   OH274656   6.441   3.231   1.005  0.2787 -0.3969 -0.2281
17722TIP3    H174657   6.401   3.311   0.970  0.5345 -0.6953 -1.1970
17722TIP3    H274658   6.372   3.191   1.057  0.3546  0.7985  0.8169
17723TIP3   OH274659   5.628   3.055  15.354 -0.7093 -0.1700 -0.4118
17723TIP3    H174660   5.646   3.114  15.427 -2.1697  1.1282 -1.0850
17723TIP3    H274661   5.714   3.024  15.327  0.1222  1.8907 -0.2286
17724TIP3   OH274662   3.237   0.588  16.853  0.0885  0.0199 -0.3844
17724TIP3    H174663   3.208   0.498  16.868 -0.0090 -0.1828 -1.6560
17724TIP3    H274664   3.321   0.595  16.898 -0.7352 -0.1628  1.2036
17725TIP3   OH274665   0.589   2.708   4.554 -0.7750  0.4811  0.3246
17725TIP3    H174666   0.565   2.626   4.596 -2.1248 -0.2014 -1.7101
17725TIP3    H274667   0.613   2.766   4.627 -0.8269 -1.3643  1.8464
17726TIP3   OH274668   0.927   0.291   2.546  0.6945  0.0933 -0.4975
17726TIP3    H174669   0.909   0.236   2.470 -1.7583  0.7089 -0.3978
17726TIP3    H274670   0.923   0.231   2.621 -1.9963  0.3608 -0.3866
17727TIP3   OH274671   6.776   4.783  14.991  0.2126  0.0422  0.3699
17727TIP3    H174672   6.686   4.767  15.019  0.2797 -2.7397 -0.8536
17727TIP3    H274673   6.797   4.709  14.935  2.6713  1.5894 -0.8256
17728TIP3   OH274674   3.891   6.427   5.535  0.2676  0.2307  0.1958
17728TIP3    H174675   3.820   6.485   5.564 -0.8048 -1.4382  0.9517
17728TIP3    H274676   3.968   6.484   5.532 -0.2757  1.2053  3.2287
17729TIP3   OH274677   6.025   3.966   0.820  0.1592 -0.5060 -0.0334
17729TIP3    H174678   6.022   4.060   0.803  1.5449 -0.6135 -0.9288
17729TIP3    H274679   6.107   3.953   0.867  0.6885 -1.4587 -1.1947
17730TIP3   OH274680   2.260   1.599   1.633 -0.2095 -0.3887 -0.2934
17730TIP3    H174681   2.170   1.590   1.600 -0.3003 -0.3050 -0.0666
17730TIP3    H274682   2.275   1.693   1.636  1.1690 -0.3919 -3.8341
17731TIP3   OH274683   0.033   1.730  17.286 -0.1733  0.2863  0.3608
17731TIP3    H174684   0.042   1.801  17.223 -0.9560 -0.5399 -0.7119
17731TIP3    H274685   0.122   1.699  17.301  0.0439  0.6930 -0.0958
17732TIP3   OH274686   2.131   2.835   5.509 -0.0424  0.2037  0.0083
17732TIP3    H174687   2.146   2.919   5.553  2.7460 -0.6233  0.7013
17732TIP3    H274688   2.147   2.769   5.577 -0.0124 -0.9666 -1.1154
17733TIP3   OH274689   1.622   3.428  16.713  0.5422 -0.0014 -0.2162
17733TIP3    H174690   1.626   3.347  16.765 -0.3992 -0.3631 -0.7024
17733TIP3    H274691   1.531   3.455  16.718  0.8053  0.8982 -0.2770
17734TIP3   OH274692   5.395   3.326  15.051  0.1083 -0.1559  0.4043
17734TIP3    H174693   5.368   3.324  14.959 -0.3074  1.3586  0.4845
17734TIP3    H274694   5.313   3.320  15.100  0.3822 -1.7663  0.7025
17735TIP3   OH274695   4.234   4.712   6.347 -0.3451 -0.6949  0.1730
17735TIP3    H174696   4.235   4.636   6.404  3.1037 -1.6087 -0.9842
17735TIP3    H274697   4.215   4.677   6.260 -0.9069  0.0515 -0.0091
17736TIP3   OH274698   6.438   1.075  11.335  0.6806 -0.0239  0.5579
17736TIP3    H174699   6.424   0.989  11.374  0.4041 -0.1849  0.1146
17736TIP3    H274700   6.351   1.114  11.332  0.1190 -1.3175 -2.8730
17737TIP3   OH274701   4.272   2.522   4.246  0.1451  1.0344 -0.6655
17737TIP3    H174702   4.360   2.491   4.265 -0.2296 -0.0050 -0.5851
17737TIP3    H274703   4.267   2.522   4.151 -0.1533 -0.0269 -0.6533
17738TIP3   OH274704   6.544   6.395   3.124  0.2382  0.6853  0.7107
17738TIP3    H174705   6.596   6.472   3.102  0.0225  0.6616  0.0952
17738TIP3    H274706   6.460   6.431   3.154  0.0017  0.6920  0.0651
17739TIP3   OH274707   0.707   5.371   2.662  0.3336 -0.9565 -0.0254
17739TIP3    H174708   0.786   5.416   2.693  0.6066  0.2535 -2.3626
17739TIP3    H274709   0.690   5.410   2.576 -2.2780 -1.8755  0.0510
17740TIP3   OH274710   0.033   4.489   3.826  0.6901  0.3677 -0.1846
17740TIP3    H174711   0.124   4.504   3.804  0.1865  1.3920 -1.6417
17740TIP3    H274712   0.032   4.404   3.869  2.3603  0.4739  0.0796
17741TIP3   OH274713   4.434   0.137  15.325  0.3456  0.2177 -0.3158
17741TIP3    H174714   4.418   0.126  15.231  0.3165 -1.3765 -0.1390
17741TIP3    H274715   4.413   0.229  15.342 -0.0709  0.4142 -1.7776
17742TIP3   OH274716   5.563   3.147  11.382 -0.1341 -0.4347 -0.1157
17742TIP3    H174717   5.553   3.075  11.444 -0.0060 -0.1702  0.2137
17742TIP3    H274718   5.587   3.222  11.436 -0.2197 -0.1543 -0.4635
17743TIP3   OH274719   5.604   3.986  13.053  0.4607  0.1659 -0.4826
17743TIP3    H174720   5.511   3.981  13.030  0.6629  1.9430 -1.7948
17743TIP3    H274721   5.616   3.920  13.122 -0.8724 -3.2332 -3.3190
17744TIP3   OH274722   0.283   6.250  15.718 -0.1416 -0.1247 -0.2604
17744TIP3    H174723   0.245   6.244  15.630 -0.2730  0.0688 -0.2153
17744TIP3    H274724   0.237   6.183  15.769 -0.9591  0.6246 -0.0070
17745TIP3   OH274725   6.192   5.781  12.753  0.1085 -0.1486  0.1282
17745TIP3    H174726   6.279   5.805  12.719 -1.3780 -1.1822 -4.7412
17745TIP3    H274727   6.206   5.696  12.795  1.3961 -0.5180 -0.9945
17746TIP3   OH274728   2.821   3.678   2.467 -0.1558  0.0631 -0.2816
17746TIP3    H174729   2.727   3.666   2.482 -0.4327  0.4363 -1.6917
17746TIP3    H274730   2.861   3.661   2.553 -1.4541 -0.6600  0.1921
17747TIP3   OH274731   1.364   2.188   5.202  0.0941 -0.9914  0.1235
17747TIP3    H174732   1.437   2.127   5.216  0.0596 -1.1447 -0.3593
17747TIP3    H274733   1.362   2.202   5.107  1.0625  0.9340  0.3511
17748TIP3   OH274734   1.948   1.748   1.555  0.5741  0.7007  0.2661
17748TIP3    H174735   1.877   1.760   1.492 -0.3836 -0.0070  1.1962
17748TIP3    H274736   1.959   1.653   1.562  0.6742  0.7700  1.1501
17749TIP3   OH274737   2.827   0.295   1.453  0.1867 -0.2957  0.0390
17749TIP3    H174738   2.756   0.349   1.417 -0.4330 -0.7956  0.5117
17749TIP3    H274739   2.785   0.213   1.477  0.3414  0.4522  3.0526
17750TIP3   OH274740   3.998   3.305  13.047  0.2422 -0.3102  0.5301
17750TIP3    H174741   4.074   3.253  13.019 -0.1040 -0.1446 -0.7376
17750TIP3    H274742   4.015   3.392  13.011 -0.6789 -0.3393  0.0073
17751TIP3   OH274743   3.938   1.059   0.691  0.5333  0.2266 -0.0741
17751TIP3    H174744   3.846   1.042   0.710  0.0017  1.3907 -1.5348
17751TIP3    H274745   3.959   1.138   0.740  0.3199  0.8439 -0.9728
17752TIP3   OH274746   4.909   5.332   4.469  0.3320 -0.1318 -0.1666
17752TIP3    H174747   4.980   5.378   4.422 -2.0601  4.2142  0.2315
17752TIP3    H274748   4.933   5.340   4.561 -0.3815  0.9361 -0.0606
17753TIP3   OH274749   1.807   0.439  13.582 -0.2581 -0.4259  0.2307
17753TIP3    H174750   1.845   0.396  13.505  2.0516  0.4493  0.8448
17753TIP3    H274751   1.806   0.372  13.649 -0.5536 -0.6633 -0.0032
17754TIP3   OH274752   3.803   4.091  10.698 -0.2304 -0.2469 -0.0196
17754TIP3    H174753   3.748   4.073  10.622 -1.3415  0.6064  0.5734
17754TIP3    H274754   3.757   4.159  10.746  0.4156 -0.8354  1.4771
17755TIP3   OH274755   6.434   3.270   0.495 -0.6979 -0.3716  0.2414
17755TIP3    H174756   6.371   3.302   0.560 -0.6802 -0.1637  0.1569
17755TIP3    H274757   6.383   3.263   0.414 -0.6680 -0.4203  0.2268
17756TIP3   OH274758   0.861   6.746  13.355  0.8470 -0.1100 -0.4642
17756TIP3    H174759   0.912   6.824  13.333  1.7037 -0.3321  0.6840
17756TIP3    H274760   0.879   6.731  13.448 -0.0433 -1.1429 -0.4447
17757TIP3   OH274761   3.322   0.259   2.457 -0.0930 -0.4285  0.1229
17757TIP3    H174762   3.322   0.335   2.516  0.4283  0.1153 -0.5766
17757TIP3    H274763   3.410   0.257   2.420  0.4905 -2.4627  1.5296
17758TIP3   OH274764   3.539   0.996   4.909  0.0054  0.1690 -0.0209
17758TIP3    H174765   3.532   1.070   4.849  0.0385  1.0837  1.0908
17758TIP3    H274766   3.539   1.035   4.996  0.5780 -1.0948  0.5659
17759TIP3   OH274767   5.898   1.594   2.515  0.4396  0.0510 -0.3211
17759TIP3    H174768   5.932   1.573   2.602 -1.0442 -1.3053 -0.0316
17759TIP3    H274769   5.918   1.686   2.502 -0.6186  0.6520  2.0936
17760TIP3   OH274770   0.008   6.094   1.066  0.4651 -0.2225  0.0781
17760TIP3    H174771   0.005   6.001   1.044 -0.3362 -0.1069 -0.2983
17760TIP3    H274772  -0.043   6.137   0.997  1.3851  0.5668 -0.1331
17761TIP3   OH274773   5.693   2.858  15.053  0.1859  0.4853  0.0521
17761TIP3    H174774   5.608   2.874  15.011  0.2131 -1.1678 -0.6756
17761TIP3    H274775   5.671   2.829  15.142 -0.0134  0.1202 -0.1138
17762TIP3   OH274776   5.917   2.103   2.131  0.9013 -0.4430  0.9755
17762TIP3    H174777   5.870   2.147   2.060 -0.2652 -1.5368  1.0717
17762TIP3    H274778   5.929   2.172   2.197  1.2828  0.3715  0.0744
17763TIP3   OH274779   1.096   4.436   2.523  1.0694  0.0227  0.1618
17763TIP3    H174780   1.185   4.459   2.552  0.7211  0.0076  1.2743
17763TIP3    H274781   1.040   4.502   2.563  0.2853 -1.5182  1.6712
17764TIP3   OH274782   2.595   0.427  15.229  0.1898  0.3747  0.1818
17764TIP3    H174783   2.569   0.345  15.187 -2.0437  1.7453 -1.1975
17764TIP3    H274784   2.644   0.399  15.307  0.9119 -2.2262 -1.1352
17765TIP3   OH274785   2.450   0.160  11.659 -0.2962 -0.0715  0.1627
17765TIP3    H174786   2.512   0.193  11.595 -0.0012 -1.8057 -0.4697
17765TIP3    H274787   2.480   0.071  11.678 -1.7133 -0.3976  0.9647
17766TIP3   OH274788   1.933   2.292  14.399 -0.4504 -0.0149  0.7912
17766TIP3    H174789   1.930   2.202  14.431  1.1998 -1.8437 -3.6857
17766TIP3    H274790   1.856   2.301  14.343  0.3678  0.7218 -0.2492
17767TIP3   OH274791   4.528   0.564   1.046 -0.7480 -0.2296  0.2078
17767TIP3    H174792   4.569   0.643   1.011 -0.8354 -0.5364 -0.5816
17767TIP3    H274793   4.584   0.492   1.015 -0.0354 -0.4051  1.8388
17768TIP3   OH274794   3.152   3.612   4.335 -0.0612  1.1639 -0.0473
17768TIP3    H174795   3.126   3.676   4.402 -2.2474  0.0623  0.1918
17768TIP3    H274796   3.212   3.553   4.380 -3.7741 -1.3389  1.8852
17769TIP3   OH274797   0.479   4.979   4.307  0.3562 -0.9446  0.3929
17769TIP3    H174798   0.401   4.966   4.253  1.0340 -1.5070 -0.4529
17769TIP3    H274799   0.488   5.074   4.312 -1.3410 -0.8234  1.8942
17770TIP3   OH274800   3.101   0.739  13.802 -0.6452 -0.0330 -0.1298
17770TIP3    H174801   3.127   0.647  13.796  1.9699  0.7261 -0.7580
17770TIP3    H274802   3.127   0.765  13.890  0.5788  0.6701 -0.6864
17771TIP3   OH274803   3.963   4.916  17.138  1.0234 -0.4063 -0.3128
17771TIP3    H174804   4.003   4.866  17.067  1.7538 -1.9398  1.1485
17771TIP3    H274805   3.869   4.902  17.127  1.2367 -2.4884  0.3334
17772TIP3   OH274806   2.085   6.286  16.940  0.1266 -0.1647 -0.2052
17772TIP3    H174807   2.148   6.338  16.890  0.9267 -1.0707 -0.1338
17772TIP3    H274808   2.073   6.206  16.890  0.1339 -0.6282  0.5178
17773TIP3   OH274809   2.754   4.506  12.855  0.1153  0.0705  0.6331
17773TIP3    H174810   2.829   4.558  12.827  0.4864 -1.5782 -1.5415
17773TIP3    H274811   2.696   4.570  12.897  3.0012  1.2539  3.0180
17774TIP3   OH274812   5.783   2.346  14.993 -0.0826  0.1636 -0.1184
17774TIP3    H174813   5.874   2.349  14.964 -0.0951 -0.8248 -0.2777
17774TIP3    H274814   5.788   2.336  15.088  0.0012 -1.2213 -0.2496
17775TIP3   OH274815   2.594   0.037  13.886  0.5883  0.6748 -0.0806
17775TIP3    H174816   2.679   0.073  13.909  1.8649 -2.6038  0.6071
17775TIP3    H274817   2.604   0.005  13.796 -0.6630  2.3139 -0.8502
17776TIP3   OH274818   4.745   6.114   1.737 -0.3122  0.2356  0.0401
17776TIP3    H174819   4.779   6.127   1.649 -0.4672 -0.4549 -0.1286
17776TIP3    H274820   4.788   6.034   1.768 -1.3407 -0.3306  0.0423
17777TIP3   OH274821   5.361   0.205   2.996 -0.4971  0.5189 -1.2083
17777TIP3    H174822   5.305   0.200   3.074 -0.6911 -1.8010 -1.4371
17777TIP3    H274823   5.300   0.207   2.923 -0.3238 -1.1100 -1.4222
17778TIP3   OH274824   6.408   2.101  12.109 -0.2269  0.3484 -0.2843
17778TIP3    H174825   6.493   2.095  12.067  0.3791  1.9833  0.6542
17778TIP3    H274826   6.428   2.119  12.201 -1.5638 -0.4809  0.1839
17779TIP3   OH274827   5.053   3.338   3.040  0.2990  0.1414 -0.2685
17779TIP3    H174828   4.978   3.388   3.070 -0.7246 -2.0093  0.9164
17779TIP3    H274829   5.129   3.382   3.080 -0.3217  2.1589 -1.2568
17780TIP3   OH274830   5.476   2.730  14.939 -0.1905 -0.6374  0.0629
17780TIP3    H174831   5.392   2.724  14.893 -0.3701  2.5086 -0.0808
17780TIP3    H274832   5.521   2.648  14.916 -1.3792 -0.3751 -3.5296
17781TIP3   OH274833   0.314   5.168  16.592  0.4950 -0.3750 -0.3276
17781TIP3    H174834   0.223   5.141  16.584 -0.2887  2.3474 -1.3695
17781TIP3    H274835   0.327   5.178  16.687 -1.6219  3.2437 -0.3226
17782TIP3   OH274836   0.355   6.107  12.301  0.5086  0.2616  0.3440
17782TIP3    H174837   0.323   6.183  12.350 -2.2753 -0.8159  0.2904
17782TIP3    H274838   0.444   6.092  12.334  0.6098  2.7403  1.2543
17783TIP3   OH274839   5.540   6.696   4.016  0.3329 -0.1488 -0.2170
17783TIP3    H174840   5.449   6.701   3.988  0.2996 -0.3628 -0.1482
17783TIP3    H274841   5.540   6.729   4.105  0.8168  2.8040 -1.2539
17784TIP3   OH274842   6.632   1.943   1.199 -0.3002 -0.2189  0.2062
17784TIP3    H174843   6.603   2.007   1.264  1.0778 -1.0456  1.6791
17784TIP3    H274844   6.586   1.863   1.223 -1.0966 -0.0937 -0.8931
17785TIP3   OH274845   2.516   3.751   3.808  0.6992  0.1161  0.2858
17785TIP3    H174846   2.582   3.776   3.873  0.5441  0.2873  0.3782
17785TIP3    H274847   2.496   3.660   3.827 -0.1128  0.4628  1.1408
17786TIP3   OH274848   6.025   0.550  16.351  0.5598  0.1733 -0.0528
17786TIP3    H174849   5.986   0.526  16.435  0.5270 -0.0617 -0.1351
17786TIP3    H274850   6.086   0.621  16.372  1.3411 -0.6033  0.3233
17787TIP3   OH274851   3.570   6.079  16.174  0.0333  0.4365  0.7092
17787TIP3    H174852   3.538   6.166  16.198 -1.9321 -0.0611  0.0402
17787TIP3    H274853   3.543   6.023  16.246 -1.0530 -0.0750 -0.0781
17788TIP3   OH274854   0.518   3.161   0.014  0.2380 -0.2586  0.5277
17788TIP3    H174855   0.499   3.071  -0.014  1.0331 -0.8900  1.9286
17788TIP3    H274856   0.571   3.150   0.093 -1.5527  1.4415  2.0107
17789TIP3   OH274857   6.670   0.367  12.484 -0.3755 -0.0752 -0.1195
17789TIP3    H174858   6.731   0.380  12.411  1.4258  0.7683  1.4688
17789TIP3    H274859   6.615   0.294  12.457  0.8925 -0.4004 -1.9123
17790TIP3   OH274860   4.660   0.833  15.712  0.2484 -0.1947  0.3528
17790TIP3    H174861   4.641   0.766  15.778 -2.3657  1.8461  1.7913
17790TIP3    H274862   4.679   0.912  15.763  3.6975  0.0932 -1.3063
17791TIP3   OH274863   2.946   3.462  14.962  0.6324  0.4334 -0.2528
17791TIP3    H174864   2.990   3.454  15.047  0.2839  1.2642  0.0054
17791TIP3    H274865   2.939   3.556  14.947 -0.9131  0.2979 -0.3822
17792TIP3   OH274866   2.952   3.746   1.667 -0.5446  0.0789 -0.5302
17792TIP3    H174867   2.954   3.779   1.757 -1.9375  0.7051 -0.7162
17792TIP3    H274868   3.044   3.740   1.642 -0.1599  0.3234  0.7897
17793TIP3   OH274869   3.098   2.706   1.479  0.4872 -0.5639  0.5042
17793TIP3    H174870   3.100   2.801   1.469  1.1711 -0.5456  0.7803
17793TIP3    H274871   3.187   2.683   1.506  0.2018 -1.2336  0.8720
17794TIP3   OH274872   0.263   2.324   5.840 -0.0501  0.4932 -0.1047
17794TIP3    H174873   0.352   2.340   5.809 -0.4943  0.6300 -1.3430
17794TIP3    H274874   0.240   2.403   5.889  0.9845 -0.0982  1.3772
17795TIP3   OH274875   2.741   4.705  13.980 -0.5366 -0.2276 -0.2770
17795TIP3    H174876   2.764   4.653  14.057 -0.7238  0.3952  0.2043
17795TIP3    H274877   2.645   4.697  13.974 -0.4788 -0.6682 -0.7371
17796TIP3   OH274878   5.392   4.266  17.038 -0.2364 -0.3424 -0.2217
17796TIP3    H174879   5.368   4.358  17.030 -2.1506 -0.8391 -0.3046
17796TIP3    H274880   5.395   4.234  16.948  1.0365 -0.2330 -0.2355
17797TIP3   OH274881   2.502   1.703   5.125 -0.6394 -0.2491  0.1791
17797TIP3    H174882   2.435   1.720   5.191 -0.3461 -1.0413  0.6941
17797TIP3    H274883   2.581   1.682   5.175 -0.6067 -1.6065 -0.4062
17798TIP3   OH274884   6.614   1.735   6.464 -0.1203  0.7478  0.3566
17798TIP3    H174885   6.582   1.826   6.466 -0.1332  0.7345  0.6705
17798TIP3    H274886   6.639   1.716   6.554 -1.3575  0.0002  0.5493
17799TIP3   OH274887   3.774   4.775  15.462  0.1933  0.2939 -0.3978
17799TIP3    H174888   3.835   4.714  15.504 -0.7955 -0.2990  0.2197
17799TIP3    H274889   3.788   4.858  15.507  1.1439  0.3734 -0.8471
17800TIP3   OH274890   0.775   3.821   5.643 -0.5122  0.1823 -0.3746
17800TIP3    H174891   0.788   3.771   5.723  0.0512 -0.4716 -0.8720
17800TIP3    H274892   0.702   3.778   5.599 -1.3300  1.0100  0.1509
17801TIP3   OH274893   3.202   3.198  12.581  0.0944 -0.0766  0.0703
17801TIP3    H174894   3.248   3.275  12.545  0.5651 -0.5429 -0.3432
17801TIP3    H274895   3.112   3.209  12.552  0.5070 -0.5386 -1.4376
17802TIP3   OH274896   2.797   4.183  13.594  0.2421 -0.0268  0.5284
17802TIP3    H174897   2.708   4.201  13.563  0.2833 -0.1772  0.3221
17802TIP3    H274898   2.785   4.147  13.682 -0.0408 -2.2030 -0.3704
17803TIP3   OH274899   5.901   2.945  16.937  0.2307  0.2887  0.2847
17803TIP3    H174900   5.831   2.980  16.882  0.2404 -0.2883 -0.1080
17803TIP3    H274901   5.856   2.901  17.009  0.2350  2.0257  1.3811
17804TIP3   OH274902   2.318   0.055   5.353  0.1136  0.2052  0.4354
17804TIP3    H174903   2.389  -0.006   5.373 -0.4810 -0.3822  0.7813
17804TIP3    H274904   2.339   0.089   5.266 -0.1799 -1.4106 -0.2822
17805TIP3   OH274905   1.546   4.952   3.952 -0.1975  0.7351  0.2920
17805TIP3    H174906   1.594   4.896   4.014 -0.2919 -1.4209 -1.5128
17805TIP3    H274907   1.610   5.016   3.922  0.4674  0.3694  0.9255
17806TIP3   OH274908   1.568   5.682   6.171 -0.4441 -0.1851  0.2851
17806TIP3    H174909   1.595   5.629   6.246  0.9178 -2.0289 -1.4635
17806TIP3    H274910   1.627   5.656   6.101  0.5057  3.8904 -0.5782
17807TIP3   OH274911   6.352   2.807  12.663 -0.0897  0.6239 -0.1477
17807TIP3    H174912   6.423   2.743  12.667 -1.2446 -0.6605  0.2641
17807TIP3    H274913   6.352   2.837  12.572 -0.4561 -1.0727 -0.7395
17808TIP3   OH274914   0.513   6.239   5.538  0.0057  0.1028 -0.5216
17808TIP3    H174915   0.430   6.235   5.586  0.1245 -0.7000 -0.3747
17808TIP3    H274916   0.488   6.221   5.447  0.0280 -0.2622 -0.4585
17809TIP3   OH274917   5.642   1.944   1.958  0.2887  0.2716  0.0825
17809TIP3    H174918   5.733   1.917   1.968  0.2172 -0.2310 -0.5913
17809TIP3    H274919   5.609   1.891   1.886 -0.2269  1.2428 -0.4108
17810TIP3   OH274920   1.040   4.730  13.921  0.5249  0.2878 -0.0890
17810TIP3    H174921   1.100   4.766  13.856  0.4615  1.7874  0.6689
17810TIP3    H274922   1.081   4.648  13.949  2.7231  1.7389  1.0870
17811TIP3   OH274923   6.275   3.342  15.443  0.0067 -0.1591  0.2990
17811TIP3    H174924   6.339   3.279  15.475  0.9879  0.2612 -0.7811
17811TIP3    H274925   6.196   3.326  15.495  1.0004 -0.6580  1.6642
17812TIP3   OH274926   0.516   6.642  14.637 -0.1803 -0.2801  0.7907
17812TIP3    H174927   0.592   6.584  14.645 -0.0082 -0.1428  0.1501
17812TIP3    H274928   0.457   6.595  14.578  0.4922  0.7588 -0.7269
17813TIP3   OH274929   0.721   1.433  15.913  0.3987 -0.1883 -0.6743
17813TIP3    H174930   0.752   1.490  15.843 -1.3238  2.2179  0.4578
17813TIP3    H274931   0.786   1.444  15.983 -0.9719  1.9778  0.2947
17814TIP3   OH274932   4.481   6.539  13.486 -0.1725 -0.7716 -0.5117
17814TIP3    H174933   4.565   6.555  13.529 -0.7034  1.0048 -0.0889
17814TIP3    H274934   4.483   6.591  13.406 -1.8401  1.3223  0.7569
17815TIP3   OH274935   4.746   5.840  11.766  0.1464 -0.1347  0.2191
17815TIP3    H174936   4.791   5.806  11.843  1.0096  0.5036 -0.0015
17815TIP3    H274937   4.756   5.772  11.700 -0.6158 -0.6935  0.6658
17816TIP3   OH274938   3.526   6.215  15.767  0.0525 -0.6040  0.7631
17816TIP3    H174939   3.439   6.197  15.802  0.5160 -2.2606  1.1107
17816TIP3    H274940   3.585   6.164  15.822  1.1751 -0.1162  0.0368
17817TIP3   OH274941   3.233   3.205  15.966 -0.2492 -1.1212 -0.1693
17817TIP3    H174942   3.280   3.188  15.884 -0.4509  1.0091 -0.7501
17817TIP3    H274943   3.303   3.219  16.030 -0.0724 -4.5009  0.4374
17818TIP3   OH274944   2.722   5.187  15.264  0.6475 -0.1531  0.4430
17818TIP3    H174945   2.713   5.124  15.336  4.0471 -1.9330 -0.5357
17818TIP3    H274946   2.638   5.184  15.219 -0.0897 -2.2272  1.8381
17819TIP3   OH274947   5.598   1.395   3.527 -0.7351  0.3368 -0.2906
17819TIP3    H174948   5.680   1.441   3.511  0.8825 -1.8638  1.5180
17819TIP3    H274949   5.543   1.461   3.571  0.6563  1.2865  0.0606
17820TIP3   OH274950   3.136   6.037  10.572  0.2820 -0.2597 -0.1268
17820TIP3    H174951   3.075   5.970  10.544 -0.9836  0.4440  0.9072
17820TIP3    H274952   3.082   6.113  10.594  1.2674 -0.3539  2.9541
17821TIP3   OH274953   5.849   2.981   1.785  0.9438 -0.1671 -0.8457
17821TIP3    H174954   5.823   2.947   1.700  0.7212  1.9787 -1.6716
17821TIP3    H274955   5.810   2.920   1.848 -1.1783 -0.2798 -2.2038
17822TIP3   OH274956   0.229   5.445  14.631 -0.2542  0.0518  0.2113
17822TIP3    H174957   0.169   5.429  14.558 -0.1103 -1.1143  0.3354
17822TIP3    H274958   0.309   5.397  14.607 -0.5235 -1.1103  1.5395
17823TIP3   OH274959   3.560   6.586  11.920  0.0602 -0.8780 -0.4019
17823TIP3    H174960   3.492   6.653  11.922 -0.6404 -1.5898 -0.1843
17823TIP3    H274961   3.550   6.538  12.002  1.9466  0.0935  0.4415
17824TIP3   OH274962   4.158   6.680  13.597  0.0648 -0.1302  0.1133
17824TIP3    H174963   4.226   6.742  13.569  0.4775 -0.7924 -0.3764
17824TIP3    H274964   4.092   6.685  13.528 -0.7662  1.0881  0.9782
17825TIP3   OH274965   6.742   3.164  14.175 -0.2759  0.3912  0.0404
17825TIP3    H174966   6.762   3.176  14.267 -0.8329  0.1751  0.1932
17825TIP3    H274967   6.663   3.216  14.160  0.9094  1.9816 -0.7756
17826TIP3   OH274968   2.814   3.128  16.221  0.3175 -0.5850 -0.1418
17826TIP3    H174969   2.876   3.197  16.201  0.2496 -0.1799  1.0130
17826TIP3    H274970   2.740   3.144  16.163  0.4256  0.1413 -0.0755
17827TIP3   OH274971   0.706   3.666   0.618 -0.1404 -0.2650  0.1974
17827TIP3    H174972   0.740   3.715   0.694  2.1529  0.7580 -1.4306
17827TIP3    H274973   0.745   3.579   0.627  0.7619  0.0884 -0.1950
17828TIP3   OH274974   0.866   1.676  14.141 -0.5343  0.1822  0.3462
17828TIP3    H174975   0.775   1.676  14.114 -0.3373  0.1415 -0.3235
17828TIP3    H274976   0.865   1.639  14.229 -0.9727 -1.3853 -0.3062
17829TIP3   OH274977   1.364   4.917  16.533  0.2646 -0.2419 -0.9591
17829TIP3    H174978   1.297   4.863  16.575  0.6238 -0.0641 -0.1429
17829TIP3    H274979   1.443   4.901  16.585  0.5266  0.5829 -1.0972
17830TIP3   OH274980   2.494   4.522   0.829  0.0896 -0.2189 -0.7569
17830TIP3    H174981   2.500   4.440   0.877 -0.1170 -0.1848 -0.6756
17830TIP3    H274982   2.458   4.584   0.892  1.0993  0.1566 -0.5356
17831TIP3   OH274983   4.115   1.968   6.725 -0.2501 -0.3505 -0.4465
17831TIP3    H174984   4.133   1.884   6.683  0.9171 -0.4325  0.1975
17831TIP3    H274985   4.048   1.949   6.790 -0.2168 -0.7219 -0.5201
17832TIP3   OH274986   5.100   6.578  14.504  0.1306 -0.0823  0.1178
17832TIP3    H174987   5.096   6.657  14.450 -0.7234  0.6319  1.2219
17832TIP3    H274988   5.181   6.587  14.553 -0.6892  0.8409  1.3372
17833TIP3   OH274989   3.226   2.318   4.553 -0.0184 -0.4386  0.0142
17833TIP3    H174990   3.158   2.253   4.535 -0.5587  0.3047 -0.7185
17833TIP3    H274991   3.279   2.320   4.473  0.6336 -0.7271  0.4321
17834TIP3   OH274992   4.812   1.235   5.506  0.6551 -0.1241  0.0463
17834TIP3    H174993   4.872   1.307   5.487  0.4894  0.1938  0.7331
17834TIP3    H274994   4.780   1.207   5.420  0.7646  0.5818 -0.2260
17835TIP3   OH274995   3.657   3.762   4.583 -0.0170 -0.0413  0.3646
17835TIP3    H174996   3.722   3.747   4.652  0.4329  2.7552  0.5869
17835TIP3    H274997   3.572   3.755   4.627  0.2373  0.1727  0.8843
17836TIP3   OH274998   2.377   6.527  16.534  0.0219 -0.5408  0.2444
17836TIP3    H174999   2.406   6.512  16.624 -1.2272  1.7011  1.0591
17836TIP3    H275000   2.285   6.499  16.534 -0.4686  1.0390  0.1341
17837TIP3   OH275001   3.625   5.529   5.688 -0.5248  0.3567  0.0124
17837TIP3    H175002   3.542   5.482   5.688  0.0386 -0.6579  1.5621
17837TIP3    H275003   3.663   5.510   5.602 -0.5141 -1.6559  0.4371
17838TIP3   OH275004   1.151   5.579  12.102 -0.5723  0.4180  0.0022
17838TIP3    H175005   1.239   5.577  12.065 -0.5164 -0.3683  0.1694
17838TIP3    H275006   1.102   5.638  12.045 -0.1740  0.1505 -0.6262
17839TIP3   OH275007   2.424   5.343  14.506 -0.0800  0.2770 -0.2762
17839TIP3    H175008   2.353   5.319  14.566 -0.7877  0.1730 -1.1415
17839TIP3    H275009   2.383   5.403  14.444  0.1620 -1.1117 -1.8028
17840TIP3   OH275010   4.057   4.706   0.012 -0.4518  0.4816  0.1206
17840TIP3    H175011   4.023   4.784  -0.032 -2.2128  0.3403  1.1769
17840TIP3    H275012   3.985   4.678   0.068  0.0437 -2.1119 -0.5095
17841TIP3   OH275013   3.562   5.299  10.554  0.5795 -0.3098  0.3311
17841TIP3    H175014   3.518   5.247  10.621 -1.3468  0.0628 -0.6361
17841TIP3    H275015   3.655   5.280  10.568  0.0496 -2.4091  1.3168
17842TIP3   OH275016   2.881   6.355  14.077 -0.7745  0.0122 -0.5597
17842TIP3    H175017   2.843   6.442  14.092  0.6065  0.8656 -1.8514
17842TIP3    H275018   2.927   6.335  14.159 -2.2970 -0.1551  0.2790
17843TIP3   OH275019   0.391   2.881  17.230 -0.4968  0.1975  0.5312
17843TIP3    H175020   0.334   2.846  17.298  0.8700 -1.0302  1.0701
17843TIP3    H275021   0.332   2.923  17.168 -2.0101 -1.2980  0.9327
17844TIP3   OH275022   0.546   4.959   0.800 -0.1625  0.0067  0.3547
17844TIP3    H175023   0.497   4.888   0.760  0.4195 -0.1682 -0.0592
17844TIP3    H275024   0.620   4.974   0.740 -0.1383  0.7796  0.5719
17845TIP3   OH275025   2.085   0.835  16.888 -0.1322 -0.2090 -0.1519
17845TIP3    H175026   2.089   0.901  16.819 -0.4129 -1.0433 -0.9723
17845TIP3    H275027   2.153   0.771  16.864 -0.8014 -0.9387 -0.1183
17846TIP3   OH275028   5.842   6.799  15.408  0.0405  0.2804  0.4641
17846TIP3    H175029   5.908   6.730  15.419 -0.6246 -0.4814 -0.2740
17846TIP3    H275030   5.883   6.861  15.348  0.1661 -0.0868  0.1672
17847TIP3   OH275031   3.361   6.234  14.033  0.3813 -0.1297  0.2427
17847TIP3    H175032   3.279   6.280  14.016  2.3177  2.5654 -2.2973
17847TIP3    H275033   3.416   6.300  14.076  2.2058 -0.9994 -0.7196
17848TIP3   OH275034   0.368   3.895  11.632 -0.2094 -0.4648 -0.0312
17848TIP3    H175035   0.300   3.828  11.628 -0.0622 -0.6707  0.8368
17848TIP3    H275036   0.449   3.846  11.650  0.0668 -0.1568 -0.4103
17849TIP3   OH275037   4.920   1.863   3.913  0.5680 -0.4161  1.1662
17849TIP3    H175038   4.853   1.821   3.860  1.0237 -2.3764  2.0865
17849TIP3    H275039   4.956   1.931   3.856 -1.4615 -0.0328  0.3018
17850TIP3   OH275040   2.245   4.241  13.356 -0.0011 -0.7208 -0.5879
17850TIP3    H175041   2.280   4.196  13.433 -0.1502  1.5146  0.8051
17850TIP3    H275042   2.150   4.237  13.367 -0.0208 -0.3235 -0.6086
17851TIP3   OH275043   6.483   2.509  16.937  0.1080 -0.4716  0.0220
17851TIP3    H175044   6.399   2.498  16.892  0.9126 -0.9009 -1.4312
17851TIP3    H275045   6.495   2.427  16.984 -0.5223 -0.2121  0.6357
17852TIP3   OH275046   5.596   4.129  12.071 -0.1881 -0.3252 -0.9807
17852TIP3    H175047   5.593   4.111  12.165 -1.4451 -1.5094 -1.2431
17852TIP3    H275048   5.505   4.130  12.043  0.0096  2.6214 -1.7363
17853TIP3   OH275049   1.777   3.870  11.521 -0.1870  0.4913 -0.4534
17853TIP3    H175050   1.861   3.871  11.567  0.5140  0.8454 -1.7303
17853TIP3    H275051   1.790   3.807  11.450 -1.9201 -1.6128  1.0302
17854TIP3   OH275052   2.379   4.765  11.968  0.1529  0.2883  0.2981
17854TIP3    H175053   2.320   4.780  11.894 -0.1547 -0.4898  0.3817
17854TIP3    H275054   2.333   4.702  12.023  0.7526  0.2213  0.7253
17855TIP3   OH275055   6.331   5.072   2.377 -0.7261  0.5724 -0.3475
17855TIP3    H175056   6.314   5.028   2.460 -3.4447 -1.5799 -1.9650
17855TIP3    H275057   6.272   5.147   2.378 -0.6090  0.6654 -0.2736
17856TIP3   OH275058   2.791   3.491   1.300  0.8853  0.0962  0.2433
17856TIP3    H175059   2.751   3.406   1.286  0.9158  0.2313 -0.6566
17856TIP3    H275060   2.797   3.499   1.396  0.0028 -0.4882  0.3483
17857TIP3   OH275061   5.977   0.643   3.793  0.2667  0.2172  0.2412
17857TIP3    H175062   6.059   0.601   3.767 -0.3364 -0.7390 -0.1344
17857TIP3    H275063   5.984   0.732   3.758  0.1866 -0.5340 -1.7795
17858TIP3   OH275064   1.320   1.269   1.605 -0.1391 -0.6521 -0.1132
17858TIP3    H175065   1.344   1.200   1.544 -1.5533  0.0608 -1.5082
17858TIP3    H275066   1.403   1.312   1.627  0.3561 -0.7845 -1.7011
17859TIP3   OH275067   3.342   0.180   1.839  0.1555  0.6843 -0.1261
17859TIP3    H175068   3.391   0.258   1.814  0.7724 -0.3649 -2.3175
17859TIP3    H275069   3.251   0.201   1.818  0.1279  1.3115  0.5963
17860TIP3   OH275070   5.814   3.354   5.592  0.7487 -0.2498  0.0849
17860TIP3    H175071   5.893   3.344   5.538  0.8469  0.7540  0.0320
17860TIP3    H275072   5.843   3.331   5.680  0.6494 -1.6528 -0.2310
17861TIP3   OH275073   2.963   0.079   5.032 -0.2085  0.9214 -1.0864
17861TIP3    H175074   2.903   0.019   4.987  0.4630  0.1037 -0.9097
17861TIP3    H275075   2.956   0.056   5.124  0.1137  1.0592 -1.0267
17862TIP3   OH275076   1.851   6.356   2.469 -0.2818 -0.0680 -0.2610
17862TIP3    H175077   1.810   6.330   2.387 -0.3643 -1.2595  0.1479
17862TIP3    H275078   1.800   6.431   2.498  0.2231  0.8354 -1.6756
17863TIP3   OH275079   0.031   4.106  12.328  0.0838  0.1548 -0.2912
17863TIP3    H175080   0.083   4.026  12.339 -2.3369 -1.5263 -0.6463
17863TIP3    H275081   0.068   4.148  12.250  2.1281 -0.0016  0.5637
17864TIP3   OH275082   0.128   3.830  14.212 -0.0902 -0.2793  0.3102
17864TIP3    H175083   0.088   3.749  14.243 -0.5853  0.0510  0.5370
17864TIP3    H275084   0.115   3.828  14.117  0.1963 -0.6255  0.2785
17865TIP3   OH275085   1.331   3.592   4.385  0.2852 -0.4577  0.3457
17865TIP3    H175086   1.351   3.610   4.293 -0.4853 -0.8830  0.0900
17865TIP3    H275087   1.375   3.662   4.433  3.3309 -1.9724 -0.0882
17866TIP3   OH275088   5.677   6.809   0.240 -0.1726  0.8684 -0.0896
17866TIP3    H175089   5.734   6.735   0.262 -0.4276  1.3120  2.1316
17866TIP3    H275090   5.590   6.770   0.229 -0.1846  0.7605  0.4167
17867TIP3   OH275091   2.023   0.038  16.756  0.1048 -0.1016  0.2756
17867TIP3    H175092   2.011   0.133  16.757  0.4002 -0.0438  3.2048
17867TIP3    H275093   2.095   0.024  16.694  0.2592  1.5918  0.0283
17868TIP3   OH275094   2.080   6.712  11.622 -0.3924  0.7224  0.2837
17868TIP3    H175095   2.146   6.657  11.579 -0.7030  0.5252  0.0623
17868TIP3    H275096   2.060   6.666  11.703 -0.7947  0.4049  0.0077
17869TIP3   OH275097   3.487   0.946  13.997  0.0012 -0.2012 -0.3958
17869TIP3    H175098   3.425   0.874  14.000  2.2733 -2.2881 -2.1891
17869TIP3    H275099   3.444   1.013  13.945 -1.6333 -0.7138  0.2757
17870TIP3   OH275100   0.951   4.157   2.002 -0.1243 -0.0310  0.1294
17870TIP3    H175101   1.033   4.192   2.036 -0.8611  2.3795 -0.4955
17870TIP3    H275102   0.954   4.177   1.908 -1.9339  1.1044  0.3053
17871TIP3   OH275103   5.734   4.925   4.271 -0.5381 -0.7284 -0.2744
17871TIP3    H175104   5.667   4.994   4.270 -0.4188 -0.5412  1.7366
17871TIP3    H275105   5.695   4.855   4.324  1.1120 -0.3135  1.5506
17872TIP3   OH275106   3.445   6.643  15.583 -0.0404  0.1206  0.2471
17872TIP3    H175107   3.469   6.652  15.490  1.6518 -0.8970  0.5642
17872TIP3    H275108   3.410   6.555  15.590  1.3180 -0.3699  0.8862
17873TIP3   OH275109   4.613   5.661   0.310 -0.2265  0.0735 -0.6065
17873TIP3    H175110   4.584   5.721   0.379 -0.1302 -0.3592 -0.1819
17873TIP3    H275111   4.570   5.579   0.330 -1.4487  0.3577 -1.9890
17874TIP3   OH275112   4.989   4.223   5.530  0.5702  0.5226 -0.0472
17874TIP3    H175113   5.009   4.166   5.604  1.3120 -0.4057 -0.9676
17874TIP3    H275114   4.961   4.164   5.461  0.8128  1.3232 -0.8339
17875TIP3   OH275115   6.301   1.464   1.277 -0.2921  0.1483  0.1615
17875TIP3    H175116   6.239   1.511   1.334 -2.0268 -1.8025 -0.0724
17875TIP3    H275117   6.269   1.374   1.275 -0.3614  0.1759 -4.0317
17876TIP3   OH275118   3.881   4.200   4.729  0.3686 -0.1278 -0.2278
17876TIP3    H175119   3.891   4.156   4.813 -0.1962  0.8647  0.3673
17876TIP3    H275120   3.789   4.188   4.706 -0.2262  2.2274  0.7943
17877TIP3   OH275121   4.956   4.971  16.356  0.0296  0.5522  0.0361
17877TIP3    H175122   4.973   4.995  16.447  1.7798  0.7655 -0.3211
17877TIP3    H275123   4.991   5.044  16.305  1.5351 -0.7684 -0.8941
17878TIP3   OH275124   3.346   2.829   2.177 -0.0079 -0.4659  0.3594
17878TIP3    H175125   3.301   2.913   2.186 -0.5651 -0.7143 -0.1263
17878TIP3    H275126   3.291   2.767   2.226 -0.2650 -0.7927 -0.3364
17879TIP3   OH275127   0.267   5.456   6.835 -0.0324  0.0196  0.2129
17879TIP3    H175128   0.315   5.516   6.778  0.0837  1.2942  1.5998
17879TIP3    H275129   0.315   5.374   6.830  1.6074  0.9310  0.6274
17880TIP3   OH275130   4.829   1.539   4.065 -0.3993 -0.1899  0.0804
17880TIP3    H175131   4.781   1.600   4.009 -2.2823  0.5312  2.4170
17880TIP3    H275132   4.839   1.585   4.148  1.7913 -1.4889  0.5701
17881TIP3   OH275133   4.295   1.349  16.188  0.3568  0.2309 -0.0170
17881TIP3    H175134   4.383   1.341  16.151 -0.4978 -0.5963 -1.9696
17881TIP3    H275135   4.259   1.428  16.147 -0.3431 -0.2860 -0.4123
17882TIP3   OH275136   1.764   6.673  15.872  1.0204 -0.2317 -0.2927
17882TIP3    H175137   1.744   6.672  15.966  0.0134  0.1845 -0.4991
17882TIP3    H275138   1.687   6.713  15.832  0.6062 -2.1626 -1.4941
17883TIP3   OH275139   6.550   6.796   3.642 -0.3566 -0.3053  0.6214
17883TIP3    H175140   6.550   6.701   3.643 -0.0913 -0.4395 -3.2970
17883TIP3    H275141   6.464   6.820   3.607 -1.1403  1.0016  3.3220
17884TIP3   OH275142   3.564   5.549   1.677  0.1220 -0.1086 -0.2014
17884TIP3    H175143   3.510   5.578   1.602 -0.4666 -0.0374  0.2474
17884TIP3    H275144   3.647   5.523   1.637 -0.5867 -1.1821 -1.0296
17885TIP3   OH275145   2.137   5.329   1.823  0.4872  0.5729 -0.6445
17885TIP3    H175146   2.065   5.343   1.762 -1.3914  1.6808  1.7724
17885TIP3    H275147   2.178   5.247   1.793 -1.2231  0.3774 -2.5438
17886TIP3   OH275148   3.533   0.889   4.229 -0.3899  0.0976  0.1270
17886TIP3    H175149   3.536   0.793   4.223 -0.9563  0.0643  0.3679
17886TIP3    H275150   3.581   0.910   4.309 -1.3429 -0.0611  0.7439
17887TIP3   OH275151   2.763   2.704   2.705 -0.0047 -0.5390  0.5005
17887TIP3    H175152   2.815   2.627   2.680  1.2373  0.0732  1.1273
17887TIP3    H275153   2.819   2.751   2.767  0.4354  2.2831 -1.8840
17888TIP3   OH275154   4.120   3.263  13.307  0.2778  0.3029  0.5183
17888TIP3    H175155   4.134   3.169  13.297  0.5664  0.3513  0.4671
17888TIP3    H275156   4.064   3.286  13.233 -0.8970 -0.0695  1.2885
17889TIP3   OH275157   5.524   1.215  10.303  0.6747 -0.9901  0.3150
17889TIP3    H175158   5.431   1.231  10.320  0.5681 -2.8097  1.5408
17889TIP3    H275159   5.568   1.244  10.383  0.9665 -2.0803  0.5503
17890TIP3   OH275160   6.575   1.898  13.690 -0.2010  0.0415  0.1884
17890TIP3    H175161   6.645   1.950  13.730  1.8692 -2.1134 -0.4859
17890TIP3    H275162   6.518   1.873  13.763  0.9484  0.0303  1.0973
17891TIP3   OH275163   3.886   0.256   3.906  0.4435  0.0342  0.6568
17891TIP3    H175164   3.790   0.252   3.913  0.4620 -1.3558  0.2681
17891TIP3    H275165   3.915   0.278   3.995 -0.2722  1.6430  0.5203
17892TIP3   OH275166   6.682   4.316   1.475  1.1190  0.3427 -0.1328
17892TIP3    H175167   6.733   4.295   1.553 -0.6944 -0.4977  0.8368
17892TIP3    H275168   6.715   4.402   1.448  3.2138 -0.2824  0.3285
17893TIP3   OH275169   0.520   3.279   1.010 -0.0461  0.6081 -0.6896
17893TIP3    H175170   0.466   3.238   0.943 -0.6791  1.0015 -0.4258
17893TIP3    H275171   0.588   3.326   0.962 -1.1856  1.8568 -1.0929
17894TIP3   OH275172   0.701   1.716   0.726 -0.3348  0.0784 -0.0601
17894TIP3    H175173   0.748   1.751   0.651 -0.7477 -1.5277 -1.1042
17894TIP3    H275174   0.679   1.792   0.779  1.0372  1.1078 -0.9409
17895TIP3   OH275175   0.846   1.995   1.090 -0.0548 -0.2437  0.1740
17895TIP3    H175176   0.760   2.020   1.125 -0.2838 -0.1914 -0.4287
17895TIP3    H275177   0.875   1.923   1.146 -0.6292 -0.4680  0.1783
17896TIP3   OH275178   0.109   5.962  13.887  0.5295  0.5456 -0.3994
17896TIP3    H175179   0.193   5.986  13.849  0.2983 -0.5165 -1.5796
17896TIP3    H275180   0.129   5.940  13.978  1.8119 -1.3863 -1.1283
17897TIP3   OH275181   2.351   5.529  13.028  0.0248 -0.4391 -0.2303
17897TIP3    H175182   2.304   5.599  13.075 -0.2238 -0.3975 -0.5408
17897TIP3    H275183   2.282   5.475  12.991  0.2029 -1.6299  1.1338
17898TIP3   OH275184   6.687   0.651  16.840 -0.3702 -0.5160  0.0165
17898TIP3    H175185   6.600   0.612  16.837 -0.9820  0.8427 -0.7898
17898TIP3    H275186   6.746   0.577  16.854 -1.6743 -1.4067  0.9574
17899TIP3   OH275187   2.935   6.615   3.264 -0.6554  0.2387 -0.6685
17899TIP3    H175188   2.944   6.617   3.359 -2.9221 -1.3884 -0.3929
17899TIP3    H275189   2.968   6.528   3.239  0.8491  1.0179 -1.5105
17900TIP3   OH275190   2.810   4.130  12.632 -0.6510 -0.3685  0.8151
17900TIP3    H175191   2.874   4.079  12.683  0.8395 -0.3857 -1.0120
17900TIP3    H275192   2.828   4.106  12.541 -0.6493  2.6198 -0.0082
17901TIP3   OH275193   0.800   0.034  16.580 -0.4338  0.1399  0.5027
17901TIP3    H175194   0.745  -0.022  16.526 -0.1509 -2.2254  2.5154
17901TIP3    H275195   0.888  -0.002  16.568 -0.0947  0.7866  1.0415
17902TIP3   OH275196   5.827   2.159  11.549  0.5401 -0.0647  0.4099
17902TIP3    H175197   5.764   2.215  11.594  0.5554 -1.0834  1.7199
17902TIP3    H275198   5.777   2.120  11.477  0.4110  1.2586 -0.2263
17903TIP3   OH275199   3.846   6.275   0.334 -0.1461 -0.2733 -0.4360
17903TIP3    H175200   3.792   6.230   0.399 -1.2174  1.0073 -0.4110
17903TIP3    H275201   3.821   6.236   0.250  0.6102 -1.3189 -0.1925
17904TIP3   OH275202   2.696   6.378  11.797 -0.2846 -0.5095  0.4242
17904TIP3    H175203   2.720   6.409  11.884  1.5368  1.2327 -0.6364
17904TIP3    H275204   2.780   6.359  11.755 -1.1082 -0.6465 -1.1806
17905TIP3   OH275205   3.148   4.327  16.790 -0.2602  0.1547  0.3471
17905TIP3    H175206   3.188   4.264  16.850 -1.2543 -0.1260  0.7250
17905TIP3    H275207   3.220   4.356  16.734  0.2410 -1.1667  0.2991
17906TIP3   OH275208   0.125   0.739  11.311 -0.0575  0.0839  0.2812
17906TIP3    H175209   0.162   0.671  11.256  2.3221  1.4788  0.0896
17906TIP3    H275210   0.046   0.767  11.264 -0.4095 -1.6703 -0.2305
17907TIP3   OH275211   2.959   5.633  12.326 -0.1179 -0.6507  0.1283
17907TIP3    H175212   2.931   5.714  12.368 -0.9220 -1.8879  2.0155
17907TIP3    H275213   2.877   5.586  12.308  0.3314 -0.9533 -1.1878
17908TIP3   OH275214   0.867   2.844  17.283 -0.4345 -0.0325 -0.1385
17908TIP3    H175215   0.926   2.920  17.285 -0.3317 -0.1317  1.0957
17908TIP3    H275216   0.841   2.837  17.191  0.8381  0.5104 -0.5600
17909TIP3   OH275217   1.798   3.654   0.181 -0.3945  0.0295  0.0444
17909TIP3    H175218   1.766   3.566   0.162  1.7436 -0.3319 -2.1742
17909TIP3    H275219   1.804   3.697   0.096  0.6207  1.5952  0.8763
17910TIP3   OH275220   0.046   0.155  14.112 -0.3035  0.2386  0.1811
17910TIP3    H175221  -0.023   0.178  14.173  0.1777  1.5255  0.2419
17910TIP3    H275222   0.005   0.093  14.051 -1.1724  0.0924  0.9152
17911TIP3   OH275223   1.059   3.840  13.970 -0.4614 -0.4771 -0.2496
17911TIP3    H175224   1.058   3.781  14.045  1.3864 -1.2136 -0.7745
17911TIP3    H275225   1.122   3.800  13.909 -1.1635  0.6441 -1.7408
17912TIP3   OH275226   6.154   0.331   3.031 -0.2980 -0.6023  0.1136
17912TIP3    H175227   6.171   0.238   3.014 -0.8560 -0.5701 -0.6652
17912TIP3    H275228   6.213   0.377   2.971  2.4372 -0.3834  2.8466
17913TIP3   OH275229   2.808   0.601   2.073 -0.4094 -0.7143  0.1286
17913TIP3    H175230   2.753   0.529   2.104 -0.5523 -0.1562  1.1973
17913TIP3    H275231   2.875   0.559   2.020 -1.1781 -1.5228 -0.2197
17914TIP3   OH275232   5.357   2.777  15.189  0.1694  0.2596 -0.3333
17914TIP3    H175233   5.265   2.781  15.161 -0.4475 -3.1014  0.9483
17914TIP3    H275234   5.405   2.746  15.113 -0.4193 -1.8353  0.0991
17915TIP3   OH275235   6.630   4.415   4.127  0.5382 -0.0954 -0.1046
17915TIP3    H175236   6.569   4.424   4.054 -1.0727 -0.8628  1.0965
17915TIP3    H275237   6.710   4.381   4.087 -0.5225 -1.1224 -1.4472
17916TIP3   OH275238   6.276   3.809  15.923 -0.2930  0.2827  0.2053
17916TIP3    H175239   6.351   3.771  15.877 -0.4984 -0.9183  0.8246
17916TIP3    H275240   6.306   3.819  16.013 -0.1215  1.9728 -0.0245
17917TIP3   OH275241   0.375   3.102   5.212 -0.4502 -0.2146  0.2260
17917TIP3    H175242   0.422   3.180   5.183 -0.3611 -0.3932 -0.1122
17917TIP3    H275243   0.292   3.135   5.245 -0.5274 -0.0006 -0.1800
17918TIP3   OH275244   1.773   2.090   4.604  0.4847  0.1407 -0.3171
17918TIP3    H175245   1.808   2.001   4.610 -0.5270 -0.3109 -0.9584
17918TIP3    H275246   1.737   2.095   4.515 -1.0610  0.5799  0.3127
17919TIP3   OH275247   1.751   2.221  15.304 -0.1430 -0.4900  0.1085
17919TIP3    H175248   1.670   2.204  15.351 -1.4603  0.9665 -1.5628
17919TIP3    H275249   1.783   2.304  15.339 -0.5066 -0.0003 -0.6912
17920TIP3   OH275250   1.126   2.121  13.552  0.0684 -0.4110  0.3393
17920TIP3    H175251   1.130   2.204  13.601  0.4413 -0.4620  0.4034
17920TIP3    H275252   1.044   2.125  13.504  0.2845  0.1922  0.0047
17921TIP3   OH275253   0.977   5.773  11.972  0.3046  0.5464 -0.6609
17921TIP3    H175254   0.952   5.862  11.997 -1.6401 -0.8877  2.9046
17921TIP3    H275255   0.894   5.729  11.954  1.1139 -0.9857 -0.7601
17922TIP3   OH275256   2.275   3.336  12.421  0.3065 -0.4359 -0.0156
17922TIP3    H175257   2.270   3.357  12.514  2.1233 -0.1433  0.0370
17922TIP3    H275258   2.297   3.242  12.419 -1.2166 -0.8004 -0.1765
17923TIP3   OH275259   0.176   5.905   1.744 -0.3452  0.1181  0.3716
17923TIP3    H175260   0.261   5.939   1.771  0.5499 -0.9159 -1.0847
17923TIP3    H275261   0.159   5.947   1.660  0.6769 -2.7914 -1.3461
17924TIP3   OH275262   3.035   6.564  11.695  1.0807  0.3986 -0.0988
17924TIP3    H175263   3.096   6.525  11.632  0.1275  0.5336 -1.1291
17924TIP3    H275264   3.058   6.526  11.779  0.5578 -1.9048 -0.9811
17925TIP3   OH275265   0.595   2.585  11.253  0.3102 -0.1879  0.1281
17925TIP3    H175266   0.671   2.583  11.312  1.8716 -1.8088 -1.8695
17925TIP3    H275267   0.529   2.532  11.298  0.5674  0.6858  1.5783
17926TIP3   OH275268   6.302   0.813  13.992 -0.1316  0.2816 -0.2494
17926TIP3    H175269   6.309   0.738  13.933  0.3249  0.8355 -0.9236
17926TIP3    H275270   6.393   0.841  14.007 -0.3125  0.9631 -0.3712
17927TIP3   OH275271   2.915   5.614   5.227 -0.3156  0.4604 -0.1278
17927TIP3    H175272   2.879   5.540   5.275  1.0399 -1.2208 -1.6305
17927TIP3    H275273   2.840   5.649   5.178 -0.8157 -0.3364  0.0542
17928TIP3   OH275274   1.201   5.386   4.053 -0.3669 -0.0550  0.2522
17928TIP3    H175275   1.250   5.445   3.996 -0.7502 -0.0787 -0.1060
17928TIP3    H275276   1.268   5.333   4.096  0.0029  0.8732  0.8422
17929TIP3   OH275277   3.187   3.479  14.547  0.5321 -0.8414  0.0808
17929TIP3    H175278   3.124   3.504  14.480 -1.3138  1.3829  2.5392
17929TIP3    H275279   3.253   3.548  14.546  1.6504 -1.8878 -0.8049
17930TIP3   OH275280   0.952   4.624   3.215  0.4307 -0.8466 -0.2163
17930TIP3    H175281   1.017   4.654   3.152  0.6267 -1.1781 -0.1715
17930TIP3    H275282   0.995   4.630   3.300 -0.2828  0.8887  0.0440
17931TIP3   OH275283   2.909   6.675  15.975  0.3138 -0.3564 -0.5547
17931TIP3    H175284   2.836   6.616  15.955  0.6101 -0.7748 -0.3969
17931TIP3    H275285   2.867   6.753  16.012  0.0657 -1.2545  1.0655
17932TIP3   OH275286   4.080   5.985  11.671  0.2828  0.3425  0.5889
17932TIP3    H175287   4.131   6.004  11.749  0.9052  0.3227  0.1870
17932TIP3    H275288   4.021   5.914  11.698  2.0765 -1.2580  0.4060
17933TIP3   OH275289   5.023   6.228  14.847  0.6121  0.0400 -0.0286
17933TIP3    H175290   5.004   6.255  14.757 -1.3230  0.7649  0.5762
17933TIP3    H275291   5.033   6.310  14.895  0.0556 -0.3455  0.7441
17934TIP3   OH275292   2.426   6.046   2.594  0.2017  0.2491 -0.4468
17934TIP3    H175293   2.462   6.121   2.641  0.9249 -0.1202 -0.4114
17934TIP3    H275294   2.407   6.079   2.506  0.9680  0.3420 -0.5740
17935TIP3   OH275295   3.277   5.015  16.161 -0.4848 -0.3282 -0.3716
17935TIP3    H175296   3.228   5.055  16.089 -0.9019 -1.5725 -0.8002
17935TIP3    H275297   3.306   5.089  16.215 -1.6275  0.5197 -0.8885
17936TIP3   OH275298   4.979   5.681  17.272 -0.1838 -0.1186  0.0727
17936TIP3    H175299   5.021   5.624  17.336  1.6410  0.4099 -0.6199
17936TIP3    H275300   4.973   5.629  17.192  0.5067  0.2970 -0.2538
17937TIP3   OH275301   3.935   4.822   1.611 -0.4062 -0.1448  0.0112
17937TIP3    H175302   3.874   4.843   1.681 -0.1484  1.7539 -0.3073
17937TIP3    H275303   4.022   4.832   1.651 -0.2462  1.6851 -0.7592
17938TIP3   OH275304   4.212   3.918   4.847  0.3686 -0.0589 -0.5109
17938TIP3    H175305   4.304   3.942   4.853  0.8807 -2.2617  0.9972
17938TIP3    H275306   4.180   3.921   4.937  0.0227 -3.1005 -0.4777
17939TIP3   OH275307   1.499   1.862  15.323 -0.2518  0.7183  0.0819
17939TIP3    H175308   1.416   1.896  15.291 -0.3633 -1.3850 -1.9863
17939TIP3    H275309   1.550   1.844  15.244  1.1452 -0.5501  1.2305
17940TIP3   OH275310   2.758   0.238   1.108 -0.1972 -0.3768 -0.4824
17940TIP3    H175311   2.838   0.274   1.147  0.2898 -0.4521 -1.3813
17940TIP3    H275312   2.789   0.168   1.050 -0.8735 -0.1450 -1.1394
17941TIP3   OH275313   0.711   6.605   6.298  0.5332  0.5694  0.0502
17941TIP3    H175314   0.753   6.679   6.253 -0.5435  0.7721 -0.6328
17941TIP3    H275315   0.695   6.638   6.386  1.5822  0.5731  0.2487
17942TIP3   OH275316   1.679   3.195  10.942 -0.0667  0.5991  0.3366
17942TIP3    H175317   1.668   3.240  11.025 -0.7630  0.7827  0.1551
17942TIP3    H275318   1.636   3.252  10.878 -0.3783  0.0007  0.0042
17943TIP3   OH275319   0.397   1.217   2.419 -0.2927 -0.1285  0.6075
17943TIP3    H175320   0.336   1.188   2.486 -1.0819  0.5973  0.2080
17943TIP3    H275321   0.343   1.259   2.352  0.6135  0.3560  0.1572
17944TIP3   OH275322   1.518   6.744   4.188 -0.1214 -0.2960 -0.2210
17944TIP3    H175323   1.560   6.699   4.262 -1.1686 -4.2741 -1.8762
17944TIP3    H275324   1.590   6.768   4.130  0.3220 -2.8372 -0.8094
17945TIP3   OH275325   1.944   5.179  14.354  0.6863 -0.1214 -0.6960
17945TIP3    H175326   1.887   5.134  14.291 -3.0498  3.7209 -0.2216
17945TIP3    H275327   1.977   5.255  14.306  2.1757 -0.0919  0.3458
17946TIP3   OH275328   2.392   2.260  10.711  0.5081 -0.0777 -0.1015
17946TIP3    H175329   2.353   2.189  10.660  1.9023 -0.3158 -0.8547
17946TIP3    H275330   2.417   2.325  10.646 -1.4675  1.4860  0.6479
17947TIP3   OH275331   0.334   6.032  15.336  0.2226 -0.4198  0.1522
17947TIP3    H175332   0.337   6.002  15.427  0.1894 -0.6496  0.0789
17947TIP3    H275333   0.241   6.043  15.317  0.2891  0.8376  0.5345
17948TIP3   OH275334   6.289   3.264  13.052  0.2211  0.2214 -0.1268
17948TIP3    H175335   6.208   3.284  13.099 -0.2299 -1.7922 -0.0052
17948TIP3    H275336   6.305   3.341  12.998 -1.1190  1.1340  0.7569
17949TIP3   OH275337   1.109   4.327   4.231  0.5607 -0.1161 -0.7257
17949TIP3    H175338   1.077   4.417   4.232 -0.3337 -0.4387 -0.1789
17949TIP3    H275339   1.030   4.273   4.227  1.0720 -0.8910 -0.4543
17950TIP3   OH275340   2.665   3.661  15.572 -0.2151  0.2561  0.0684
17950TIP3    H175341   2.588   3.708  15.538 -0.6901 -0.4602  0.1444
17950TIP3    H275342   2.695   3.608  15.498 -0.3279 -0.1343  0.2986
17951TIP3   OH275343   4.335   0.075   3.066  0.5067  0.8040  0.1660
17951TIP3    H175344   4.412   0.126   3.042  0.2124  1.8861  1.4779
17951TIP3    H275345   4.305   0.114   3.148 -1.3998  0.3416 -0.2965
17952TIP3   OH275346   5.702   5.073  16.745  0.0344 -0.3094  0.4090
17952TIP3    H175347   5.694   5.078  16.649 -0.7376  0.3521  0.5041
17952TIP3    H275348   5.691   4.980  16.764 -1.9229 -0.1768  0.0235
17953TIP3   OH275349   2.745   4.525  16.865 -0.0899  0.1861 -0.5471
17953TIP3    H175350   2.827   4.534  16.817  0.5712 -0.5508  0.4178
17953TIP3    H275351   2.760   4.452  16.925 -2.0568 -1.1650 -1.6176
17954TIP3   OH275352   4.153   5.607   3.146  0.6661 -0.0019  0.2399
17954TIP3    H175353   4.097   5.602   3.223 -1.2501  2.0064 -0.9950
17954TIP3    H275354   4.145   5.521   3.105  1.4642 -0.9852  2.0822
17955TIP3   OH275355   4.610   3.666   5.291 -0.2671 -0.5355  0.2099
17955TIP3    H175356   4.587   3.589   5.240  2.1511 -1.3310  0.2847
17955TIP3    H275357   4.527   3.712   5.303 -1.2941 -1.7058 -2.1357
17956TIP3   OH275358   0.920   2.543  12.374 -0.3662  0.4960 -0.1238
17956TIP3    H175359   0.956   2.622  12.414 -0.5848  1.6446 -2.1114
17956TIP3    H275360   0.982   2.521  12.305 -0.4468 -0.9225  0.2504
17957TIP3   OH275361   1.200   2.525   3.170 -0.0269 -0.0848 -0.1834
17957TIP3    H175362   1.234   2.556   3.255  1.2941 -0.3101 -0.6235
17957TIP3    H275363   1.277   2.518   3.114 -1.0542  1.3961 -1.8407
17958TIP3   OH275364   5.872   5.506  13.616  0.0809  0.0721 -0.0491
17958TIP3    H175365   5.900   5.595  13.638 -1.3884  0.0872  1.7991
17958TIP3    H275366   5.937   5.476  13.552  1.7217  1.7589  0.7779
17959TIP3   OH275367   5.394   5.672  12.366  0.0948  0.5629 -0.1421
17959TIP3    H175368   5.441   5.751  12.339  1.7747  0.0487  1.1866
17959TIP3    H275369   5.462   5.605  12.375 -1.0814 -0.5938  0.3903
17960TIP3   OH275370   1.148   3.495   0.617 -0.8655  0.5241  0.7785
17960TIP3    H175371   1.230   3.446   0.610  0.4378  2.7873 -0.5870
17960TIP3    H275372   1.091   3.455   0.552  0.0938  0.5803 -0.1253
17961TIP3   OH275373   6.341   0.509   5.919 -0.6503  0.1420  0.0517
17961TIP3    H175374   6.333   0.574   5.849 -0.0501 -0.6419 -0.7755
17961TIP3    H275375   6.310   0.428   5.878  2.0266 -0.8470 -0.1128
17962TIP3   OH275376   3.326   4.616  11.453  0.5627  0.6398  0.4045
17962TIP3    H175377   3.237   4.641  11.480  0.6192  1.9619 -0.5714
17962TIP3    H275378   3.353   4.552  11.519 -1.1153  0.1962  0.7059
17963TIP3   OH275379   5.341   2.101  17.167 -0.2807  0.4762 -0.1317
17963TIP3    H175380   5.352   2.119  17.261 -0.2751 -0.1070 -0.0198
17963TIP3    H275381   5.251   2.128  17.148  0.3110  2.3753 -0.3859
17964TIP3   OH275382   6.100   4.770   5.243 -0.6642 -0.2382 -0.1329
17964TIP3    H175383   6.015   4.752   5.202 -0.5713  0.4988 -0.6486
17964TIP3    H275384   6.164   4.744   5.178 -0.5290  2.0346 -0.9281
17965TIP3   OH275385   3.651   2.771   2.250 -0.2805 -0.3764 -0.3334
17965TIP3    H175386   3.620   2.848   2.203  0.3716 -0.8502 -1.5763
17965TIP3    H275387   3.610   2.697   2.206  0.5369 -0.8468 -0.3299
17966TIP3   OH275388   1.007   0.644   3.799 -0.6370  0.3354  0.0206
17966TIP3    H175389   1.091   0.598   3.798 -0.5294  0.4484  2.1899
17966TIP3    H275390   0.945   0.580   3.765  0.1346 -0.1524 -0.4999
17967TIP3   OH275391   1.218   2.915  12.135 -0.3491  0.4279  0.0818
17967TIP3    H175392   1.130   2.882  12.118 -0.2293  0.2592 -0.2154
17967TIP3    H275393   1.271   2.878  12.065 -0.6578  3.1158 -1.6351
17968TIP3   OH275394   3.879   2.256  11.544 -0.1014 -0.2207 -0.2231
17968TIP3    H175395   3.913   2.173  11.510  2.6247 -1.0254  3.9945
17968TIP3    H275396   3.932   2.323  11.502  3.2734 -1.1970  2.2041
17969TIP3   OH275397   6.195   6.614   6.102 -0.0890  0.0624 -0.4379
17969TIP3    H175398   6.137   6.651   6.035 -0.2228 -0.0298 -0.3723
17969TIP3    H275399   6.166   6.653   6.184 -0.3330 -0.3029 -0.3472
17970TIP3   OH275400   2.284   4.927  12.476  0.5899  0.6063 -0.7183
17970TIP3    H175401   2.333   4.940  12.557  1.4683 -0.9209 -0.9906
17970TIP3    H275402   2.193   4.915  12.504  1.1313 -1.5711  0.1863
17971TIP3   OH275403   6.671   5.209   1.536 -0.0786  0.1184  0.1538
17971TIP3    H175404   6.742   5.155   1.572  0.2357  0.8624  0.6720
17971TIP3    H275405   6.713   5.293   1.518  0.1595 -0.6748 -3.4401
17972TIP3   OH275406   6.152   6.001   5.603  0.2585 -0.2309 -0.1648
17972TIP3    H175407   6.075   6.038   5.645  0.4494  0.2134 -0.1995
17972TIP3    H275408   6.206   5.970   5.675  0.2982 -0.0436 -0.1150
17973TIP3   OH275409   1.006   1.472   3.632 -0.3977 -0.2888  0.4924
17973TIP3    H175410   0.951   1.468   3.554 -0.3452 -2.0741  0.5354
17973TIP3    H275411   1.062   1.395   3.626  2.6591  1.8808  0.0632
17974TIP3   OH275412   6.278   0.497   1.470 -0.4003 -0.7634  0.2585
17974TIP3    H175413   6.290   0.437   1.397  3.8148  0.5988 -0.2576
17974TIP3    H275414   6.224   0.568   1.434 -2.2744 -2.3616 -0.1572
17975TIP3   OH275415   0.680   4.632  16.717 -0.1838 -0.3910 -0.2511
17975TIP3    H175416   0.696   4.677  16.634 -3.0489  0.0897 -0.5882
17975TIP3    H275417   0.709   4.542  16.702 -2.5774 -0.8480 -2.4986
17976TIP3   OH275418   2.487   1.988   3.504  0.1942  0.0609 -0.0486
17976TIP3    H175419   2.433   2.040   3.444 -0.2492 -0.0424  0.2602
17976TIP3    H275420   2.428   1.919   3.536  0.4658  0.0379  0.4079
17977TIP3   OH275421   5.663   4.331   5.297 -0.1008 -0.3961 -0.0943
17977TIP3    H175422   5.622   4.379   5.225 -1.3060 -0.8805  0.2430
17977TIP3    H275423   5.742   4.293   5.259 -0.3466 -0.0551 -0.9660
17978TIP3   OH275424   4.620   6.220  17.048 -0.2501 -0.0266 -0.5983
17978TIP3    H175425   4.581   6.224  16.961 -1.8456  1.1617  0.1460
17978TIP3    H275426   4.576   6.146  17.091 -1.5557  1.1311  0.1361
17979TIP3   OH275427   2.380   6.230  11.020  0.0110 -0.3646 -0.7837
17979TIP3    H175428   2.423   6.207  11.102 -0.9183 -0.1039 -0.2172
17979TIP3    H275429   2.446   6.280  10.971  1.3540 -2.4614 -1.1803
17980TIP3   OH275430   0.885   4.558  13.758 -0.1490  0.4188 -0.3274
17980TIP3    H175431   0.878   4.463  13.762 -0.8697  0.3685 -2.1431
17980TIP3    H275432   0.930   4.583  13.839  1.7644 -1.6270 -0.7258
17981TIP3   OH275433   3.604   5.711  12.069 -0.0338 -0.4197 -0.4246
17981TIP3    H175434   3.541   5.640  12.079  0.9419 -1.2759 -0.3323
17981TIP3    H275435   3.607   5.726  11.974  0.0728 -0.7769 -0.4778
17982TIP3   OH275436   0.287   2.486  10.882  0.4560  0.3131  0.3377
17982TIP3    H175437   0.239   2.466  10.802  1.1320  0.2012 -0.0439
17982TIP3    H275438   0.258   2.574  10.907  1.4429  1.0164 -0.9223
17983TIP3   OH275439   5.531   3.933   5.390  0.3971  0.3972 -0.5320
17983TIP3    H175440   5.463   3.886   5.342 -0.0508  1.0442 -0.5264
17983TIP3    H275441   5.503   4.025   5.389  1.6277  0.7858 -1.1717
17984TIP3   OH275442   3.011   6.721   0.027  0.5733 -0.9379  0.1352
17984TIP3    H175443   2.974   6.733   0.115  1.9902  0.0929  0.5968
17984TIP3    H275444   2.935   6.722  -0.031 -0.3041 -0.8053  1.2717
17985TIP3   OH275445   0.565   1.517   5.228  0.5357  0.2453  0.5946
17985TIP3    H175446   0.632   1.530   5.295 -0.0759  0.8345  1.0978
17985TIP3    H275447   0.564   1.599   5.178  0.9271 -0.1573 -0.0856
17986TIP3   OH275448   5.659   6.300  17.098 -0.5254  0.1005  0.0207
17986TIP3    H175449   5.684   6.384  17.061 -0.5857  0.8216  1.5526
17986TIP3    H275450   5.566   6.310  17.118 -0.5662 -0.3822  0.0792
17987TIP3   OH275451   3.892   1.818  16.221 -0.6565  0.7404 -0.5764
17987TIP3    H175452   3.957   1.811  16.291  0.0536 -2.3890 -1.4628
17987TIP3    H275453   3.940   1.859  16.149  0.6287 -2.2025 -1.4676
17988TIP3   OH275454   2.823   5.251  13.074 -0.2092  0.6158 -0.0078
17988TIP3    H175455   2.751   5.311  13.095  1.2221  1.9285  1.3265
17988TIP3    H275456   2.888   5.307  13.031 -0.7567 -0.9361 -2.9954
17989TIP3   OH275457   4.544   4.065   1.541  0.0496  0.0078  0.0312
17989TIP3    H175458   4.592   4.021   1.611 -0.0283  0.2347  0.2293
17989TIP3    H275459   4.606   4.070   1.469  0.4213  0.5596  0.3843
17990TIP3   OH275460   1.648   5.054  11.794  0.3045  0.2062 -0.1205
17990TIP3    H175461   1.680   4.963  11.793  1.0251  0.4626 -0.7686
17990TIP3    H275462   1.706   5.099  11.856 -1.4100 -0.2486  1.8774
17991TIP3   OH275463   4.929   3.222  13.298 -0.1699  0.5165 -0.4263
17991TIP3    H175464   5.016   3.190  13.322  0.2835  0.4328 -2.1103
17991TIP3    H275465   4.919   3.303  13.348  1.3337  1.0993 -1.0306
17992TIP3   OH275466   5.272   1.890  16.993  0.3981  0.3468  0.0076
17992TIP3    H175467   5.313   1.946  17.058 -0.0397  1.3934 -0.6046
17992TIP3    H275468   5.186   1.929  16.978 -0.4302 -1.2131  0.5009
17993TIP3   OH275469   5.408   0.387   1.990 -1.1471 -0.0122  0.2257
17993TIP3    H175470   5.432   0.305   1.947 -0.6558 -0.8485  2.0368
17993TIP3    H275471   5.329   0.416   1.945 -0.6698 -0.8743 -1.1889
17994TIP3   OH275472   6.460   1.633   3.798 -0.4906  0.2281  0.4611
17994TIP3    H175473   6.544   1.598   3.828 -0.3573 -0.6304 -0.8889
17994TIP3    H275474   6.394   1.582   3.844 -0.2788 -0.5814 -0.1179
17995TIP3   OH275475   6.794   3.419   1.946 -0.2905 -0.4572  0.1473
17995TIP3    H175476   6.739   3.488   1.907  1.0505  0.1403 -0.7426
17995TIP3    H275477   6.835   3.377   1.870  0.9990 -0.4408  0.8294
17996TIP3   OH275478   4.315   3.567   1.173  0.2083 -0.0056  0.1384
17996TIP3    H175479   4.347   3.568   1.083  1.6463 -0.4842  0.6326
17996TIP3    H275480   4.220   3.560   1.164  0.0362  3.0463 -1.3864
17997TIP3   OH275481   1.764   3.371  15.216  0.2775 -0.5906 -0.2024
17997TIP3    H175482   1.768   3.446  15.275  0.9966 -0.0783 -0.9007
17997TIP3    H275483   1.852   3.363  15.180  0.9232 -3.3423  1.7815
17998TIP3   OH275484   1.674   2.157   4.841  0.3390  0.0300 -0.3481
17998TIP3    H175485   1.699   2.140   4.750 -1.0047 -1.3144 -0.4995
17998TIP3    H275486   1.750   2.200   4.880  2.1891 -2.3546 -1.2094
17999TIP3   OH275487   0.570   1.699   5.719  0.2305  0.0062  0.0624
17999TIP3    H175488   0.495   1.639   5.712  0.6564 -0.4703 -0.4381
17999TIP3    H275489   0.647   1.642   5.717  0.5824  0.4219  1.5771
18000TIP3   OH275490   3.480   5.883  11.540  0.2633  0.0173 -0.0145
18000TIP3    H175491   3.501   5.857  11.450 -0.6059 -0.2779 -0.1327
18000TIP3    H275492   3.543   5.952  11.560  1.1683 -0.6703 -0.4687
18001TIP3   OH275493   5.999   2.614   0.802 -0.0889 -0.5638 -0.3138
18001TIP3    H175494   5.922   2.670   0.814  0.3404 -0.2034  0.8524
18001TIP3    H275495   6.023   2.625   0.710 -1.1513 -0.3214 -0.5685
18002TIP3   OH275496   6.048   5.598   4.702 -0.2750  0.3527 -0.3110
18002TIP3    H175497   5.981   5.634   4.759  1.8669 -0.1181  2.6159
18002TIP3    H275498   6.059   5.664   4.633 -0.7441  2.4244  1.5490
18003TIP3   OH275499   0.319   0.901   4.720 -0.2191  0.0265  0.0760
18003TIP3    H175500   0.367   0.966   4.771 -0.1847  1.5042 -1.7839
18003TIP3    H275501   0.232   0.898   4.761 -0.6694  2.2736 -0.6608
18004TIP3   OH275502   5.926   4.890  11.263 -0.1255  0.3026  0.3593
18004TIP3    H175503   5.888   4.932  11.185  0.9050  1.2282  0.3433
18004TIP3    H275504   6.016   4.869  11.238 -0.0077 -0.0501  1.0635
18005TIP3   OH275505   4.126   4.304  11.807  0.1249 -0.4283  0.2369
18005TIP3    H175506   4.114   4.222  11.855  0.5390 -1.7136 -1.7522
18005TIP3    H275507   4.037   4.340  11.799 -0.0710 -0.7170  1.0791
18006TIP3   OH275508   6.031   4.280   3.711 -0.3405  0.2338 -0.1615
18006TIP3    H175509   6.070   4.235   3.636  0.5823 -1.7395  1.4366
18006TIP3    H275510   6.091   4.353   3.728  0.9199 -0.8608  0.2430
18007TIP3   OH275511   1.674   1.610  12.713  0.0930 -0.4653 -0.6434
18007TIP3    H175512   1.695   1.685  12.768  0.8168 -1.4400  0.4322
18007TIP3    H275513   1.582   1.592  12.731  0.2029 -0.4873 -0.0902
18008TIP3   OH275514   1.087   0.673  12.539  0.5322  0.4436  0.4205
18008TIP3    H175515   1.091   0.591  12.490 -0.3192  0.7672 -0.2338
18008TIP3    H275516   1.139   0.734  12.487 -0.4508  0.8127 -0.1467
18009TIP3   OH275517   4.099   3.682  15.294 -1.1942 -0.6546  0.6126
18009TIP3    H175518   4.119   3.757  15.237 -0.2279 -0.3921  1.2948
18009TIP3    H275519   4.145   3.609  15.254  0.9589 -0.1157  2.0054
18010TIP3   OH275520   5.985   0.868   4.934  0.3445 -0.4777 -0.3242
18010TIP3    H175521   6.048   0.797   4.944  1.6008  0.3836 -1.7758
18010TIP3    H275522   5.935   0.845   4.856  0.2991 -0.1178 -0.4029
18011TIP3   OH275523   0.567   2.974   4.718  1.1245 -0.3551  0.2275
18011TIP3    H175524   0.481   3.015   4.710  1.6581  1.4236  3.1418
18011TIP3    H275525   0.598   2.964   4.628 -1.2173  0.9281 -0.7364
18012TIP3   OH275526   0.695   1.686  16.849  0.4367 -0.2040 -0.0505
18012TIP3    H175527   0.740   1.717  16.770  0.8299 -1.8920 -0.5074
18012TIP3    H275528   0.712   1.592  16.851 -1.0383 -0.4683  1.1117
18013TIP3   OH275529   2.087   5.935   3.373 -0.3384 -0.0469  0.3438
18013TIP3    H175530   2.121   5.853   3.337  1.4867  0.2472  1.3253
18013TIP3    H275531   2.073   5.917   3.465 -0.2795  0.6318  0.4915
18014TIP3   OH275532   0.569   3.761   0.339  0.1473  0.4024  0.2923
18014TIP3    H175533   0.624   3.710   0.278  1.2504  0.0805  1.5226
18014TIP3    H275534   0.527   3.695   0.394 -0.0815  0.7356  0.5171
18015TIP3   OH275535   1.288   5.973   1.214 -0.5978  0.3421  0.4013
18015TIP3    H175536   1.279   5.891   1.166 -0.6346  0.0659  0.8856
18015TIP3    H275537   1.209   6.022   1.192 -0.1791  0.5931 -0.5554
18016TIP3   OH275538   0.493   3.875  17.111  0.2497 -0.2182  0.2493
18016TIP3    H175539   0.524   3.888  17.022  2.2583  0.8615  1.0767
18016TIP3    H275540   0.527   3.790  17.136  0.2777 -0.2149  0.2230
18017TIP3   OH275541   4.958   5.908  15.768 -0.4156  0.6540 -0.3962
18017TIP3    H175542   5.024   5.860  15.718 -0.5425 -0.2449  0.2914
18017TIP3    H275543   5.009   5.962  15.829 -0.3197 -0.1550  0.2398
18018TIP3   OH275544   2.889   0.441   2.441 -0.3004  0.0584  0.5205
18018TIP3    H175545   2.831   0.373   2.407  2.8542 -1.2326 -2.6912
18018TIP3    H275546   2.873   0.516   2.384 -0.4606  0.4776  1.1126
18019TIP3   OH275547   5.725   1.505  15.282 -0.2752 -0.6674 -0.2892
18019TIP3    H175548   5.639   1.464  15.277 -0.1360 -1.2179  1.5138
18019TIP3    H275549   5.771   1.455  15.350  1.1245  0.2393 -0.5547
18020TIP3   OH275550   3.809   0.278  12.567 -0.0765  0.3935  0.4193
18020TIP3    H175551   3.843   0.359  12.529  1.1028 -0.9525 -1.4470
18020TIP3    H275552   3.781   0.303  12.656  1.1629  2.6031  0.2141
18021TIP3   OH275553   1.411   0.835   5.768  0.0573 -0.0211 -0.9295
18021TIP3    H175554   1.391   0.864   5.679  0.9072 -0.1190 -1.1589
18021TIP3    H275555   1.420   0.916   5.818  0.3918  0.0634 -1.1208
18022TIP3   OH275556   0.580   0.776   3.280  0.0431 -0.4466 -0.5602
18022TIP3    H175557   0.626   0.739   3.205 -0.4962 -3.3204  0.4669
18022TIP3    H275558   0.493   0.739   3.276 -0.1920 -0.1182  1.1361
18023TIP3   OH275559   1.805   0.462  17.279  0.0551  0.1168 -0.2143
18023TIP3    H175560   1.824   0.530  17.215 -1.0016  2.6484  2.0735
18023TIP3    H275561   1.888   0.450  17.326 -0.5758  2.1604  1.4815
18024TIP3   OH275562   3.441   3.016  13.714  1.1401  0.2412  0.0361
18024TIP3    H175563   3.534   2.996  13.708  1.4285  1.1182  1.2757
18024TIP3    H275564   3.397   2.935  13.687  2.2435  0.1909 -1.6479
18025TIP3   OH275565   4.939   1.133  13.274  0.7401 -0.3318 -0.6515
18025TIP3    H175566   4.860   1.130  13.327  0.7738 -0.7359 -0.6209
18025TIP3    H275567   4.963   1.226  13.271  1.2713 -0.4094  0.8330
18026TIP3   OH275568   1.819   2.513   5.744 -0.7258 -0.5532 -0.0594
18026TIP3    H175569   1.830   2.608   5.739 -1.0001 -0.5604 -0.8562
18026TIP3    H275570   1.862   2.488   5.826 -0.9653  0.3040  0.3318
18027TIP3   OH275571   6.713   3.746  11.877 -0.4714  0.2422  0.3318
18027TIP3    H175572   6.706   3.756  11.972 -2.6860  1.3847  0.0826
18027TIP3    H275573   6.806   3.762  11.858 -0.2882  1.4573  2.1401
18028TIP3   OH275574   3.066   2.699  14.198  0.0513  0.4986 -0.1033
18028TIP3    H175575   3.019   2.776  14.231 -1.0266  0.3984 -1.3523
18028TIP3    H275576   3.156   2.730  14.185  0.3384  0.7241  2.2009
18029TIP3   OH275577   5.046   4.415   0.275 -0.2515 -0.1595  0.5499
18029TIP3    H175578   5.040   4.329   0.316 -0.0991 -0.6216 -0.3767
18029TIP3    H275579   5.097   4.467   0.336 -2.6238  0.0672  2.3761
18030TIP3   OH275580   1.256   5.919   1.897 -0.1197  0.1989  0.3200
18030TIP3    H175581   1.294   5.853   1.956  0.1725  0.8098  0.8192
18030TIP3    H275582   1.174   5.880   1.868  1.4379 -1.6705 -1.7296
18031TIP3   OH275583   1.493   3.933  13.714  0.3375  0.2329  0.1492
18031TIP3    H175584   1.552   3.978  13.773  0.2522 -1.2121  1.3578
18031TIP3    H275585   1.456   4.003  13.659  0.6006  1.5632  1.6232
18032TIP3   OH275586   3.065   1.226  11.689  0.4312  0.2754  0.3414
18032TIP3    H175587   3.065   1.290  11.761  2.2875 -0.3907  0.9500
18032TIP3    H275588   3.074   1.279  11.610 -1.2310  0.9840  0.6070
18033TIP3   OH275589   3.474   0.635  15.069 -0.2920  0.2275 -0.2774
18033TIP3    H175590   3.401   0.674  15.020 -0.0010  1.8468  0.5642
18033TIP3    H275591   3.455   0.541  15.067 -1.8417  0.5249 -0.9895
18034TIP3   OH275592   0.975   5.766  14.861  0.9354  0.5121 -0.1244
18034TIP3    H175593   1.062   5.766  14.900  0.3722  0.9502  1.1689
18034TIP3    H275594   0.973   5.844  14.806  1.0687  0.9586  0.5072
18035TIP3   OH275595   5.072   0.423  13.666  0.7168 -0.1749  0.2967
18035TIP3    H175596   5.105   0.485  13.601 -1.2463  1.0376  0.4192
18035TIP3    H275597   5.073   0.471  13.749 -1.1423 -0.1427  0.3313
18036TIP3   OH275598   2.426   2.879   2.475 -0.4625 -0.3785  0.0173
18036TIP3    H175599   2.455   2.814   2.540 -0.2756 -0.2336  0.0830
18036TIP3    H275600   2.498   2.943   2.473 -2.0216  1.5591  2.3241
18037TIP3   OH275601   4.132   4.314   5.901 -0.4599  0.1215  0.8825
18037TIP3    H175602   4.049   4.315   5.948 -0.6672 -0.0400  0.5271
18037TIP3    H275603   4.196   4.287   5.966 -0.5296  1.2013  1.4020
18038TIP3   OH275604   3.250   5.635   2.890  0.3607  0.0068  0.0578
18038TIP3    H175605   3.319   5.573   2.915 -0.7805 -1.2850  0.0290
18038TIP3    H275606   3.194   5.641   2.967  1.5874  2.6282  0.8205
18039TIP3   OH275607   4.017   0.075   5.565 -0.0798 -0.5880 -0.4253
18039TIP3    H175608   4.057   0.126   5.495  1.2512  0.6425  1.1738
18039TIP3    H275609   3.967   0.139   5.615 -1.8847 -1.6442 -0.8553
18040TIP3   OH275610   0.696   3.156   4.878  0.1006  0.0392 -0.0029
18040TIP3    H175611   0.633   3.086   4.862 -0.9257  0.9195  0.1877
18040TIP3    H275612   0.754   3.154   4.801 -0.1118 -0.7953 -0.1517
18041TIP3   OH275613   2.914   5.857   0.779  0.3579 -0.2876 -0.3418
18041TIP3    H175614   2.937   5.949   0.764 -0.8270  0.1389  0.4088
18041TIP3    H275615   2.953   5.837   0.864 -0.6355 -0.0322  0.1858
18042TIP3   OH275616   4.679   2.788   2.502  0.4860  0.5475 -0.2323
18042TIP3    H175617   4.723   2.735   2.569 -0.6530 -1.6025 -1.1354
18042TIP3    H275618   4.600   2.821   2.545  0.1644 -0.1687 -0.2713
18043TIP3   OH275619   5.954   0.647  15.290 -0.2427 -0.0212 -0.3085
18043TIP3    H175620   6.046   0.625  15.304 -0.3053 -0.4396 -0.5556
18043TIP3    H275621   5.916   0.645  15.378  0.0352  0.3843 -0.1799
18044TIP3   OH275622   1.872   6.031   1.990 -0.4416 -0.3554  0.0605
18044TIP3    H175623   1.780   6.040   1.967 -0.9749 -1.2698  1.7203
18044TIP3    H275624   1.899   6.118   2.017  0.1335  0.6964 -3.5908
18045TIP3   OH275625   4.582   4.582   2.099  0.3361 -0.1884  0.5065
18045TIP3    H175626   4.623   4.594   2.013 -0.6902  0.6698  0.1293
18045TIP3    H275627   4.563   4.489   2.104 -0.4775 -0.0972 -0.6170
18046TIP3   OH275628   0.278   1.075  12.805  0.0445  0.4164 -0.3325
18046TIP3    H175629   0.283   1.150  12.864 -0.6656  1.2133 -1.2651
18046TIP3    H275630   0.189   1.078  12.771 -0.7770 -2.2568  1.4307
18047TIP3   OH275631   2.654   1.678   4.745  0.0556  0.6348  0.0433
18047TIP3    H175632   2.748   1.685   4.762  0.4300  0.4452 -1.8686
18047TIP3    H275633   2.629   1.595   4.786  1.0275 -0.0591 -0.7416
18048TIP3   OH275634   1.796   2.150  11.420 -0.2062  0.1565  0.2137
18048TIP3    H175635   1.780   2.102  11.501  0.3838 -1.7752 -0.7711
18048TIP3    H275636   1.848   2.226  11.447  2.1744 -1.7931  1.3684
18049TIP3   OH275637   1.284   6.202   4.115  0.5363  0.1461 -0.1961
18049TIP3    H175638   1.359   6.211   4.056  0.3162  0.3902 -0.4383
18049TIP3    H275639   1.252   6.291   4.128 -0.9381 -0.1516 -1.6835
18050TIP3   OH275640   0.991   6.633   6.008  0.6761 -0.0994  0.0875
18050TIP3    H175641   1.011   6.716   5.966  1.8029 -0.0176  0.7744
18050TIP3    H275642   0.913   6.651   6.061  2.4645  1.2525  2.3564
18051TIP3   OH275643   4.351   6.708   4.006  0.0597  0.5941 -0.1561
18051TIP3    H175644   4.325   6.712   4.098 -0.9642 -2.4735 -0.2441
18051TIP3    H275645   4.307   6.782   3.965 -1.7270  0.3863  1.3217
18052TIP3   OH275646   3.140   2.463   2.627  0.1945 -0.0330  0.3701
18052TIP3    H175647   3.120   2.551   2.596  1.4776  0.1807  0.1291
18052TIP3    H275648   3.163   2.414   2.548  2.4771  0.2393  0.8486
18053TIP3   OH275649   5.256   1.787   2.542  0.1191 -0.3610  0.5501
18053TIP3    H175650   5.327   1.722   2.535 -0.7204 -1.0857 -1.8499
18053TIP3    H275651   5.178   1.740   2.514 -0.8457  1.1818  0.5884
18054TIP3   OH275652   2.987   5.999  14.786 -0.4851  0.2372  0.2968
18054TIP3    H175653   3.012   5.920  14.835 -1.3788  0.0710  0.4909
18054TIP3    H275654   3.001   6.070  14.848 -2.4801 -0.0612  1.1164
18055TIP3   OH275655   5.632   1.205  12.421  0.2681  0.7052 -0.6764
18055TIP3    H175656   5.652   1.114  12.400  1.9819  0.6492  1.0600
18055TIP3    H275657   5.683   1.256  12.358  1.8899  0.4812  0.4228
18056TIP3   OH275658   6.198   6.624  12.755 -0.3566 -0.1936  0.2784
18056TIP3    H175659   6.188   6.540  12.799  0.6068 -1.5604 -2.0150
18056TIP3    H275660   6.109   6.649  12.730 -0.5715 -0.8880  0.3531
18057TIP3   OH275661   1.366   5.082  15.191  0.3301  0.4765 -0.0688
18057TIP3    H175662   1.290   5.068  15.247 -0.3402  1.3714 -0.7471
18057TIP3    H275663   1.440   5.050  15.243 -0.4574 -0.0364  0.7463
18058TIP3   OH275664   3.121   0.814  15.409 -0.0886  0.1073 -0.1711
18058TIP3    H175665   3.095   0.874  15.480 -2.6628 -0.9069 -0.1987
18058TIP3    H275666   3.126   0.729  15.452 -0.1936 -0.2673 -0.9099
18059TIP3   OH275667   5.489   1.562   0.608  0.4153 -0.2434  0.3896
18059TIP3    H175668   5.445   1.639   0.573  0.8603 -0.3813 -0.4808
18059TIP3    H275669   5.425   1.522   0.666 -0.5480 -0.3759 -0.7718
18060TIP3   OH275670   3.095   1.413  12.201 -0.0515 -0.6459  0.3555
18060TIP3    H175671   3.172   1.467  12.219 -0.2264 -0.3490  0.2244
18060TIP3    H275672   3.062   1.389  12.288 -0.1044 -0.3505  0.4206
18061TIP3   OH275673   2.658   5.683  13.259  0.1369  1.0918 -0.3059
18061TIP3    H175674   2.574   5.705  13.299 -0.6487  1.9302 -2.3500
18061TIP3    H275675   2.643   5.690  13.165  2.4536  1.1140 -0.7162
18062TIP3   OH275676   5.275   1.856  10.684 -0.5089  0.3808  0.5619
18062TIP3    H175677   5.205   1.920  10.695  0.7645  1.8652  0.2456
18062TIP3    H275678   5.284   1.845  10.590  0.7736  1.4517  0.5441
18063TIP3   OH275679   5.766   0.080  13.191 -0.5616  0.3791 -0.2902
18063TIP3    H175680   5.825   0.155  13.203  0.4118 -0.2392 -1.1589
18063TIP3    H275681   5.807   0.009  13.239 -0.9769  0.1323 -0.2984
18064TIP3   OH275682   1.616   2.109  12.256  0.2490 -0.2398  0.3647
18064TIP3    H175683   1.572   2.121  12.340  1.9935  0.8851  1.1629
18064TIP3    H275684   1.648   2.019  12.259  1.4740  0.2036  1.5268
18065TIP3   OH275685   6.127   5.651  14.136 -0.0952  0.1908 -0.0744
18065TIP3    H175686   6.113   5.671  14.043  0.6720 -0.3200 -0.2981
18065TIP3    H275687   6.096   5.561  14.146  0.2726  0.0825  0.0674
18066TIP3   OH275688   5.637   4.974   0.774  0.2235  0.5175  0.4475
18066TIP3    H175689   5.642   4.950   0.681  1.8886  3.4005 -0.2907
18066TIP3    H275690   5.573   4.914   0.811 -0.3592 -0.8101 -2.5326
18067TIP3   OH275691   4.110   6.775  12.403 -0.4002 -0.2441 -0.4075
18067TIP3    H175692   4.193   6.802  12.442 -1.2713  1.4844  0.3185
18067TIP3    H275693   4.103   6.682  12.423  1.5774 -0.5232 -0.8902
18068TIP3   OH275694   5.035   1.485  12.187  0.2950 -1.0986  0.3730
18068TIP3    H175695   5.020   1.391  12.197 -1.3547 -0.9058 -0.1128
18068TIP3    H275696   4.947   1.522  12.177  0.8949  0.5768  1.2248
18069TIP3   OH275697   2.572   2.892   4.660  0.0006 -0.5247  0.5384
18069TIP3    H175698   2.646   2.950   4.642 -1.4316  0.9174 -0.8510
18069TIP3    H275699   2.575   2.828   4.590  0.3221 -0.8710  0.8664
18070TIP3   OH275700   1.322   1.948   3.584 -0.3512  0.0144 -0.2599
18070TIP3    H175701   1.408   1.945   3.626  0.1083 -0.5123 -1.2499
18070TIP3    H275702   1.296   2.040   3.591 -0.0885  0.0224  0.7900
18071TIP3   OH275703   0.463   4.172  11.627  0.4346 -0.0006 -0.2164
18071TIP3    H175704   0.456   4.080  11.653  2.4321  0.0010  0.3659
18071TIP3    H275705   0.500   4.216  11.704  2.8613  0.6662 -1.7092
18072TIP3   OH275706   2.783   2.423   0.244 -0.0493 -0.4538  0.0131
18072TIP3    H175707   2.839   2.487   0.201 -0.4143 -0.9775 -1.2696
18072TIP3    H275708   2.694   2.454   0.228 -0.1616 -0.1070  1.2745
18073TIP3   OH275709   0.969   0.137  13.695  0.0809 -0.4114  0.5713
18073TIP3    H175710   0.924   0.220  13.681 -0.5416 -0.6520  1.1093
18073TIP3    H275711   1.002   0.142  13.785  0.7847 -0.4045  0.3190
18074TIP3   OH275712   1.087   4.062  12.615  0.2119  0.0766 -0.0837
18074TIP3    H175713   1.167   4.025  12.576 -0.7811  0.3581 -2.4265
18074TIP3    H275714   1.019   3.998  12.596 -0.8425  1.5113 -1.2503
18075TIP3   OH275715   1.618   6.202  14.781 -0.3694 -0.3124 -0.5013
18075TIP3    H175716   1.609   6.111  14.750 -0.2237 -0.8824  1.0991
18075TIP3    H275717   1.693   6.236  14.731  0.9851 -1.7806  0.4636
18076TIP3   OH275718   4.374   0.394   3.868  0.3271  0.1019  0.0812
18076TIP3    H175719   4.424   0.454   3.813 -0.8225  0.8705 -0.1579
18076TIP3    H275720   4.284   0.427   3.863  0.0081 -0.5080  1.4812
18077TIP3   OH275721   2.066   3.730   1.910  0.0317  0.0407  0.3367
18077TIP3    H175722   2.146   3.680   1.889 -0.2483 -0.1929 -0.2002
18077TIP3    H275723   2.079   3.814   1.866 -0.1964 -0.1494 -0.0996
18078TIP3   OH275724   1.005   3.392  13.975  0.2431  0.2803  0.3413
18078TIP3    H175725   0.945   3.417  13.905 -0.3755  2.8432  1.7455
18078TIP3    H275726   0.953   3.335  14.032 -0.0935  0.4844  0.2376
18079TIP3   OH275727   2.369   1.485  15.571  0.4066 -0.0014  0.1319
18079TIP3    H175728   2.307   1.429  15.522  0.6975 -0.4345  0.2566
18079TIP3    H275729   2.367   1.568  15.524 -0.0632 -0.1001 -0.0344
18080TIP3   OH275730   3.908   1.843  14.986 -0.0369  0.7717 -0.2655
18080TIP3    H175731   3.878   1.931  15.008 -1.8552 -0.1449  1.1125
18080TIP3    H275732   3.893   1.792  15.066  1.8432 -0.5843 -0.7429
18081TIP3   OH275733   4.905   2.233   2.210 -0.6792  0.7313 -0.2554
18081TIP3    H175734   4.813   2.229   2.235 -0.2354 -0.3451  1.2102
18081TIP3    H275735   4.912   2.176   2.133 -1.0851  0.2471  0.0706
18082TIP3   OH275736   3.488   2.991   1.483  0.1614 -0.7012 -0.6123
18082TIP3    H175737   3.440   2.946   1.553  1.2525  0.4169  0.8763
18082TIP3    H275738   3.579   2.967   1.498  0.6199  1.1299 -0.4560
18083TIP3   OH275739   0.121   1.452   2.606  0.2370  0.1355 -0.0822
18083TIP3    H175740   0.127   1.482   2.516 -0.5786  0.6817  0.0348
18083TIP3    H275741   0.146   1.360   2.603 -0.2264  0.0304 -0.9368
18084TIP3   OH275742   5.032   3.528  11.546 -0.0736  0.0314  0.3146
18084TIP3    H175743   5.074   3.486  11.621  1.8036  2.1521  0.5018
18084TIP3    H275744   5.022   3.619  11.571 -1.8080  0.2370 -1.0307
18085TIP3   OH275745   0.210   4.402   1.135 -0.0219 -0.4661  0.2938
18085TIP3    H175746   0.145   4.443   1.079  1.0889  0.4580 -0.3138
18085TIP3    H275747   0.247   4.473   1.186  2.1064 -0.6522 -0.9614
18086TIP3   OH275748   4.453   6.448  10.655  0.0995  0.3613  0.5377
18086TIP3    H175749   4.531   6.460  10.709  1.1373  1.5494 -1.1556
18086TIP3    H275750   4.447   6.354  10.640  0.6289  0.1740  1.4971
18087TIP3   OH275751   5.916   5.391   1.371  0.0874 -0.5574 -0.3895
18087TIP3    H175752   5.969   5.380   1.450 -1.0251 -0.5511  0.3723
18087TIP3    H275753   5.928   5.483   1.347  0.2106 -0.4888 -0.0726
18088TIP3   OH275754   4.993   4.583   1.826  0.4221  0.3962  0.0231
18088TIP3    H175755   4.967   4.662   1.779  2.1821  0.6677 -0.5263
18088TIP3    H275756   5.041   4.616   1.903 -1.0076 -0.0842  1.1403
18089TIP3   OH275757   1.160   3.487   5.064 -0.0854  0.1292 -0.1239
18089TIP3    H175758   1.205   3.572   5.058  0.3804 -0.1017  0.0909
18089TIP3    H275759   1.121   3.486   5.151  0.6570 -0.2471  0.2070
18090TIP3   OH275760   6.481   6.185   5.915  0.3504 -0.5976  0.3901
18090TIP3    H175761   6.438   6.265   5.945 -0.5910 -1.5688  1.7137
18090TIP3    H275762   6.528   6.153   5.992  0.6091 -1.3921 -0.0908
18091TIP3   OH275763   0.116   4.009   1.247  0.1263  0.3994  0.2735
18091TIP3    H175764   0.207   4.038   1.240  0.5656 -1.0186  0.0380
18091TIP3    H275765   0.119   3.915   1.231 -1.4869  0.4544 -0.4551
18092TIP3   OH275766   0.573   1.680   1.773  0.0856  0.0634 -0.3033
18092TIP3    H175767   0.599   1.630   1.696  0.5837 -0.8145  0.4172
18092TIP3    H275768   0.504   1.738   1.743  0.1719 -0.3887 -1.3718
18093TIP3   OH275769   3.715   1.192   3.058 -0.4298 -0.3324  0.3680
18093TIP3    H175770   3.636   1.149   3.025 -1.1914  1.2452  0.0319
18093TIP3    H275771   3.786   1.131   3.040 -1.1773 -0.5874 -1.9697
18094TIP3   OH275772   2.592   3.594  12.370 -0.1162  0.1781 -0.0654
18094TIP3    H175773   2.590   3.505  12.404  1.7261 -0.2055 -0.8984
18094TIP3    H275774   2.612   3.584  12.277  0.2929  1.4695 -0.1334
18095TIP3   OH275775   2.726   3.110  12.680  0.1655  0.3656  0.2020
18095TIP3    H175776   2.748   3.022  12.712  1.8208  0.7703  0.2529
18095TIP3    H275777   2.752   3.168  12.752 -1.6873  0.8379  0.4944
18096TIP3   OH275778   0.143   5.284  13.808 -0.3702 -0.1580 -0.9442
18096TIP3    H175779   0.209   5.266  13.742  1.0921  0.7379  0.2209
18096TIP3    H275780   0.066   5.237  13.779  0.3095  0.0302 -3.1513
18097TIP3   OH275781   3.914   5.695  13.032  0.1013 -0.5388  0.1161
18097TIP3    H175782   3.999   5.651  13.035 -0.5120 -1.8104 -0.6195
18097TIP3    H275783   3.889   5.706  13.123  0.1342 -1.9870  0.3058
18098TIP3   OH275784   3.857   6.277   3.821  0.1551 -0.1767 -0.2039
18098TIP3    H175785   3.797   6.302   3.750  0.2075 -0.7735 -0.4546
18098TIP3    H275786   3.801   6.235   3.886 -0.1703  1.8388  0.8610
18099TIP3   OH275787   4.279   2.222  15.128 -0.2083 -0.2711  0.0481
18099TIP3    H175788   4.293   2.295  15.189 -0.1139  0.8004 -1.2474
18099TIP3    H275789   4.350   2.230  15.064 -0.8126 -0.8712 -0.7052
18100TIP3   OH275790   5.403   2.319  16.626 -0.2202 -0.5880  0.1543
18100TIP3    H175791   5.392   2.226  16.646  0.6538 -1.2338 -2.1851
18100TIP3    H275792   5.481   2.346  16.674 -0.0247 -1.2638  0.2134
18101TIP3   OH275793   0.328   0.590  14.484 -0.4067 -0.4474  0.0776
18101TIP3    H175794   0.359   0.604  14.394  0.7732  0.1385  0.5597
18101TIP3    H275795   0.402   0.547  14.527  0.0111  1.6095  1.4559
18102TIP3   OH275796   6.157   4.435  12.512 -0.1959 -0.0851  0.0443
18102TIP3    H175797   6.200   4.521  12.501 -2.8562  1.3788  0.6940
18102TIP3    H275798   6.187   4.384  12.437  1.5316  1.3503 -0.2965
18103TIP3   OH275799   4.070   3.888   2.585 -0.1253 -0.2404  0.3193
18103TIP3    H175800   4.042   3.976   2.561 -1.4570 -0.7182  0.1356
18103TIP3    H275801   4.084   3.892   2.680 -0.1800  0.1693  0.3087
18104TIP3   OH275802   4.674   1.309  12.201 -0.0545  0.0089  0.5419
18104TIP3    H175803   4.768   1.291  12.199 -0.4614 -2.2118 -1.2688
18104TIP3    H275804   4.648   1.308  12.109 -1.6845  1.6318  0.9590
18105TIP3   OH275805   5.087   0.549  14.713 -0.4197  0.4585  0.0257
18105TIP3    H175806   5.081   0.488  14.639 -0.0215 -0.9421  1.1229
18105TIP3    H275807   5.082   0.493  14.791  1.8869  1.6371  1.0658
18106TIP3   OH275808   4.320   2.071  14.805 -0.1507  0.5065  0.1153
18106TIP3    H175809   4.399   2.026  14.775  0.3103  2.1568 -1.2334
18106TIP3    H275810   4.328   2.072  14.901  2.2603  2.0461 -0.0624
18107TIP3   OH275811   3.498   0.206  15.588  0.0784  0.6425 -0.2559
18107TIP3    H175812   3.516   0.178  15.498  2.3084  0.2502  0.2613
18107TIP3    H275813   3.585   0.217  15.626 -0.8240 -0.8782  2.3545
18108TIP3   OH275814   4.941   0.690   2.026  0.2123  0.0585 -0.3606
18108TIP3    H175815   4.939   0.749   1.950 -0.4439  1.2492  0.5695
18108TIP3    H275816   4.863   0.636   2.016 -0.6664  1.2062  0.2397
18109TIP3   OH275817   0.391   2.297   1.123 -0.3463  0.9127  0.1784
18109TIP3    H175818   0.380   2.288   1.218  1.1424 -1.5228  0.1627
18109TIP3    H275819   0.302   2.298   1.089 -0.8815  0.9298  1.5372
18110TIP3   OH275820   0.785   5.969   6.028  0.3387 -0.1676  0.2698
18110TIP3    H175821   0.825   5.929   6.104 -0.5174  2.2558  2.0748
18110TIP3    H275822   0.693   5.942   6.032 -0.1374  1.4977  1.2331
18111TIP3   OH275823   4.874   2.481  16.000 -0.1460 -0.6349 -0.2017
18111TIP3    H175824   4.801   2.540  15.981  0.0813 -0.2494  0.1194
18111TIP3    H275825   4.857   2.404  15.947 -0.8549 -0.5934 -0.0361
18112TIP3   OH275826   2.103   0.958  17.137  0.6715  0.2106 -0.1849
18112TIP3    H175827   2.041   0.931  17.070  0.4849  1.9223 -0.7339
18112TIP3    H275828   2.164   0.884  17.146 -0.2632 -0.6700 -1.0691
18113TIP3   OH275829   3.711   2.660   5.728  0.3469 -0.4609 -0.6190
18113TIP3    H175830   3.739   2.639   5.817 -0.4996 -0.4912 -0.3480
18113TIP3    H275831   3.637   2.601   5.712  0.2624 -0.1991 -1.1996
18114TIP3   OH275832   1.270   3.274  15.698 -0.0432 -0.2741  0.3511
18114TIP3    H175833   1.262   3.364  15.667  1.5116  0.0968  0.9961
18114TIP3    H275834   1.266   3.221  15.618  0.4387  0.4594 -0.1661
18115TIP3   OH275835   4.102   1.332   2.443 -0.3287 -0.0424 -0.4033
18115TIP3    H175836   4.181   1.278   2.441 -0.4505 -0.3526  1.7234
18115TIP3    H275837   4.030   1.268   2.443 -0.4583 -0.0256  3.6456
18116TIP3   OH275838   1.846   3.932  13.484 -0.1907 -0.0729  0.4304
18116TIP3    H175839   1.860   3.998  13.417  0.6403  0.7617  1.4032
18116TIP3    H275840   1.907   3.862  13.463 -0.0750  0.0976  0.1979
18117TIP3   OH275841   2.700   5.115   5.120 -0.3555 -0.5129 -0.3646
18117TIP3    H175842   2.722   5.159   5.202 -0.6379 -1.2546  0.1136
18117TIP3    H275843   2.725   5.178   5.052 -2.3072  1.0634  0.3472
18118TIP3   OH275844   2.434   1.390   1.632 -0.8626  0.0845 -0.0756
18118TIP3    H175845   2.473   1.395   1.545  2.5281  1.1832  1.4049
18118TIP3    H275846   2.388   1.474   1.643 -1.9286 -0.3629 -1.0623
18119TIP3   OH275847   6.184   0.492   0.654 -0.1057  0.6675  0.1387
18119TIP3    H175848   6.154   0.430   0.720 -0.2032  3.3646  2.7479
18119TIP3    H275849   6.280   0.481   0.653 -0.2218 -0.3993 -0.3859
18120TIP3   OH275850   2.899   0.865   0.531  0.2477  0.3199 -0.0136
18120TIP3    H175851   2.883   0.873   0.437  0.7353 -2.0666 -0.3449
18120TIP3    H275852   2.821   0.823   0.565 -0.3994  2.1840  0.8609
18121TIP3   OH275853   5.980   1.603   3.443 -0.5338  0.0825  0.3267
18121TIP3    H175854   6.057   1.636   3.489  0.6894  0.3046 -1.8176
18121TIP3    H275855   5.906   1.648   3.485  0.7721  2.4840  0.1413
18122TIP3   OH275856   3.738   5.062  14.330 -1.0298  0.0078  0.5707
18122TIP3    H175857   3.757   5.106  14.413  2.0875  1.0242 -0.5682
18122TIP3    H275858   3.702   4.977  14.355 -0.5852  0.4827  2.9662
18123TIP3   OH275859   2.882   6.178   2.671 -0.5375  0.1836 -0.4509
18123TIP3    H175860   2.838   6.133   2.743 -1.0816  0.2679 -0.7286
18123TIP3    H275861   2.835   6.149   2.593  1.1099 -1.2196 -0.9416
18124TIP3   OH275862   4.446   1.390   1.232 -0.0223 -0.2883  0.3110
18124TIP3    H175863   4.448   1.421   1.142  1.6390 -2.3983 -0.4046
18124TIP3    H275864   4.365   1.340   1.239  0.0321 -0.4341 -0.1123
18125TIP3   OH275865   6.349   2.075  16.428 -0.2896  1.2037 -0.5308
18125TIP3    H175866   6.257   2.070  16.401 -0.5199  0.0925  0.4196
18125TIP3    H275867   6.377   2.162  16.399 -1.3366  1.1515 -1.7560
18126TIP3   OH275868   2.989   2.086   3.355  0.2311 -0.2451  0.5158
18126TIP3    H175869   3.084   2.088   3.371  0.2790 -0.5135  0.2828
18126TIP3    H275870   2.982   2.065   3.262 -0.0834 -1.8907  0.9019
18127TIP3   OH275871   6.232   2.258  12.880 -0.3976 -0.3103 -0.0800
18127TIP3    H175872   6.163   2.208  12.837 -1.3632 -0.1032  1.1954
18127TIP3    H275873   6.214   2.248  12.974 -0.8117  2.6668  0.2044
18128TIP3   OH275874   1.669   2.851  13.233  0.3803 -0.0680 -0.1311
18128TIP3    H175875   1.720   2.905  13.292 -0.1477 -0.6619  0.8784
18128TIP3    H275876   1.646   2.773  13.284  2.4373 -1.9991 -2.0194
18129TIP3   OH275877   0.587   5.743   6.335  0.4147 -0.2685 -0.2147
18129TIP3    H175878   0.674   5.763   6.369  0.0981 -2.5891  2.1952
18129TIP3    H275879   0.527   5.778   6.402 -0.5504  1.8600 -2.1481
18130TIP3   OH275880   1.790   1.177   0.181  0.2922  0.4642 -0.1206
18130TIP3    H175881   1.720   1.115   0.201 -0.6757  1.3223 -0.7951
18130TIP3    H275882   1.856   1.125   0.135 -1.2965  0.2551 -2.2412
18131TIP3   OH275883   5.448   0.527  12.224 -0.6142 -0.4251 -0.6350
18131TIP3    H175884   5.477   0.458  12.283  1.2163 -0.8777 -2.0150
18131TIP3    H275885   5.454   0.607  12.276 -0.5458 -1.0179  0.2723
18132TIP3   OH275886   5.081   0.418  12.255  0.7948  0.0673 -0.0253
18132TIP3    H175887   5.114   0.396  12.342  2.2230  0.9445 -0.3335
18132TIP3    H275888   5.106   0.344  12.201  0.6464 -0.1053  0.1433
18133TIP3   OH275889   0.691   0.286   3.136  0.1190 -0.1376  0.5192
18133TIP3    H175890   0.684   0.195   3.106 -3.5844 -0.0942  1.0938
18133TIP3    H275891   0.691   0.280   3.231  2.2767  0.3750  0.5873
18134TIP3   OH275892   5.235   3.568  12.369  0.3905  0.6787 -0.4883
18134TIP3    H175893   5.227   3.550  12.462 -1.1865  1.1055 -0.5417
18134TIP3    H275894   5.330   3.565  12.352  0.7123  1.1037  1.2104
18135TIP3   OH275895   4.538   3.538  13.401  0.0999 -0.5541  0.8930
18135TIP3    H175896   4.600   3.487  13.349  1.3705  1.5624  0.2615
18135TIP3    H275897   4.464   3.554  13.343  1.6853  2.1418 -0.5178
18136TIP3   OH275898   5.068   4.671  13.357 -0.2454 -0.4367 -0.0490
18136TIP3    H175899   5.001   4.622  13.308  1.0480 -0.6194 -1.7060
18136TIP3    H275900   5.027   4.755  13.377 -1.7462 -1.3839  0.9274
18137TIP3   OH275901   6.230   0.382  17.255  0.6986 -1.2262 -0.4326
18137TIP3    H175902   6.295   0.406  17.321 -0.4947  0.0689  0.3011
18137TIP3    H275903   6.201   0.294  17.280 -1.2841  0.0565  2.0863
18138TIP3   OH275904   6.178   1.194  16.512 -0.2117  0.7550  0.0205
18138TIP3    H175905   6.103   1.252  16.524 -0.6064  0.0696  0.9003
18138TIP3    H275906   6.145   1.125  16.454 -0.7102 -0.3602  1.6167
18139TIP3   OH275907   2.390   2.727  15.840  0.0781 -0.3735  0.0019
18139TIP3    H175908   2.315   2.716  15.898  0.4430  0.9574  0.7635
18139TIP3    H275909   2.364   2.684  15.758 -0.8356 -1.3976  0.8167
18140TIP3   OH275910   0.485   2.241  15.749 -0.2339 -0.7470 -0.6345
18140TIP3    H175911   0.508   2.158  15.791 -0.7062 -1.2133 -1.3003
18140TIP3    H275912   0.414   2.276  15.803  1.0256  0.0195  0.5979
18141TIP3   OH275913   4.580   3.416   1.159  0.1855  0.2545 -0.1936
18141TIP3    H175914   4.582   3.499   1.110 -1.1852  0.3669 -0.0873
18141TIP3    H275915   4.605   3.440   1.248  0.5561  0.4242 -0.3428
18142TIP3   OH275916   1.254   0.990   4.320 -0.0540 -0.1856 -0.1116
18142TIP3    H175917   1.265   0.988   4.415  0.6652  0.1512 -0.1810
18142TIP3    H275918   1.283   0.903   4.291  0.5205 -0.0010 -0.0993
18143TIP3   OH275919   5.296   4.720  14.013 -0.0256  0.1588  0.5501
18143TIP3    H175920   5.290   4.627  14.032 -0.0010 -0.1366 -0.8687
18143TIP3    H275921   5.218   4.758  14.052 -1.6617 -0.9173 -1.5894
18144TIP3   OH275922   6.194   4.450   0.928 -0.1621  0.5302 -0.0173
18144TIP3    H175923   6.133   4.486   0.993 -0.8199 -0.5254 -0.0430
18144TIP3    H275924   6.238   4.379   0.974 -1.6763 -1.1801 -1.1579
18145TIP3   OH275925   6.104   2.234  16.597  0.2854  0.2844 -0.1281
18145TIP3    H175926   6.053   2.291  16.655 -1.2872 -0.1550 -1.0263
18145TIP3    H275927   6.157   2.181  16.657 -0.9458  0.1718  0.9151
18146TIP3   OH275928   5.780   3.548  11.750  0.3399  0.4358  0.6644
18146TIP3    H175929   5.727   3.598  11.688 -0.1943 -0.0490  0.7282
18146TIP3    H275930   5.811   3.613  11.813  1.8773  1.1386 -0.7754
18147TIP3   OH275931   2.257   5.555   5.310 -0.6179 -0.4131 -0.2087
18147TIP3    H175932   2.214   5.620   5.366 -1.0195 -0.8456 -0.0044
18147TIP3    H275933   2.213   5.472   5.332  0.9585 -1.0433  0.7015
18148TIP3   OH275934   1.190   5.507  16.958 -0.8153  0.0480  0.2661
18148TIP3    H175935   1.227   5.449  16.890 -0.4224  0.8751 -0.2329
18148TIP3    H275936   1.099   5.522  16.929 -0.8285 -0.0806  0.2381
18149TIP3   OH275937   1.673   2.881  15.838  0.4564 -0.3567  0.6706
18149TIP3    H175938   1.583   2.849  15.853  0.9826 -1.5231  1.4473
18149TIP3    H275939   1.695   2.850  15.751  0.3359 -0.6343  0.7378
18150TIP3   OH275940   2.947   2.357   4.466 -0.7468  0.0158 -0.7882
18150TIP3    H175941   3.033   2.350   4.507 -1.7883  0.4080  1.5499
18150TIP3    H275942   2.912   2.268   4.469 -2.0991  0.5860  2.1503
18151TIP3   OH275943   6.162   3.737   6.425  0.3828 -0.0242  0.2239
18151TIP3    H175944   6.175   3.643   6.416 -0.8080 -0.5239  3.2350
18151TIP3    H275945   6.069   3.751   6.408  1.1969  1.1696 -3.7984
18152TIP3   OH275946   2.891   4.960   3.106 -0.0074 -0.4774 -0.2476
18152TIP3    H175947   2.966   4.968   3.047 -0.4518 -1.5945 -0.9765
18152TIP3    H275948   2.819   5.001   3.059  0.3108  1.3450  0.7990
18153TIP3   OH275949   1.503   4.040   1.714  0.6091  0.5765 -0.3991
18153TIP3    H175950   1.594   4.009   1.716  0.7217  0.9410  0.0369
18153TIP3    H275951   1.460   3.991   1.784  0.6538  0.9922 -0.0828
18154TIP3   OH275952   5.371   5.698   4.270  0.4727 -0.3979  0.0942
18154TIP3    H175953   5.362   5.609   4.238  3.6627 -0.7338 -0.0111
18154TIP3    H275954   5.334   5.753   4.201  1.4236 -1.4726 -1.2864
18155TIP3   OH275955   5.726   1.775   0.188 -0.4726 -0.5641 -0.1590
18155TIP3    H175956   5.704   1.751   0.098  0.6647 -1.7938 -0.1300
18155TIP3    H275957   5.790   1.846   0.180 -3.1999  1.9627 -0.2559
18156TIP3   OH275958   0.049   5.842  17.100 -0.6661 -0.0688 -0.1586
18156TIP3    H175959   0.086   5.782  17.165  2.7676  1.4813 -0.5824
18156TIP3    H275960   0.045   5.789  17.019  1.5282 -0.0814 -0.3154
18157TIP3   OH275961   6.764   0.418   5.956  0.0927 -0.5859 -0.0373
18157TIP3    H175962   6.717   0.454   6.031 -0.6382  1.4955 -1.4620
18157TIP3    H275963   6.856   0.417   5.985 -0.4107 -1.7964  1.6281
18158TIP3   OH275964   3.646   2.596   4.690 -0.0834 -0.2180  0.5187
18158TIP3    H175965   3.626   2.665   4.626  0.3163 -1.3443 -0.8574
18158TIP3    H275966   3.594   2.619   4.767  0.1757  1.7089  0.1409
18159TIP3   OH275967   3.349   5.118  16.909 -0.6853 -0.5850  0.3371
18159TIP3    H175968   3.379   5.198  16.953  0.0384 -0.5470 -0.2106
18159TIP3    H275969   3.424   5.092  16.855 -0.1021 -2.8214  2.1419
18160TIP3   OH275970   4.284   2.365  11.105 -0.4719  0.1227 -0.1173
18160TIP3    H175971   4.209   2.381  11.162 -0.2322 -0.2602  0.3054
18160TIP3    H275972   4.246   2.341  11.021 -0.8261 -0.4143  0.1949
18161TIP3   OH275973   0.873   3.817   1.886  0.0920 -0.3732 -0.2789
18161TIP3    H175974   0.817   3.853   1.954 -0.8464 -0.4780 -0.9811
18161TIP3    H275975   0.823   3.744   1.850  1.0265 -0.9692 -0.3745
18162TIP3   OH275976   5.912   5.179   5.647  0.5379  0.6231  0.2931
18162TIP3    H175977   5.926   5.145   5.558 -0.1099  0.5886  0.2015
18162TIP3    H275978   5.866   5.109   5.692  0.1845  0.9426  0.4313
18163TIP3   OH275979   0.682   0.832  12.362  0.4059  0.1575 -0.0014
18163TIP3    H175980   0.704   0.869  12.276 -1.1725 -0.5939 -0.7546
18163TIP3    H275981   0.629   0.755  12.342  1.6497 -1.1524  1.6116
18164TIP3   OH275982   4.188   5.348  15.768 -0.3051  0.1825 -0.3120
18164TIP3    H175983   4.236   5.417  15.814 -1.6589  2.0016 -1.5172
18164TIP3    H275984   4.143   5.394  15.697  0.4342 -2.2910 -2.4668
18165TIP3   OH275985   0.086   6.597  16.502 -0.3658  0.0213 -0.5160
18165TIP3    H175986   0.145   6.649  16.557 -0.8287  1.5430 -1.4274
18165TIP3    H275987   0.028   6.553  16.564  0.8653 -0.4253  0.3224
18166TIP3   OH275988   4.135   3.373  11.070  0.0388 -0.4510 -0.1619
18166TIP3    H175989   4.117   3.467  11.071  0.0123 -0.4561  0.9748
18166TIP3    H275990   4.226   3.366  11.041  0.5277  0.0205  1.2313
18167TIP3   OH275991   4.193   4.312   2.994  0.0702  0.3679 -0.4035
18167TIP3    H175992   4.216   4.355   2.912 -0.4240  0.0485 -0.7092
18167TIP3    H275993   4.276   4.276   3.026  0.1559 -0.0375 -1.0681
18168TIP3   OH275994   3.867   6.253   2.306 -0.3892 -0.0160 -0.9480
18168TIP3    H175995   3.962   6.244   2.303 -0.0825  2.1827  0.5870
18168TIP3    H275996   3.838   6.188   2.370  0.3867  1.0739  0.5479
18169TIP3   OH275997   0.234   0.555  15.172  0.2262 -0.3540  0.2623
18169TIP3    H175998   0.174   0.578  15.101  1.0972 -0.7733 -0.6287
18169TIP3    H275999   0.208   0.611  15.245 -1.0532 -0.3267 -0.1993
18170TIP3   OH276000   3.710   6.024  12.639  0.1715 -0.0569 -0.0663
18170TIP3    H176001   3.718   6.099  12.581  0.1196 -1.9506 -2.5990
18170TIP3    H276002   3.801   6.001  12.660  0.3111 -1.1069 -1.7425
18171TIP3   OH276003   2.426   6.430   1.528 -0.2882 -0.0377  0.3936
18171TIP3    H176004   2.331   6.432   1.527 -0.3176  0.6680  1.9751
18171TIP3    H276005   2.450   6.370   1.457 -1.9400 -1.1565  0.7374
18172TIP3   OH276006   0.090   5.559   4.598  0.0416 -0.2638 -0.6544
18172TIP3    H176007   0.033   5.484   4.614  1.3426 -1.0662  0.3029
18172TIP3    H276008   0.155   5.557   4.669  2.1047 -0.1862 -2.4559
18173TIP3   OH276009   6.689   0.860   0.503 -0.4117  0.0105  0.6039
18173TIP3    H176010   6.661   0.947   0.530 -0.1834  0.2743 -0.0088
18173TIP3    H276011   6.611   0.805   0.514 -1.1953  0.7433 -1.1497
18174TIP3   OH276012   2.360   5.128   4.120  0.4893  0.1941  0.6524
18174TIP3    H176013   2.379   5.177   4.040 -2.4870  0.3791 -0.0145
18174TIP3    H276014   2.331   5.194   4.183  0.4010 -0.2206  1.0504
18175TIP3   OH276015   1.762   1.217  12.930  0.3101  0.3083 -0.0009
18175TIP3    H176016   1.836   1.193  12.985 -0.4994 -1.2456  0.4499
18175TIP3    H276017   1.693   1.240  12.992  0.0600  0.6232 -0.3963
18176TIP3   OH276018   5.177   1.336  12.737  0.5551 -0.1549  0.1667
18176TIP3    H176019   5.085   1.322  12.712  0.8455 -0.8924 -0.4956
18176TIP3    H276020   5.227   1.305  12.662  1.3580  0.1398  0.5772
18177TIP3   OH276021   4.079   5.133   3.405  0.0124 -0.3806 -0.2146
18177TIP3    H176022   4.120   5.079   3.472 -0.6967 -0.9116 -0.2025
18177TIP3    H276023   4.103   5.222   3.428 -1.5225 -0.4052  1.6876
18178TIP3   OH276024   3.081   5.294   2.137 -0.8590  0.0540  0.8376
18178TIP3    H176025   3.177   5.304   2.135 -0.9316  0.6934  0.1724
18178TIP3    H276026   3.058   5.312   2.228 -0.4095  0.6042  0.8492
18179TIP3   OH276027   1.559   2.902   4.275  0.0062  0.3801  1.5102
18179TIP3    H176028   1.605   2.820   4.287  0.0578  0.0015 -1.0534
18179TIP3    H276029   1.473   2.877   4.241  0.6841  1.4272 -1.1098
18180TIP3   OH276030   4.628   6.553   6.270 -0.0816  0.7279 -0.3018
18180TIP3    H176031   4.652   6.503   6.348 -1.3402  0.2533 -0.2118
18180TIP3    H276032   4.573   6.624   6.304 -0.5253  0.5944 -0.7454
18181TIP3   OH276033   5.925   4.022   3.566 -0.5832 -0.4631  0.7213
18181TIP3    H176034   5.920   4.099   3.509 -0.3513 -0.3582  0.8437
18181TIP3    H276035   6.017   4.016   3.590 -0.1645 -2.0991 -1.1307
18182TIP3   OH276036   4.872   3.662  10.614 -0.4049  0.8558  0.0227
18182TIP3    H176037   4.787   3.703  10.628 -0.1502  1.8662 -1.3013
18182TIP3    H276038   4.928   3.697  10.684 -1.4700 -1.0256  1.8601
18183TIP3   OH276039   0.367   5.745   5.209 -0.5149 -0.6187 -0.6549
18183TIP3    H176040   0.348   5.747   5.115 -2.5834  2.2837 -0.2557
18183TIP3    H276041   0.285   5.716   5.249 -1.0129  2.1099  0.4495
18184TIP3   OH276042   6.351   0.213   0.931  0.1440 -0.0263 -0.0696
18184TIP3    H176043   6.370   0.154   1.004 -1.5613 -1.7975 -0.9951
18184TIP3    H276044   6.410   0.186   0.861 -0.9357 -0.9645 -0.6399
18185TIP3   OH276045   4.327   1.431  13.615  0.4585 -0.4001 -0.2313
18185TIP3    H176046   4.353   1.365  13.680 -0.3178  0.7553  1.2910
18185TIP3    H276047   4.379   1.411  13.537  0.1380 -2.8906  0.1657
18186TIP3   OH276048   2.199   1.915   1.330  0.5066  0.2131  0.0515
18186TIP3    H176049   2.154   1.943   1.250  0.0169 -1.2362 -0.2054
18186TIP3    H276050   2.128   1.893   1.391  0.8658 -1.1768 -0.0286
18187TIP3   OH276051   1.066   2.735  12.528 -0.2918 -0.4412 -0.4136
18187TIP3    H176052   1.090   2.689  12.609  0.9758 -0.7861 -0.9673
18187TIP3    H276053   1.147   2.778  12.501 -0.8901  0.2382 -1.1299
18188TIP3   OH276054   1.177   1.969   5.734  0.1851  0.6678 -0.2764
18188TIP3    H176055   1.085   1.977   5.707 -0.0459 -0.1317  0.2721
18188TIP3    H276056   1.185   2.030   5.807 -0.8844 -1.9809  2.1219
18189TIP3   OH276057   4.127   1.323  14.386  0.4103  0.1778  0.1209
18189TIP3    H176058   4.100   1.347  14.475  2.0035  0.6304  0.4860
18189TIP3    H276059   4.047   1.287  14.346 -1.3763  3.5250  0.4527
18190TIP3   OH276060   2.076   6.783  12.536 -0.0264  0.5022  0.4127
18190TIP3    H176061   2.150   6.740  12.495  0.1460  0.9600  0.2392
18190TIP3    H276062   2.112   6.825  12.615 -0.0443  0.9373  0.1937
18191TIP3   OH276063   4.290   3.295  13.883 -0.4751 -0.0720  0.2221
18191TIP3    H176064   4.337   3.329  13.808 -1.6577  1.9778  0.3846
18191TIP3    H276065   4.304   3.200  13.879  2.9473  0.3867 -0.1881
18192TIP3   OH276066   0.573   2.485   3.281  0.2686 -0.2113 -0.1313
18192TIP3    H176067   0.614   2.526   3.204 -2.5901  1.7385 -0.6913
18192TIP3    H276068   0.586   2.548   3.351 -0.2762 -0.3682  0.1077
18193TIP3   OH276069   4.948   4.905  12.457  0.0190 -0.4182  0.1859
18193TIP3    H176070   5.015   4.926  12.392  0.6368  0.2246  1.0226
18193TIP3    H276071   4.884   4.976  12.447 -0.1482 -0.6032 -0.0715
18194TIP3   OH276072   1.327   1.160   0.988 -0.6275  0.7707  0.8307
18194TIP3    H176073   1.329   1.242   0.939  2.4110  1.4742  2.0672
18194TIP3    H276074   1.338   1.186   1.079 -0.9822 -0.9276  1.3788
18195TIP3   OH276075   0.407   4.428  13.991  0.2534  0.1769  0.3988
18195TIP3    H176076   0.486   4.390  14.030  1.0927  0.7769 -0.6753
18195TIP3    H276077   0.380   4.496  14.052  0.6095  0.0069  0.7474
18196TIP3   OH276078   5.665   3.711  15.413  0.7008 -0.2331 -0.3002
18196TIP3    H176079   5.587   3.658  15.401  1.2342 -0.8952 -0.8823
18196TIP3    H276080   5.722   3.659  15.469  0.1721  0.8387  1.2810
18197TIP3   OH276081   6.497   2.384   2.171  0.0915  0.0442  0.5203
18197TIP3    H176082   6.417   2.373   2.223  0.8896  0.3208  1.8309
18197TIP3    H276083   6.529   2.471   2.194  0.0963  0.4473 -0.9695
18198TIP3   OH276084   4.417   4.335  14.724  0.5472  0.1310  0.5254
18198TIP3    H176085   4.499   4.291  14.744 -0.5769 -1.2534  2.3251
18198TIP3    H276086   4.385   4.291  14.645  0.7364 -0.4764  0.7785
18199TIP3   OH276087   2.055   1.914   3.114 -0.7783  0.2687  0.4025
18199TIP3    H176088   1.996   1.839   3.129 -2.6080  1.8895  1.6252
18199TIP3    H276089   2.033   1.975   3.185 -0.2493  2.5270 -1.3332
18200TIP3   OH276090   3.916   5.741   0.178 -0.3681  0.6854  0.2066
18200TIP3    H176091   3.991   5.800   0.184 -0.0077  0.1056  1.5457
18200TIP3    H276092   3.852   5.778   0.238 -2.0301  2.4002 -2.5392
18201TIP3   OH276093   1.278   3.943   4.094 -0.2073  0.3484 -0.4184
18201TIP3    H176094   1.320   4.015   4.046  0.3995  0.3903  0.1598
18201TIP3    H276095   1.195   3.929   4.049 -0.6644  1.9159 -0.0907
18202TIP3   OH276096   3.038   1.724  13.184  0.1763 -0.2329 -0.2170
18202TIP3    H176097   3.107   1.738  13.249 -1.0929 -3.5004  1.9756
18202TIP3    H276098   2.992   1.808  13.180  1.1821  0.4697  2.0289
18203TIP3   OH276099   0.976   4.813  15.622  0.2918  0.2177 -0.0922
18203TIP3    H176100   1.007   4.728  15.592 -2.5329 -1.0985  0.5303
18203TIP3    H276101   0.991   4.812  15.717 -1.3674 -0.3456  0.1805
18204TIP3   OH276102   3.493   1.267   4.830  0.1639 -0.0681 -0.7653
18204TIP3    H176103   3.578   1.309   4.839 -1.2083  2.3596  1.7048
18204TIP3    H276104   3.461   1.294   4.744  1.3212  0.1158 -1.1359
18205TIP3   OH276105   5.328   1.369  11.599 -0.2766 -0.5789  0.1614
18205TIP3    H176106   5.313   1.404  11.687 -1.5734  0.0184 -0.2922
18205TIP3    H276107   5.421   1.344  11.599 -0.4500 -1.2809  1.9350
18206TIP3   OH276108   2.125   2.492  16.091 -0.3466  0.5715 -0.2064
18206TIP3    H176109   2.094   2.404  16.073 -0.5026  0.7235 -0.6906
18206TIP3    H276110   2.046   2.541  16.114 -0.1301  0.3387  1.0796
18207TIP3   OH276111   6.306   1.792  11.412 -0.2992 -0.1000 -0.2105
18207TIP3    H176112   6.386   1.813  11.460  0.1006  0.3000 -1.0642
18207TIP3    H276113   6.241   1.774  11.481  0.1783  0.8297  0.4897
18208TIP3   OH276114   4.296   2.105   5.115  0.0506  0.1133 -0.4391
18208TIP3    H176115   4.362   2.173   5.101  0.7599 -0.3018  0.7803
18208TIP3    H276116   4.216   2.141   5.078  1.5975 -0.6072 -4.7299
18209TIP3   OH276117   2.297   2.663  14.206  0.0138 -0.1757 -0.1812
18209TIP3    H176118   2.317   2.754  14.182  1.5215 -0.7996 -1.4041
18209TIP3    H276119   2.251   2.628  14.130  1.6962 -1.1476 -0.7858
18210TIP3   OH276120   3.048   4.022   0.519  1.0233  0.0868  0.1048
18210TIP3    H176121   3.033   4.053   0.609 -1.1248 -0.8443  0.0992
18210TIP3    H276122   3.055   3.927   0.528  0.5874 -0.0235 -0.7500
18211TIP3   OH276123   2.843   0.367   6.551 -0.1548  0.2149 -0.3048
18211TIP3    H176124   2.938   0.371   6.536 -0.2509 -1.2537 -1.4428
18211TIP3    H276125   2.834   0.340   6.642  0.5340 -0.5984 -0.4756
18212TIP3   OH276126   1.568   3.949   1.074 -0.4043 -0.3102  1.0009
18212TIP3    H176127   1.580   3.995   1.157  1.6922 -0.1750  0.6549
18212TIP3    H276128   1.616   3.867   1.086 -0.8142 -0.6667  0.2168
18213TIP3   OH276129   1.127   1.547   5.648 -0.6299 -0.2847 -0.0662
18213TIP3    H176130   1.091   1.629   5.683  1.2251  0.6376 -0.2110
18213TIP3    H276131   1.099   1.545   5.557 -2.0525 -0.6411  0.3698
18214TIP3   OH276132   6.173   1.520  15.925  0.1846  0.1797 -0.1274
18214TIP3    H176133   6.230   1.456  15.884  0.2618  0.6323 -0.7373
18214TIP3    H276134   6.084   1.489  15.905  0.2216  0.2807 -0.4538
18215TIP3   OH276135   4.746   5.305   3.511 -0.4281  0.1637  0.2839
18215TIP3    H176136   4.710   5.254   3.584 -1.0659  1.9126  1.2135
18215TIP3    H276137   4.831   5.336   3.543  0.1816 -0.7218 -0.4669
18216TIP3   OH276138   2.115   4.492  11.803  0.0774 -0.4339  0.3206
18216TIP3    H176139   2.130   4.420  11.742 -2.2515  0.2503 -1.1446
18216TIP3    H276140   2.036   4.466  11.851  0.1304  0.4149  0.8787
18217TIP3   OH276141   4.835   5.908   1.157 -0.4428 -0.6095  0.4377
18217TIP3    H176142   4.840   5.997   1.122 -0.9528 -1.1649 -1.0681
18217TIP3    H276143   4.921   5.892   1.197  0.2647 -0.1025 -0.8835
18218TIP3   OH276144   2.267   3.875   1.089 -0.0303  0.6225 -0.0194
18218TIP3    H176145   2.293   3.802   1.033  1.1129 -0.0643  1.3710
18218TIP3    H276146   2.226   3.834   1.166  0.0940  1.4593  0.5069
18219TIP3   OH276147   6.108   2.919   6.152  0.3581 -0.0400  0.1341
18219TIP3    H176148   6.200   2.897   6.165 -0.2502 -1.8448  1.6086
18219TIP3    H276149   6.069   2.910   6.239 -1.6876 -1.6386 -0.9100
18220TIP3   OH276150   2.125   5.887  11.198  0.3176  0.2450 -0.1339
18220TIP3    H176151   2.141   5.970  11.243 -0.0369  0.7816 -0.9967
18220TIP3    H276152   2.034   5.893  11.168 -0.6642 -1.6134  2.2486
18221TIP3   OH276153   6.702   1.497   3.774 -0.3461  0.0553  0.5044
18221TIP3    H176154   6.787   1.488   3.730  0.6435  0.5996  2.2457
18221TIP3    H276155   6.693   1.417   3.826 -0.7286  0.1625  0.6047
18222TIP3   OH276156   1.343   1.655   5.377 -0.9049 -0.1699  0.4076
18222TIP3    H176157   1.368   1.594   5.447  0.5014  0.3244  0.3609
18222TIP3    H276158   1.350   1.742   5.418 -0.5528  0.0914 -0.1962
18223TIP3   OH276159   1.051   0.060  13.946 -0.6722  0.1672 -0.3915
18223TIP3    H176160   0.984  -0.008  13.954 -0.0126 -0.4799 -0.2879
18223TIP3    H276161   1.044   0.111  14.027  0.5644 -1.3876  0.7277
18224TIP3   OH276162   0.296   5.745   4.130 -0.1269  0.4836  0.1652
18224TIP3    H176163   0.329   5.707   4.211  0.0499 -0.3166 -0.2809
18224TIP3    H276164   0.359   5.719   4.063  0.4917  2.3193 -0.0004
18225TIP3   OH276165   0.329   1.027  13.557  0.2206  0.0130  0.2251
18225TIP3    H176166   0.333   1.074  13.641 -0.1402  0.7863 -0.1827
18225TIP3    H276167   0.295   1.092  13.495 -0.2086 -0.7690 -0.3684
18226TIP3   OH276168   1.990   3.840  12.081  0.4001 -0.7715  0.4485
18226TIP3    H176169   1.986   3.758  12.031  2.2050 -0.2036 -0.6353
18226TIP3    H276170   1.956   3.906  12.022  1.3959 -0.2985  0.4030
18227TIP3   OH276171   5.644   3.233  12.251  0.8028  0.3390 -0.2821
18227TIP3    H176172   5.699   3.191  12.317 -0.2484  0.7769  0.9020
18227TIP3    H276173   5.625   3.163  12.188  1.0558 -0.3441  0.3847
18228TIP3   OH276174   3.500   1.249   5.977  0.3150  0.3082  0.1789
18228TIP3    H176175   3.521   1.283   6.064  0.8969 -1.2632  0.6660
18228TIP3    H276176   3.540   1.312   5.917 -2.7234  3.1409  0.9446
18229TIP3   OH276177   3.613   2.198   4.950  0.3920  0.1466 -0.0708
18229TIP3    H176178   3.549   2.128   4.938  1.0526 -0.7433  1.3580
18229TIP3    H276179   3.698   2.157   4.931  0.5682  1.2711 -1.7894
18230TIP3   OH276180   5.717   0.362   5.396 -0.2496 -0.0517  0.1030
18230TIP3    H176181   5.774   0.437   5.376  1.1189 -1.1014 -0.0882
18230TIP3    H276182   5.761   0.288   5.352 -0.4067 -1.3422  2.0881
18231TIP3   OH276183   6.170   5.537  17.028  0.2305  0.0759 -0.2976
18231TIP3    H176184   6.200   5.544  16.938  0.4776 -0.0416 -0.2225
18231TIP3    H276185   6.079   5.507  17.021  0.1860  0.2608 -0.5131
18232TIP3   OH276186   1.741   3.411  11.878 -0.2531 -0.2916 -0.2052
18232TIP3    H176187   1.675   3.468  11.917 -1.0612 -1.6805  0.4841
18232TIP3    H276188   1.745   3.439  11.786 -1.3830  0.1982 -0.1161
18233TIP3   OH276189   0.221   2.568   0.550  0.1251  0.3895  0.5742
18233TIP3    H176190   0.265   2.548   0.468 -0.0776  1.4341  0.2068
18233TIP3    H276191   0.168   2.645   0.531 -0.3584  0.3045  1.5356
18234TIP3   OH276192   0.644   4.126  16.149 -0.7339  0.4818 -0.3306
18234TIP3    H176193   0.616   4.151  16.237 -0.3099 -0.4088  0.0619
18234TIP3    H276194   0.739   4.119  16.155 -0.2361  4.3796 -1.8881
18235TIP3   OH276195   6.404   2.615   4.102 -0.5366 -0.2493 -0.2334
18235TIP3    H176196   6.337   2.681   4.117  0.9192  1.2473 -0.1220
18235TIP3    H276197   6.386   2.581   4.014 -1.6216 -0.0904 -0.0703
18236TIP3   OH276198   1.566   5.025   0.321 -0.2483  0.3041  0.1191
18236TIP3    H176199   1.640   5.007   0.380 -0.2409  0.9732  0.3165
18236TIP3    H276200   1.491   4.985   0.366 -0.4327  1.7292  1.1227
18237TIP3   OH276201   5.985   5.016   0.807  0.1260 -0.5952 -0.2856
18237TIP3    H176202   5.928   5.064   0.747  0.8493  0.1796 -0.3548
18237TIP3    H276203   5.961   5.048   0.894  2.6634  2.1516 -0.5150
18238TIP3   OH276204   5.444   5.263   4.015 -0.7633 -0.4406  0.3311
18238TIP3    H176205   5.500   5.234   4.086  0.0755  1.3237  0.4039
18238TIP3    H276206   5.481   5.346   3.986 -2.2876 -0.1176 -0.8142
18239TIP3   OH276207   4.936   6.757   5.186 -0.7583 -0.1340 -0.0437
18239TIP3    H176208   5.013   6.725   5.139  0.5297  1.4243  0.9430
18239TIP3    H276209   4.861   6.721   5.138  0.5895 -1.8588 -0.8660
18240TIP3   OH276210   2.680   1.413  16.560  0.0106 -0.2805 -0.0653
18240TIP3    H176211   2.657   1.457  16.479 -0.7166 -0.3955  0.0749
18240TIP3    H276212   2.626   1.334  16.561 -0.1390 -0.1812  0.6187
18241TIP3   OH276213   0.361   3.338   4.024 -0.2185 -0.4706  0.1059
18241TIP3    H176214   0.385   3.413   3.970 -0.8341 -0.1165  0.3179
18241TIP3    H276215   0.445   3.304   4.055  0.1279 -0.5647 -0.9113
18242TIP3   OH276216   2.249   0.590  16.809 -1.0297 -0.1566  0.4432
18242TIP3    H176217   2.233   0.520  16.746 -0.3857 -0.5431  0.7032
18242TIP3    H276218   2.338   0.620  16.790 -1.5160  1.0200 -0.0705
18243TIP3   OH276219   3.043   0.934  14.230  0.2252 -0.5339  0.5802
18243TIP3    H176220   3.019   0.978  14.149  0.1831 -0.7464  0.4746
18243TIP3    H276221   2.972   0.954  14.291  0.4424 -0.0660  0.6814
18244TIP3   OH276222   4.222   3.616  11.904 -0.3998 -0.4294  0.7801
18244TIP3    H176223   4.197   3.585  11.818 -2.2679  0.4211  1.0014
18244TIP3    H276224   4.147   3.666  11.935  1.1405  1.2487  1.9345
18245TIP3   OH276225   2.079   2.464  17.216 -0.1069 -0.7575  1.2970
18245TIP3    H176226   2.159   2.445  17.265  0.8201  1.1439  0.5916
18245TIP3    H276227   2.061   2.384  17.167  0.9612 -1.4507  2.0070
18246TIP3   OH276228   2.402   5.853  14.460 -0.3473  0.5423  0.5437
18246TIP3    H176229   2.469   5.862  14.527 -0.6428 -0.0357  0.9260
18246TIP3    H276230   2.336   5.795  14.499 -1.9949  2.6083  0.8783
18247TIP3   OH276231   3.975   6.390   0.661  0.3503 -0.2413 -0.2581
18247TIP3    H176232   3.930   6.473   0.678  1.0504  0.5823 -2.3237
18247TIP3    H276233   3.996   6.357   0.748 -0.2729  1.5564  0.6148
18248TIP3   OH276234   4.550   4.662  12.496  0.1147  0.1743  0.2351
18248TIP3    H176235   4.564   4.623  12.410  1.5590 -0.2175  0.6350
18248TIP3    H276236   4.517   4.750  12.478 -1.0383 -0.4439 -0.6935
18249TIP3   OH276237   1.568   1.511   1.165 -0.1308  0.3353 -0.1125
18249TIP3    H176238   1.557   1.422   1.198  0.2975  1.3875  3.0586
18249TIP3    H276239   1.478   1.543   1.154 -0.2978  0.4043  1.3499
18250TIP3   OH276240   4.555   6.496  16.991 -0.0553 -0.0679  0.1173
18250TIP3    H176241   4.555   6.407  17.026 -1.3427 -0.6137 -1.2096
18250TIP3    H276242   4.498   6.491  16.915  0.1491  1.8274 -0.1710
18251TIP3   OH276243   6.702   0.001   1.558 -0.2915 -0.2298 -0.1545
18251TIP3    H176244   6.702   0.086   1.603  0.1169 -0.5608  0.4753
18251TIP3    H276245   6.692   0.023   1.465  1.4323  0.6105 -0.1740
18252TIP3   OH276246   4.780   6.513  15.893  0.3438 -0.0586 -0.4107
18252TIP3    H176247   4.867   6.500  15.931  0.4362  1.1161 -0.2000
18252TIP3    H276248   4.722   6.523  15.968  0.1122 -0.2955 -0.5573
18253TIP3   OH276249   0.863   5.705  12.550 -1.0786 -0.3285  0.3816
18253TIP3    H176250   0.919   5.718  12.474 -0.2147 -0.9089  0.8995
18253TIP3    H276251   0.885   5.617  12.581 -2.3082 -0.5732  0.5744
18254TIP3   OH276252   0.829   4.323  12.971  0.1855 -0.2883 -0.2153
18254TIP3    H176253   0.870   4.276  13.043  1.4225 -0.5465 -1.0653
18254TIP3    H276254   0.790   4.255  12.916 -1.2140 -0.0592  0.4659
18255TIP3   OH276255   4.226   4.994  11.639 -0.6020  0.1560  0.3594
18255TIP3    H176256   4.239   5.089  11.641 -1.6392  0.2884  2.0688
18255TIP3    H276257   4.157   4.978  11.703  0.9680 -1.9654  1.6190
18256TIP3   OH276258   5.214   4.772  13.723 -0.3120  0.5112  0.5113
18256TIP3    H176259   5.251   4.743  13.806 -1.5521 -0.1136  0.8559
18256TIP3    H276260   5.140   4.713  13.708  2.2102 -2.0203 -2.9979
18257TIP3   OH276261   0.928   0.355  14.427 -0.1244 -0.6336 -0.6240
18257TIP3    H176262   0.862   0.302  14.382 -0.6252 -1.9718  1.6326
18257TIP3    H276263   0.889   0.375  14.512  0.6392  2.2303 -0.8912
18258TIP3   OH276264   2.412   4.385   3.866  0.0428 -0.0285  0.3201
18258TIP3    H176265   2.364   4.415   3.943  0.2409  1.6693 -0.2102
18258TIP3    H276266   2.412   4.289   3.874 -1.4113  0.0586  1.5234
18259TIP3   OH276267   6.286   6.586   2.618  0.4951  0.1680  0.1816
18259TIP3    H176268   6.343   6.583   2.694  0.4747 -0.6395  0.1761
18259TIP3    H276269   6.305   6.670   2.576 -1.2892  1.7493  2.4428
18260TIP3   OH276270   3.223   1.829  13.689 -0.1508  0.0425  0.3662
18260TIP3    H176271   3.252   1.882  13.764  1.1141  0.9548 -0.7491
18260TIP3    H276272   3.301   1.821  13.634 -0.1650 -3.5003  0.7905
18261TIP3   OH276273   2.255   5.298  10.602 -0.0850  0.5079 -0.4296
18261TIP3    H176274   2.346   5.279  10.625 -0.6368 -1.3607  0.3087
18261TIP3    H276275   2.252   5.284  10.507  0.3906  0.5177 -0.4488
18262TIP3   OH276276   1.774   5.896   2.560 -0.2033 -0.3738  0.5403
18262TIP3    H176277   1.828   5.877   2.483 -0.7805  1.2303 -0.2791
18262TIP3    H276278   1.792   5.823   2.620  1.3189 -0.9148 -0.5340
18263TIP3   OH276279   2.027   6.632  17.166  0.3778 -0.8904 -0.1036
18263TIP3    H176280   2.083   6.704  17.194 -0.9840  0.2830 -0.3128
18263TIP3    H276281   2.085   6.556  17.162  2.8137  1.0441 -3.9595
18264TIP3   OH276282   1.226   0.462   0.192  0.2096 -0.0049 -0.6433
18264TIP3    H176283   1.166   0.516   0.140 -0.6814  0.2385  0.6066
18264TIP3    H276284   1.284   0.525   0.235 -0.7892 -0.0018  0.7643
18265TIP3   OH276285   1.523   5.931  16.557  0.2369 -0.0675 -0.0263
18265TIP3    H176286   1.460   6.002  16.573 -0.9093 -0.7573 -1.3948
18265TIP3    H276287   1.555   5.947  16.468  1.9032  0.1871  0.6044
18266TIP3   OH276288   5.591   2.618  13.324  0.1169 -0.3689  0.4164
18266TIP3    H176289   5.553   2.664  13.249  0.3952 -0.7827  0.0182
18266TIP3    H276290   5.682   2.648  13.326  0.1811 -0.5660  0.4212
18267TIP3   OH276291   3.606   1.730  10.761 -0.0688 -0.3911  0.1380
18267TIP3    H176292   3.641   1.666  10.822 -1.3116 -0.3448  0.9216
18267TIP3    H276293   3.517   1.699  10.743 -0.3523  0.6114 -0.2012
18268TIP3   OH276294   2.896   4.739   0.516  0.7857 -0.0657 -0.4091
18268TIP3    H176295   2.812   4.699   0.539  1.4393 -0.6365  1.0163
18268TIP3    H276296   2.893   4.747   0.421  0.9714 -4.2847 -0.8764
18269TIP3   OH276297   3.142   5.345   4.081 -0.5133 -0.2189  0.7578
18269TIP3    H176298   3.051   5.330   4.108 -1.1636 -0.4000 -1.4193
18269TIP3    H276299   3.170   5.261   4.045  0.2465  0.0863  0.6363
18270TIP3   OH276300   3.882   3.547   5.771 -0.3004  0.0409 -0.7342
18270TIP3    H176301   3.900   3.582   5.858 -1.2873  0.5488 -0.7193
18270TIP3    H276302   3.880   3.624   5.714 -1.0314 -0.1353 -0.9601
18271TIP3   OH276303   4.776   6.297  16.510  0.0748  0.1957  0.0207
18271TIP3    H176304   4.684   6.320  16.494 -0.0014  0.1164  0.3448
18271TIP3    H276305   4.799   6.343  16.590 -0.3159 -1.4460  1.1063
18272TIP3   OH276306   2.884   3.991  11.331 -0.6802 -0.2745 -0.1965
18272TIP3    H176307   2.842   3.924  11.385 -0.5482 -0.4958 -0.3662
18272TIP3    H276308   2.946   4.033  11.390 -0.4090 -0.6363 -0.2213
18273TIP3   OH276309   1.649   4.658  12.295  0.0975  0.1706 -0.2868
18273TIP3    H176310   1.595   4.579  12.298 -0.3665  0.4991  0.3269
18273TIP3    H276311   1.700   4.650  12.215  0.9483 -1.3393  0.3787
18274TIP3   OH276312   1.060   0.254   0.092 -0.1115  0.1890 -0.2067
18274TIP3    H176313   1.111   0.335   0.092  1.0983 -0.5677 -0.5125
18274TIP3    H276314   1.114   0.191   0.045 -2.2816 -0.0441 -2.5058
18275TIP3   OH276315   4.178   5.870   1.763  0.0806 -0.1582 -0.4202
18275TIP3    H176316   4.210   5.809   1.696  1.3996  1.1345 -1.0012
18275TIP3    H276317   4.193   5.825   1.846 -1.3542 -1.6830 -0.9669
18276TIP3   OH276318   6.405   0.636   6.322  0.3199  0.2956  0.4886
18276TIP3    H176319   6.312   0.658   6.316  0.2580  0.2227  1.1898
18276TIP3    H276320   6.449   0.720   6.336  0.2078  0.1481  1.7868
18277TIP3   OH276321   1.797   2.397   1.443 -0.0772 -0.8244  0.1653
18277TIP3    H176322   1.834   2.334   1.504 -2.5056 -1.1236  1.3811
18277TIP3    H276323   1.860   2.401   1.371  1.1579 -2.9867  1.0971
18278TIP3   OH276324   3.911   2.469   3.530  0.1976 -0.1149  0.8407
18278TIP3    H176325   3.838   2.517   3.569 -0.1840  0.1954 -0.2504
18278TIP3    H276326   3.876   2.382   3.512 -0.2381  0.3520 -0.6655
18279TIP3   OH276327   6.022   1.136  15.539 -0.1975 -0.5112  0.0652
18279TIP3    H176328   6.073   1.104  15.465 -1.5256 -1.8349 -0.3152
18279TIP3    H276329   6.059   1.090  15.615 -0.8793 -1.5777 -0.2278
18280TIP3   OH276330   3.782   6.483   3.571 -0.1933  0.1345  0.3183
18280TIP3    H176331   3.850   6.536   3.613 -1.2913  2.2884 -0.5317
18280TIP3    H276332   3.787   6.507   3.478 -1.4059 -0.4985  0.0837
18281TIP3   OH276333   5.002   6.373  11.551 -0.1020  1.1200 -0.0513
18281TIP3    H176334   4.944   6.299  11.531  1.3886  0.3233 -1.5288
18281TIP3    H276335   4.991   6.386  11.645 -1.4383 -0.0872 -0.0121
18282TIP3   OH276336   4.569   2.005   3.342  0.0809  0.3024  0.0039
18282TIP3    H176337   4.640   2.011   3.277  0.0951 -2.6949 -0.3292
18282TIP3    H276338   4.612   2.028   3.425  0.3595  2.9129 -0.8286
18283TIP3   OH276339   3.737   2.499  11.605  0.0132  0.0135 -0.3092
18283TIP3    H176340   3.772   2.411  11.617  0.3709 -0.0985 -2.0507
18283TIP3    H276341   3.736   2.537  11.693  1.6245 -1.0709  0.1873
18284TIP3   OH276342   1.838   5.152   1.497  0.1517 -0.2309  0.1577
18284TIP3    H176343   1.866   5.160   1.405  1.8296  0.7781  0.7353
18284TIP3    H276344   1.881   5.072   1.528  2.8232  1.5190  1.1519
18285TIP3   OH276345   0.508   1.353  15.572 -0.0775  0.4468  0.1354
18285TIP3    H176346   0.594   1.371  15.534  0.4190 -0.6148  0.7250
18285TIP3    H276347   0.508   1.258  15.585 -1.1305  0.5171  0.6496
18286TIP3   OH276348   2.947   3.738  15.736  0.4057 -0.3706 -0.0692
18286TIP3    H176349   2.877   3.719  15.673  0.7624  0.4737 -0.7239
18286TIP3    H276350   2.918   3.818  15.779  0.6315 -0.4166  0.1656
18287TIP3   OH276351   5.467   6.082   5.259  0.0162  0.0043  0.6497
18287TIP3    H176352   5.506   6.052   5.177  0.3916  0.6400  0.5924
18287TIP3    H276353   5.379   6.109   5.235 -0.0942 -0.4226  0.5769
18288TIP3   OH276354   2.405   3.253   5.782  0.4605  0.4171 -0.3920
18288TIP3    H176355   2.389   3.189   5.852 -1.3872  1.5368  0.2275
18288TIP3    H276356   2.438   3.331   5.827  1.0857  0.5011 -0.9785
18289TIP3   OH276357   5.983   3.890   4.886 -0.5376  0.2475  0.1990
18289TIP3    H176358   5.937   3.811   4.917  0.1671 -0.5266 -0.7095
18289TIP3    H276359   6.068   3.887   4.930 -1.3587  1.7444  1.9711
18290TIP3   OH276360   5.083   1.930  12.144  0.1146 -0.0974  0.3213
18290TIP3    H176361   5.138   1.852  12.150  0.0330 -0.1806  0.0194
18290TIP3    H276362   5.065   1.954  12.234  0.2239 -0.3718  0.4166
18291TIP3   OH276363   6.693   0.708   7.011  0.2949  0.0004  0.2617
18291TIP3    H176364   6.640   0.630   7.029  1.3644 -0.4745  1.3932
18291TIP3    H276365   6.654   0.777   7.064 -0.3003  0.0974 -0.3005
18292TIP3   OH276366   0.684   0.591  12.745 -0.0735  0.4352  0.3130
18292TIP3    H176367   0.730   0.658  12.694 -0.2402  0.0515 -0.3544
18292TIP3    H276368   0.591   0.607  12.728 -0.1358  0.3977  0.6162
18293TIP3   OH276369   4.331   2.443  11.869  0.3046  0.3902 -0.8439
18293TIP3    H176370   4.329   2.433  11.964 -0.8850  2.5087 -0.6180
18293TIP3    H276371   4.420   2.418  11.844  0.7500  0.2106  0.8827
18294TIP3   OH276372   4.931   3.878   3.976 -0.1873 -0.4694 -0.0558
18294TIP3    H176373   4.885   3.960   3.993  0.9502  0.4410 -1.2487
18294TIP3    H276374   4.921   3.864   3.882 -0.9694 -2.0910  0.2383
18295TIP3   OH276375   0.124   2.634  12.327 -0.3497 -0.3308  0.0029
18295TIP3    H176376   0.060   2.570  12.294 -1.5368 -0.1394  1.8425
18295TIP3    H276377   0.115   2.709  12.269 -1.4403 -0.5163 -0.0797
18296TIP3   OH276378   0.624   5.214   3.233  0.1981  0.0799 -0.0799
18296TIP3    H176379   0.697   5.222   3.295  0.3541 -3.7356  0.3826
18296TIP3    H276380   0.574   5.295   3.244  1.8546  0.7889  2.9090
18297TIP3   OH276381   1.280   5.984  13.303  0.3432  0.6705  0.0920
18297TIP3    H176382   1.241   6.067  13.279 -1.3683 -0.6609 -1.9000
18297TIP3    H276383   1.233   5.956  13.382  0.9268  1.5743  0.7662
18298TIP3   OH276384   2.308   4.226   4.459 -0.3016 -0.1099 -0.0039
18298TIP3    H176385   2.332   4.231   4.552  2.3235  4.0989 -0.7794
18298TIP3    H276386   2.377   4.174   4.418 -0.3067 -0.1626  0.0546
18299TIP3   OH276387   2.569   0.091  10.535  0.1587 -0.3313  0.7838
18299TIP3    H176388   2.503   0.084  10.604  1.2744 -0.3651  1.8563
18299TIP3    H276389   2.537   0.161  10.478 -0.0438  0.6742  2.1195
18300TIP3   OH276390   4.630   6.423  11.172  0.3362 -0.2096  0.0536
18300TIP3    H176391   4.701   6.486  11.170  0.1375  0.1334  1.9816
18300TIP3    H276392   4.671   6.339  11.151  0.8553  0.3520 -1.1807
18301TIP3   OH276393   0.563   3.887   2.512  0.0360  0.3095 -0.0200
18301TIP3    H176394   0.485   3.894   2.568 -0.1254  3.2565 -0.5142
18301TIP3    H276395   0.635   3.876   2.573 -0.6190 -1.2253  0.5054
18302TIP3   OH276396   5.405   6.071  15.390  0.6826  0.5014  0.2715
18302TIP3    H176397   5.318   6.057  15.429 -0.3136  2.5214 -1.0977
18302TIP3    H276398   5.453   6.121  15.455  0.0585  1.2472  0.1698
18303TIP3   OH276399   0.304   2.278  10.538 -0.2287  0.1912 -0.0405
18303TIP3    H176400   0.237   2.337  10.572  1.0505  1.2692  0.6313
18303TIP3    H276401   0.275   2.258  10.449 -0.8539  1.5187 -0.1405
18304TIP3   OH276402   5.803   0.210  12.817  0.0989  0.1172  0.2594
18304TIP3    H176403   5.769   0.281  12.763  0.1727  0.0486  0.1226
18304TIP3    H276404   5.744   0.137  12.802  0.8116 -0.2754 -0.6632
18305TIP3   OH276405   4.542   4.293  12.959  0.4545 -0.1273  0.1803
18305TIP3    H176406   4.613   4.231  12.980  1.4815  1.0382  0.2302
18305TIP3    H276407   4.587   4.369  12.923 -0.9328 -0.1071 -1.5818
18306TIP3   OH276408   0.733   3.244  10.375 -0.1932 -0.2427 -0.0323
18306TIP3    H176409   0.654   3.204  10.410  0.6282 -2.4128 -0.5694
18306TIP3    H276410   0.703   3.303  10.307 -1.3997 -0.5223  0.2480
18307TIP3   OH276411   2.440   0.336  11.202  0.6007  0.4579 -0.3902
18307TIP3    H176412   2.449   0.410  11.141  1.3600 -0.3167 -1.2217
18307TIP3    H276413   2.448   0.258  11.147  0.3491 -0.2556  0.5677
18308TIP3   OH276414   4.824   5.977   5.822  0.3056  0.5093  0.0614
18308TIP3    H176415   4.790   6.066   5.824 -0.4363  0.2837 -1.5930
18308TIP3    H276416   4.745   5.922   5.812  0.9499 -0.1615 -1.5398
18309TIP3   OH276417   0.524   1.425  13.130 -0.7991  0.4320 -0.0040
18309TIP3    H176418   0.568   1.361  13.187 -0.1156  1.7943  1.0417
18309TIP3    H276419   0.479   1.372  13.064  0.1007 -1.1055  0.5877
18310TIP3   OH276420   0.709   3.550  11.500 -0.2626 -0.4172 -0.6215
18310TIP3    H176421   0.629   3.549  11.447 -0.0553 -0.4161 -0.9282
18310TIP3    H276422   0.702   3.630  11.552 -0.5045 -0.4626 -0.5821
18311TIP3   OH276423   2.381   1.439  16.175  0.3923 -0.5078  0.0001
18311TIP3    H176424   2.333   1.418  16.096 -0.3454  1.6269 -0.1466
18311TIP3    H276425   2.314   1.458  16.240  1.0082  0.1054  0.4699
18312TIP3   OH276426   0.924   5.266   4.212  0.1709  0.3903  0.2082
18312TIP3    H176427   0.839   5.230   4.184  0.5206  0.1628 -0.5758
18312TIP3    H276428   0.983   5.191   4.209  0.8465  0.9631 -1.1835
18313TIP3   OH276429   5.092   2.051   0.737  0.3732  0.0726 -0.1195
18313TIP3    H176430   5.067   2.111   0.667  2.6396 -1.4000 -2.2554
18313TIP3    H276431   5.127   2.109   0.806 -1.7121  1.5110 -0.2361
18314TIP3   OH276432   2.710   5.624  12.102  0.2017  0.0661  0.0394
18314TIP3    H176433   2.689   5.555  12.039 -2.1448 -0.4155  1.2573
18314TIP3    H276434   2.759   5.688  12.052 -0.8938 -0.6848 -2.0904
18315TIP3   OH276435   5.278   5.602   0.991  0.1397 -0.2387  0.5679
18315TIP3    H176436   5.355   5.570   0.943  0.1794  1.3190 -0.4374
18315TIP3    H276437   5.314   5.649   1.066  0.2147  1.0916 -0.2803
18316TIP3   OH276438   1.296   0.017  11.428  0.0305  0.4097 -0.3386
18316TIP3    H176439   1.325  -0.055  11.372  1.4348 -0.7828  1.8444
18316TIP3    H276440   1.226  -0.022  11.481 -0.3785  1.1376 -0.3397
18317TIP3   OH276441   1.528   1.493  11.268  0.3175  0.0127  0.0955
18317TIP3    H176442   1.554   1.506  11.177  1.0437  1.2257  0.4691
18317TIP3    H276443   1.434   1.512  11.269  0.6455  1.6829 -0.0770
18318TIP3   OH276444   5.426   2.307   0.577 -0.1492  0.0053 -0.2723
18318TIP3    H176445   5.503   2.260   0.545 -0.7264 -2.7209  2.1565
18318TIP3    H276446   5.366   2.306   0.503  0.7961 -0.9707 -1.0491
18319TIP3   OH276447   3.788   3.053  12.543 -0.1957  0.7817  0.2004
18319TIP3    H176448   3.871   3.090  12.574 -0.1227  1.6630 -1.0309
18319TIP3    H276449   3.800   2.959  12.550  1.4233  0.8627 -1.2776
18320TIP3   OH276450   0.330   4.399  14.724  0.4735 -0.0702  0.2548
18320TIP3    H176451   0.394   4.446  14.670 -1.3570 -0.1293 -2.0803
18320TIP3    H276452   0.328   4.311  14.687 -0.3856 -0.2967  0.8316
18321TIP3   OH276453   0.349   0.444   1.212 -0.0958 -0.1079  0.3852
18321TIP3    H176454   0.319   0.354   1.197  0.4835 -0.0703 -1.0677
18321TIP3    H276455   0.424   0.454   1.153 -0.3506  1.4176  0.3184
18322TIP3   OH276456   5.214   0.662   1.178 -0.0548  0.1037 -0.3551
18322TIP3    H176457   5.161   0.740   1.193 -0.5374 -0.3027  0.0935
18322TIP3    H276458   5.200   0.640   1.086 -0.5693  0.0737 -0.2707
18323TIP3   OH276459   6.808   3.125  11.869 -0.5378  0.0918 -0.3698
18323TIP3    H176460   6.835   3.058  11.806  0.5962 -0.2162  0.4267
18323TIP3    H276461   6.717   3.103  11.891 -0.2223 -1.0723 -0.2455
18324TIP3   OH276462   3.825   2.267  16.331 -0.5430  0.4471 -0.0104
18324TIP3    H176463   3.849   2.272  16.424  1.3550 -0.4580 -0.4373
18324TIP3    H276464   3.858   2.348  16.293  2.2083 -0.9463 -0.6652
18325TIP3   OH276465   5.909   4.899   3.898 -0.1732  0.5755 -0.1441
18325TIP3    H176466   5.964   4.828   3.865  1.2780  1.9091 -0.6455
18325TIP3    H276467   5.872   4.940   3.820  1.5478  2.3756 -0.0469
18326TIP3   OH276468   5.243   1.220  14.698 -0.1556 -0.7433  0.2494
18326TIP3    H176469   5.201   1.171  14.628  1.6143 -2.0830  0.0676
18326TIP3    H276470   5.295   1.154  14.745 -0.6533  0.2829  2.3162
18327TIP3   OH276471   6.290   3.756   5.001  0.0798  0.0725 -0.3404
18327TIP3    H176472   6.361   3.788   5.057 -0.3108  1.3304 -0.5405
18327TIP3    H276473   6.303   3.802   4.917 -2.0301  1.7620  0.2057
18328TIP3   OH276474   5.904   0.426  13.172  0.4224 -0.2669 -0.1595
18328TIP3    H176475   5.978   0.376  13.135 -1.4509 -3.5075  0.2870
18328TIP3    H276476   5.845   0.439  13.099  0.3933  0.3081 -0.0309
18329TIP3   OH276477   4.716   1.204   4.484 -0.3441 -0.2443 -0.3355
18329TIP3    H176478   4.640   1.256   4.457 -0.3464 -0.2445 -0.3299
18329TIP3    H276479   4.693   1.173   4.572 -1.0100 -1.5459 -0.9454
18330TIP3   OH276480   3.732   0.173  15.845  0.4113  0.1022  0.0709
18330TIP3    H176481   3.641   0.151  15.860  0.3157  0.2747 -0.2393
18330TIP3    H276482   3.768   0.097  15.799 -0.5986  1.6228 -3.4412
18331TIP3   OH276483   5.278   4.026  17.122 -0.5927  0.0249 -0.0903
18331TIP3    H176484   5.314   4.095  17.067 -2.1109  0.8253 -0.1015
18331TIP3    H276485   5.209   4.069  17.172 -2.0706 -1.6433 -0.6630
18332TIP3   OH276486   0.862   1.498  13.254  0.0957 -0.0224 -0.5674
18332TIP3    H176487   0.788   1.442  13.276 -0.0387 -0.1805 -1.4064
18332TIP3    H276488   0.911   1.450  13.187  1.7286 -0.5290  0.9591
18333TIP3   OH276489   5.591   5.390   2.630  0.6845 -0.1782  0.4753
18333TIP3    H176490   5.548   5.474   2.619  1.2981  0.2529  1.2798
18333TIP3    H276491   5.595   5.377   2.725  1.2650 -0.7545  0.3811
18334TIP3   OH276492   3.240   0.793   4.704 -0.4554  0.1302 -0.1678
18334TIP3    H176493   3.210   0.883   4.689  0.8821  0.7707  0.7983
18334TIP3    H276494   3.206   0.771   4.790 -0.9010 -0.3470 -0.4656
18335TIP3   OH276495   3.546   5.511  12.586  0.3318 -0.1117 -0.0361
18335TIP3    H176496   3.536   5.464  12.503 -2.4129  0.9838 -0.4146
18335TIP3    H276497   3.492   5.462  12.648  1.4300 -0.2614  0.7972
18336TIP3   OH276498   1.989   4.047   4.980  0.3938  0.8303  0.3330
18336TIP3    H176499   2.040   4.083   5.052  0.1512  0.9262  0.4577
18336TIP3    H276500   1.916   4.001   5.022 -0.7598  2.4244  0.1077
18337TIP3   OH276501   4.806   4.080   2.222  0.0353  1.0118  0.6074
18337TIP3    H176502   4.850   4.150   2.174 -0.2090  2.1752  2.0163
18337TIP3    H276503   4.861   4.065   2.299 -0.8788  0.9732  1.2657
18338TIP3   OH276504   3.675   6.066  11.667  0.3979 -0.2877 -0.3501
18338TIP3    H176505   3.635   6.048  11.752 -1.5265  0.9832 -0.9337
18338TIP3    H276506   3.754   6.116  11.688  0.8620 -1.4878  0.7704
18339TIP3   OH276507   1.643   1.950   3.108  0.7526 -0.2641 -0.3071
18339TIP3    H176508   1.676   2.032   3.145  1.3252 -0.1849 -0.9724
18339TIP3    H276509   1.592   1.910   3.178 -0.6732  1.3236 -0.4074
18340TIP3   OH276510   4.794   0.815   0.108 -0.0140 -0.1561 -0.1228
18340TIP3    H176511   4.700   0.803   0.121 -0.0100  0.4169  0.4355
18340TIP3    H276512   4.823   0.733   0.068 -0.7672 -0.3004 -0.3820
18341TIP3   OH276513   2.005   5.173   2.046 -0.8414  0.4774  0.1551
18341TIP3    H176514   2.015   5.251   1.991  2.1591  0.6343  0.8531
18341TIP3    H276515   2.061   5.107   2.006 -1.7506 -0.6819  0.7500
18342TIP3   OH276516   1.277   5.823  16.679 -0.3130  0.0217  0.1484
18342TIP3    H176517   1.369   5.809  16.654 -0.7638  0.0876 -1.6832
18342TIP3    H276518   1.276   5.814  16.774  1.3626 -1.3072  0.0777
18343TIP3   OH276519   2.094   4.265  16.900  0.2632  0.3005 -0.1407
18343TIP3    H176520   2.017   4.208  16.897  0.2584  0.1717  1.9039
18343TIP3    H276521   2.143   4.242  16.821 -0.3910 -1.6330 -0.0168
18344TIP3   OH276522   2.975   2.960   4.344 -0.0945  0.6658 -0.5604
18344TIP3    H176523   2.960   2.900   4.416  2.2158 -0.7216 -1.1854
18344TIP3    H276524   3.070   2.965   4.336 -0.2412  4.0828 -0.8113
18345TIP3   OH276525   2.602   0.819   4.832 -0.6424  0.1083  0.9525
18345TIP3    H176526   2.684   0.788   4.869 -1.5371  0.6170  3.4188
18345TIP3    H276527   2.548   0.740   4.824 -0.2066 -0.1094  0.0093
18346TIP3   OH276528   4.391   4.223  12.494  0.8084 -0.0901 -0.0970
18346TIP3    H176529   4.452   4.228  12.420  2.0228 -0.5043  0.8532
18346TIP3    H276530   4.404   4.306  12.541  0.9156 -0.3287  0.3042
18347TIP3   OH276531   5.029   3.587   1.932 -0.3487  0.3562  0.3293
18347TIP3    H176532   5.053   3.653   1.866  0.0467  2.1255  2.1835
18347TIP3    H276533   5.003   3.511   1.881  4.7704 -0.1087 -1.8671
18348TIP3   OH276534   2.631   4.149  11.483 -0.1596 -0.0018 -0.0434
18348TIP3    H176535   2.628   4.062  11.445 -2.5672  0.8306 -1.8603
18348TIP3    H276536   2.720   4.157  11.519  1.1572 -1.9813 -2.7163
18349TIP3   OH276537   0.114   2.840  16.074  0.2507 -0.3049  0.2878
18349TIP3    H176538   0.151   2.892  16.002  1.3458  0.6427  1.5161
18349TIP3    H276539   0.151   2.752  16.061  0.4661 -0.1340 -0.2839
18350TIP3   OH276540   1.364   4.664  15.123 -0.2227  0.7562  0.4859
18350TIP3    H176541   1.453   4.696  15.137  0.0344  0.0276  0.5087
18350TIP3    H276542   1.333   4.714  15.047  0.5873  0.2496 -0.1928
18351TIP3   OH276543   5.643   1.207   4.913 -0.3274 -0.2417  0.4100
18351TIP3    H176544   5.703   1.239   4.980 -2.8496 -1.2207  3.1954
18351TIP3    H276545   5.559   1.196   4.957 -2.4129  0.2400 -3.1892
18352TIP3   OH276546   2.581   1.443   4.998 -0.2361 -0.1440  0.1205
18352TIP3    H176547   2.626   1.381   5.056  1.3147 -0.3609 -1.2781
18352TIP3    H276548   2.554   1.514   5.056  0.4853 -0.7843  1.2700
18353TIP3   OH276549   2.910   5.758   0.474  0.4825 -0.4145 -0.3273
18353TIP3    H176550   2.900   5.849   0.502 -0.6942 -0.2661 -1.2035
18353TIP3    H276551   2.961   5.763   0.394  3.6662 -0.8246  1.6002
18354TIP3   OH276552   6.253   2.068  16.761  0.3369  0.0496 -0.4112
18354TIP3    H176553   6.235   2.110  16.846  0.2533 -2.4806  0.8785
18354TIP3    H276554   6.329   2.114  16.727  0.4127  1.0701  1.0758
18355TIP3   OH276555   5.209   1.228  16.551 -0.3249 -0.1361 -0.0580
18355TIP3    H176556   5.219   1.150  16.604  0.2237  0.0110  0.0541
18355TIP3    H276557   5.287   1.281  16.570  0.7815 -0.8684 -2.3354
18356TIP3   OH276558   3.595   2.090   1.694  0.4598 -0.3573  0.3561
18356TIP3    H176559   3.537   2.016   1.706  1.3285 -0.8102  1.9399
18356TIP3    H276560   3.564   2.156   1.755 -0.7143  0.8678 -1.5082
18357TIP3   OH276561   1.221   2.835  14.314  0.4196 -0.1559  0.2858
18357TIP3    H176562   1.220   2.744  14.285  1.4213 -0.1164  0.0982
18357TIP3    H276563   1.308   2.847  14.352  0.5869  0.9349 -0.4040
18358TIP3   OH276564   0.427   5.537   5.919 -0.3218  0.1613  0.4963
18358TIP3    H176565   0.513   5.518   5.882 -0.7066 -1.2336  0.2470
18358TIP3    H276566   0.440   5.537   6.013  0.3173  1.8995  0.4181
18359TIP3   OH276567   0.453   3.582   0.592 -0.3288  0.1079 -0.5427
18359TIP3    H176568   0.542   3.615   0.601 -0.0412 -0.9530  0.7024
18359TIP3    H276569   0.460   3.489   0.613 -1.7992  0.1090  0.0069
18360TIP3   OH276570   2.338   3.271  11.927 -0.1481 -1.2400 -0.3615
18360TIP3    H176571   2.329   3.271  12.022 -3.4473  0.8079 -0.6192
18360TIP3    H276572   2.369   3.182  11.906  0.8131 -1.6426  2.5999
18361TIP3   OH276573   4.033   0.698   4.138  0.6085  0.4559 -0.1957
18361TIP3    H176574   4.090   0.749   4.080 -0.5726  0.9751 -0.9269
18361TIP3    H276575   3.993   0.764   4.195  1.9844 -0.0803  1.4233
18362TIP3   OH276576   2.096   1.945   3.564 -0.2916  0.3761 -0.2930
18362TIP3    H176577   2.155   1.882   3.522 -1.0895  0.2576 -1.2677
18362TIP3    H276578   2.043   1.891   3.623 -1.3828  0.0133 -1.5716
18363TIP3   OH276579   6.719   0.882  13.221 -0.4616  0.5415  0.3467
18363TIP3    H176580   6.684   0.892  13.133 -3.6045  1.4971  1.6455
18363TIP3    H276581   6.685   0.797  13.251  0.0096  0.5436  0.9038
18364TIP3   OH276582   4.710   5.151   1.342 -0.2716  0.1615  0.0403
18364TIP3    H176583   4.629   5.202   1.342 -0.6612 -0.4494 -0.3544
18364TIP3    H276584   4.712   5.110   1.428 -3.1417 -4.1057 -1.7735
18365TIP3   OH276585   0.827   3.850   4.499 -0.7110 -0.3313 -0.1036
18365TIP3    H176586   0.821   3.810   4.586 -0.1272 -0.4324 -0.1146
18365TIP3    H276587   0.874   3.787   4.445  0.6490  0.5639  0.0103
18366TIP3   OH276588   2.180   2.289  14.048  0.2406  0.2299 -0.1925
18366TIP3    H176589   2.164   2.249  13.963  0.4098  0.2483 -0.2326
18366TIP3    H276590   2.191   2.215  14.108  0.1814  0.2167 -0.1976
18367TIP3   OH276591   4.784   6.738  12.703 -0.3143  0.0020  0.1156
18367TIP3    H176592   4.763   6.646  12.714 -0.8370  0.1268  0.1835
18367TIP3    H276593   4.865   6.751  12.754 -0.9384 -0.1329  1.1585
18368TIP3   OH276594   4.153   3.734  13.032 -0.0665  0.4578  0.1499
18368TIP3    H176595   4.063   3.708  13.014  0.2748  0.9818 -2.4711
18368TIP3    H276596   4.157   3.826  13.006  1.5219  0.1104 -0.9024
18369TIP3   OH276597   1.330   0.661   2.877 -0.0113  0.3645 -0.1905
18369TIP3    H176598   1.409   0.712   2.893  0.1124 -0.0407  0.5219
18369TIP3    H276599   1.344   0.579   2.925 -0.1034 -0.4442 -1.5020
18370TIP3   OH276600   1.359   3.326  16.139 -0.3717  1.0144  0.0547
18370TIP3    H176601   1.391   3.292  16.055 -1.4036  0.1900 -0.0209
18370TIP3    H276602   1.331   3.416  16.119 -0.8470  0.7377 -0.5542
18371TIP3   OH276603   2.027   0.028   0.574 -0.4138 -0.3092 -0.2687
18371TIP3    H176604   1.967   0.043   0.647 -0.2032 -1.0042  0.0506
18371TIP3    H276605   2.103   0.084   0.593 -0.0756 -0.9843  0.3861
18372TIP3   OH276606   0.231   2.955  14.107 -0.5417  0.4096 -0.2234
18372TIP3    H176607   0.286   2.997  14.172  0.7531  0.2414 -1.1886
18372TIP3    H276608   0.179   2.891  14.156  1.1592 -0.4382  0.5119
18373TIP3   OH276609   6.316   2.143   5.829  0.2545 -0.4986 -0.8687
18373TIP3    H176610   6.287   2.055   5.804  0.8234 -1.2630  1.0843
18373TIP3    H276611   6.234   2.192   5.840 -0.1655 -1.3555  0.0045
18374TIP3   OH276612   6.747   1.731  14.333  0.0556 -0.1765 -0.1424
18374TIP3    H176613   6.697   1.735  14.252 -0.0265 -0.5615 -0.1112
18374TIP3    H276614   6.685   1.698  14.398 -0.6423  2.6470  0.6787
18375TIP3   OH276615   3.850   4.767  13.192 -0.0005 -0.8056 -0.5904
18375TIP3    H176616   3.937   4.741  13.160  0.4354 -0.1132 -0.0031
18375TIP3    H276617   3.862   4.858  13.221  0.2768 -2.1857  3.9553
18376TIP3   OH276618   2.120   4.081  11.816 -0.1039  0.8286  0.4599
18376TIP3    H176619   2.210   4.098  11.788  0.3786 -1.7023  0.3224
18376TIP3    H276620   2.129   4.035  11.900 -1.3823  3.0998  1.9180
18377TIP3   OH276621   6.562   1.334   2.814  0.6005 -0.2161  0.6342
18377TIP3    H176622   6.557   1.427   2.835  2.4507 -0.7045  3.4432
18377TIP3    H276623   6.636   1.327   2.754  0.8410  0.0525  0.8996
18378TIP3   OH276624   5.738   0.478   0.938  0.0643 -0.2639  0.3420
18378TIP3    H176625   5.746   0.520   1.024  1.1465 -0.4108  0.3245
18378TIP3    H276626   5.706   0.390   0.958 -0.3200 -0.0779  0.5416
18379TIP3   OH276627   6.088   4.428   4.945  0.6191 -0.9525 -0.2981
18379TIP3    H176628   6.009   4.464   4.903  1.3440 -1.7755 -2.4289
18379TIP3    H276629   6.151   4.500   4.943  0.7302 -1.0585 -0.8784
18380TIP3   OH276630   3.132   5.446  15.946 -0.0174  0.9518 -0.4660
18380TIP3    H176631   3.074   5.521  15.933 -1.7569 -0.3534 -0.4236
18380TIP3    H276632   3.076   5.377  15.981  1.1913 -0.8971 -2.0345
18381TIP3   OH276633   3.137   4.634   3.462  0.2897  0.3728  0.5171
18381TIP3    H176634   3.208   4.573   3.438  0.6362  1.2174 -0.6381
18381TIP3    H276635   3.083   4.640   3.383  0.5054  1.9002  0.4800
18382TIP3   OH276636   6.145   3.112  11.121 -0.1985  0.6834  0.2447
18382TIP3    H176637   6.139   3.155  11.036  0.1174 -0.9776 -0.6263
18382TIP3    H276638   6.229   3.141  11.157 -0.4753  1.6323  0.1484
18383TIP3   OH276639   1.017   2.353   0.617  0.4562 -0.4426  0.2694
18383TIP3    H176640   1.017   2.289   0.688 -1.2028  0.0602  0.7505
18383TIP3    H276641   1.088   2.414   0.638  1.2814 -1.4459  0.4202
18384TIP3   OH276642   3.024   5.433  13.058 -0.1233 -0.2726 -0.1757
18384TIP3    H176643   2.955   5.442  13.124  1.7384 -1.7450  2.0328
18384TIP3    H276644   3.043   5.522  13.031 -1.3954  0.3053  0.7686
18385TIP3   OH276645   0.343   2.176   0.850 -0.0095  0.2949  0.2237
18385TIP3    H176646   0.304   2.226   0.778  0.8465 -0.4156 -0.7484
18385TIP3    H276647   0.427   2.218   0.867  0.6901 -0.7478 -0.5610
18386TIP3   OH276648   0.670   5.804  13.165 -0.1953  0.5117 -0.0489
18386TIP3    H176649   0.593   5.815  13.221  0.5369  1.1624  0.8536
18386TIP3    H276650   0.712   5.891  13.164  0.8301  0.0280 -0.0699
18387TIP3   OH276651   2.321   1.931   2.689 -0.2053  0.1243  0.1579
18387TIP3    H176652   2.284   1.872   2.755  1.4354 -0.6091  0.4481
18387TIP3    H276653   2.330   2.014   2.735 -3.6646  0.9960 -0.6020
18388TIP3   OH276654   3.803   1.311  16.331 -0.1857  0.3855 -0.2814
18388TIP3    H176655   3.866   1.383  16.345  1.8480 -1.3776 -0.1003
18388TIP3    H276656   3.807   1.293  16.237 -1.6639  1.3469 -0.5409
18389TIP3   OH276657   3.015   0.468   1.992  0.2154 -0.8239 -0.2902
18389TIP3    H176658   3.036   0.375   2.002 -1.1926 -0.9223  2.3424
18389TIP3    H276659   3.081   0.501   1.933  3.1890 -2.6878  1.8528
18390TIP3   OH276660   0.470   4.441  16.657 -0.2775  0.2292 -0.1155
18390TIP3    H176661   0.438   4.475  16.573 -0.0610 -0.8217 -0.6277
18390TIP3    H276662   0.504   4.518  16.703 -1.1004  0.9266 -0.6749
18391TIP3   OH276663   5.087   0.225   0.377 -0.2951  0.4911  0.0953
18391TIP3    H176664   5.171   0.237   0.333  0.5552  0.3080  1.6594
18391TIP3    H276665   5.045   0.311   0.371  0.4932  0.8967  0.3246
18392TIP3   OH276666   5.024   4.076   1.406 -0.4932 -0.0237 -0.0497
18392TIP3    H176667   4.999   4.160   1.367 -0.8418  0.1721  0.5892
18392TIP3    H276668   5.037   4.018   1.331  1.2399  0.9998 -0.5561
18393TIP3   OH276669   0.496   0.206  13.985 -0.0130  0.5772 -0.6941
18393TIP3    H176670   0.525   0.220  13.895 -1.3172 -1.4990 -1.4816
18393TIP3    H276671   0.401   0.208  13.981 -0.0899  0.1484  0.5608
18394TIP3   OH276672   3.388   0.660   0.107  0.8567 -0.2951 -0.5262
18394TIP3    H176673   3.474   0.692   0.078  0.1545  0.3463 -1.9984
18394TIP3    H276674   3.389   0.566   0.087  0.7346 -0.0352 -1.7975
18395TIP3   OH276675   4.859   2.319   1.517  0.5678 -0.0115  0.2309
18395TIP3    H176676   4.926   2.384   1.539  1.6454 -0.6689 -0.9955
18395TIP3    H276677   4.900   2.265   1.450 -2.0953  1.0736 -2.3863
18396TIP3   OH276678   4.855   3.912   2.006  0.1650 -0.3768 -0.0162
18396TIP3    H176679   4.940   3.934   1.968 -0.2791 -0.5213 -1.1119
18396TIP3    H276680   4.852   3.959   2.089  0.3927  1.4107 -1.0140
18397TIP3   OH276681   6.395   2.386   1.367 -0.2005 -0.1524 -0.7111
18397TIP3    H176682   6.435   2.385   1.280  1.1787 -2.6064 -0.1144
18397TIP3    H276683   6.326   2.320   1.363  0.4928 -0.9759  0.2833
18398TIP3   OH276684   3.449   2.451   1.812 -0.5550 -0.0305  0.0976
18398TIP3    H176685   3.512   2.401   1.863  0.8277  0.6715 -0.8795
18398TIP3    H276686   3.484   2.449   1.723 -2.6438 -0.7948 -0.7498
18399TIP3   OH276687   3.772   2.785  14.165 -0.5110  0.6153 -0.7374
18399TIP3    H176688   3.788   2.796  14.071 -0.5489  1.1079 -0.6848
18399TIP3    H276689   3.827   2.711  14.190 -0.5265  0.4597 -1.1547
18400TIP3   OH276690   3.421   5.229  16.249 -0.3882  0.4794 -0.4960
18400TIP3    H176691   3.430   5.242  16.155  0.2701 -1.8151 -0.7761
18400TIP3    H276692   3.368   5.304  16.279 -1.5219  0.6505 -2.8446
18401TIP3   OH276693   3.368   3.868  10.433  0.0439  0.1244  0.2618
18401TIP3    H176694   3.396   3.816  10.508  0.8078  2.4305  1.6022
18401TIP3    H276695   3.296   3.922  10.465 -1.4243 -0.7984 -1.3855
18402TIP3   OH276696   4.767   2.797   2.252  0.0630  0.4498  0.0784
18402TIP3    H176697   4.711   2.738   2.202  0.2283  1.6056 -1.5036
18402TIP3    H276698   4.722   2.806   2.337 -0.3629 -1.2998  0.0486
18403TIP3   OH276699   5.238   2.005   5.605 -0.3844 -0.2430  0.1066
18403TIP3    H176700   5.280   1.930   5.646 -1.6026 -1.2013 -0.3806
18403TIP3    H276701   5.177   2.037   5.671  1.0436  1.1333  0.8036
18404TIP3   OH276702   3.639   5.335   1.211  0.4018  0.2195  0.2973
18404TIP3    H176703   3.552   5.347   1.249  0.5866 -1.0527  1.1596
18404TIP3    H276704   3.695   5.317   1.286  1.2383  0.1055 -0.3517
18405TIP3   OH276705   4.902   1.871  16.002  0.2881  0.3077  0.4911
18405TIP3    H176706   4.913   1.792  16.054 -1.3692  0.3478  0.9529
18405TIP3    H276707   4.944   1.940  16.053  1.1143 -0.1401  0.4303
18406TIP3   OH276708   2.433   2.370  10.339  0.6195 -0.3011 -0.0694
18406TIP3    H176709   2.473   2.415  10.264  0.5471 -1.5639 -0.8823
18406TIP3    H276710   2.387   2.296  10.300  0.4184 -0.8611  1.2174
18407TIP3   OH276711   1.435   3.936   1.972  0.8635 -0.6557 -0.1623
18407TIP3    H176712   1.371   3.897   2.032 -0.5355 -0.9232 -1.8171
18407TIP3    H276713   1.518   3.895   1.996  0.2696 -1.0153  1.3683
18408TIP3   OH276714   2.830   6.029   1.056 -0.1697  0.1804 -0.1231
18408TIP3    H176715   2.855   5.937   1.063 -0.3279  0.1989  0.6579
18408TIP3    H276716   2.766   6.031   0.984  0.1158 -0.2595 -0.3897
18409TIP3   OH276717   3.632   2.820   3.825  1.0374  0.0650  0.0017
18409TIP3    H176718   3.613   2.911   3.803 -1.2804 -0.4404 -0.1752
18409TIP3    H276719   3.576   2.801   3.900  0.5962 -1.5645 -0.7200
18410TIP3   OH276720   0.495   4.953  16.184 -0.0742  0.3518 -0.1402
18410TIP3    H176721   0.512   4.859  16.190 -1.3001  0.1113 -0.2460
18410TIP3    H276722   0.400   4.961  16.196 -0.3811  1.3082 -2.8074
18411TIP3   OH276723   5.263   5.299   0.354 -0.3951  0.3127  0.0441
18411TIP3    H176724   5.356   5.294   0.378 -0.8908  2.4335  2.7125
18411TIP3    H276725   5.232   5.209   0.361  0.8110  0.0102  2.1495
18412TIP3   OH276726   3.199   1.476  13.528  0.7669 -0.4840  0.3576
18412TIP3    H176727   3.152   1.408  13.481  0.6937 -0.0862 -0.1478
18412TIP3    H276728   3.270   1.502  13.469  1.1296 -0.5064  0.7728
18413TIP3   OH276729   1.321   1.686   4.539  0.1166 -0.3362 -0.4421
18413TIP3    H176730   1.411   1.714   4.525  0.1748  1.1015  2.4787
18413TIP3    H276731   1.268   1.763   4.514 -0.1306 -0.1790  0.5498
18414TIP3   OH276732   1.707   3.725  12.645  0.0834 -0.6239  0.0032
18414TIP3    H176733   1.679   3.633  12.648 -1.6975 -0.0937  0.8601
18414TIP3    H276734   1.746   3.736  12.559 -1.0060 -1.8386 -0.6639
18415TIP3   OH276735   1.070   1.611  12.318  0.2975  0.1017  0.3066
18415TIP3    H176736   1.054   1.531  12.368  1.0491 -0.8533 -0.9507
18415TIP3    H276737   1.045   1.589  12.228  2.1027  0.7390 -0.3716
18416TIP3   OH276738   6.546   3.162  11.618 -0.0536 -0.2355  0.0295
18416TIP3    H176739   6.500   3.107  11.681 -2.3290  0.1946 -1.1658
18416TIP3    H276740   6.517   3.251  11.639  0.6700  0.1017 -0.4003
18417TIP3   OH276741   2.529   4.193  15.149  0.0762  0.1463 -0.4239
18417TIP3    H176742   2.583   4.218  15.225 -2.1023 -0.3032  1.3288
18417TIP3    H276743   2.448   4.243  15.159 -0.9191 -1.2001 -1.5136
18418TIP3   OH276744   4.658   4.347  14.892 -0.2607 -0.0510  0.1927
18418TIP3    H176745   4.613   4.335  14.975  1.8112  0.1622  1.3926
18418TIP3    H276746   4.699   4.262  14.874 -1.2450 -0.2961 -0.9528
18419TIP3   OH276747   1.314   3.906  15.330 -0.3765 -0.4154  0.1965
18419TIP3    H176748   1.355   3.918  15.244 -1.7068  0.7689 -0.2933
18419TIP3    H276749   1.379   3.940  15.392  1.4747 -3.1835 -0.1366
18420TIP3   OH276750   3.019   6.490  13.472  0.1195 -0.3359 -0.2290
18420TIP3    H176751   3.036   6.404  13.512  0.8654  0.9940  2.4482
18420TIP3    H276752   3.103   6.516  13.435 -0.1437 -0.7915 -1.1766
18421TIP3   OH276753   1.900   6.551   3.868 -0.0744  0.4805 -0.7034
18421TIP3    H176754   1.805   6.545   3.857 -0.3837  1.1183  1.4060
18421TIP3    H276755   1.924   6.469   3.911  0.4937 -0.1406 -2.1844
18422TIP3   OH276756   0.797   5.275  14.550  0.2533 -0.2470  0.4346
18422TIP3    H176757   0.736   5.312  14.613  0.0508 -1.2166  0.8170
18422TIP3    H276758   0.743   5.254  14.474  0.4723  0.7885 -0.0125
18423TIP3   OH276759   5.760   2.636  14.006  0.1180  0.3782  0.3571
18423TIP3    H176760   5.795   2.556  13.966  0.0895 -0.3491  1.7660
18423TIP3    H276761   5.838   2.686  14.031  0.1587  1.8153 -2.4717
18424TIP3   OH276762   4.947   1.554   0.770 -0.2431  0.2080  0.5496
18424TIP3    H176763   4.864   1.513   0.791  0.1352 -0.2535  1.1502
18424TIP3    H276764   4.928   1.610   0.694 -1.2855  0.7873  1.2287
18425TIP3   OH276765   1.807   1.828   5.335  0.0196 -0.0518 -0.3310
18425TIP3    H176766   1.874   1.769   5.368 -0.0277 -0.7332 -1.4562
18425TIP3    H276767   1.851   1.880   5.267 -0.9506 -1.5320 -2.1458
18426TIP3   OH276768   3.867   0.542   4.671  0.2967  0.0301  0.5754
18426TIP3    H176769   3.781   0.552   4.713  0.3023  0.9452  0.3826
18426TIP3    H276770   3.891   0.631   4.645  1.7435 -0.0807  1.4943
18427TIP3   OH276771   6.640   0.583  15.416  0.3596 -0.5448 -0.4825
18427TIP3    H176772   6.567   0.607  15.359  0.8948 -1.7594 -1.7054
18427TIP3    H276773   6.665   0.495  15.388  2.8526  0.1879 -0.6909
18428TIP3   OH276774   3.818   6.026  13.661 -0.5049  0.2800 -0.1834
18428TIP3    H176775   3.782   6.061  13.742  0.5078 -0.3283  0.5439
18428TIP3    H276776   3.830   5.933  13.679 -0.0843  0.1775 -0.9711
18429TIP3   OH276777   1.459   1.277  12.916 -0.1519 -0.3056 -1.0634
18429TIP3    H176778   1.426   1.253  13.002  0.0604 -1.5520 -1.3138
18429TIP3    H276779   1.507   1.359  12.930  0.5344 -0.9043  0.1432
18430TIP3   OH276780   3.506   4.547   5.405  0.3828 -0.2739 -0.0904
18430TIP3    H176781   3.417   4.561   5.373  0.1197 -1.5229  0.0618
18430TIP3    H276782   3.494   4.522   5.497  0.8290 -1.2524 -0.2901
18431TIP3   OH276783   4.860   5.555   4.175 -0.4951  0.1748 -0.3759
18431TIP3    H176784   4.793   5.539   4.242 -1.5196  1.0882 -1.1771
18431TIP3    H276785   4.895   5.641   4.197  1.9525 -1.1776  1.3150
18432TIP3   OH276786   6.441   3.099   3.384 -0.2904 -0.4930 -0.2204
18432TIP3    H176787   6.430   3.004   3.383 -0.8658 -0.5003  2.3013
18432TIP3    H276788   6.525   3.114   3.341 -0.0285 -2.1648 -0.3410
18433TIP3   OH276789   3.095   4.060   4.002  0.3061 -0.0506 -0.0188
18433TIP3    H176790   3.172   4.061   3.945 -0.2726 -0.3478 -0.8134
18433TIP3    H276791   3.121   4.112   4.078  0.2920  2.3595 -1.6127
18434TIP3   OH276792   6.405   3.622   4.526  0.8343 -0.0699 -0.2421
18434TIP3    H176793   6.333   3.668   4.483  0.7763  0.9094  0.8846
18434TIP3    H276794   6.481   3.679   4.515  0.9859 -0.1567  0.3372
18435TIP3   OH276795   2.310   4.470  14.205  0.6051 -0.2004 -0.8888
18435TIP3    H176796   2.275   4.434  14.287  0.2207 -0.6493 -1.2455
18435TIP3    H276797   2.308   4.396  14.144 -0.8259  0.5863 -1.8262
18436TIP3   OH276798   4.144   3.703  16.788  0.2426  0.0369 -0.1849
18436TIP3    H176799   4.053   3.720  16.763  0.4124  1.6562  0.2186
18436TIP3    H276800   4.159   3.762  16.863  1.6621 -0.0989 -0.3572
18437TIP3   OH276801   3.721   1.097  12.004 -0.0500  0.6439  0.5308
18437TIP3    H176802   3.773   1.176  12.014 -1.4531  1.5552  0.7069
18437TIP3    H276803   3.756   1.037  12.070  0.1007  1.6024  1.3308
18438TIP3   OH276804   4.907   3.860   1.557  0.3132 -0.4706 -0.5953
18438TIP3    H176805   4.930   3.926   1.492 -0.3253 -1.2996 -1.6760
18438TIP3    H276806   4.829   3.896   1.600  0.7529  0.0909 -0.2577
18439TIP3   OH276807   2.279   2.349  12.888 -0.6996  0.0506 -0.3478
18439TIP3    H176808   2.306   2.402  12.813 -2.1079  0.1380 -0.7977
18439TIP3    H276809   2.261   2.412  12.957  2.8023 -0.1282  0.8368
18440TIP3   OH276810   5.777   1.751   4.432 -0.4097  0.0716  0.3709
18440TIP3    H176811   5.697   1.804   4.431 -0.0344  0.6563  0.9503
18440TIP3    H276812   5.843   1.808   4.471  0.4472 -0.1998 -0.6436
18441TIP3   OH276813   1.105   1.849   4.488  0.1252  0.2970 -0.6095
18441TIP3    H176814   1.138   1.922   4.436  1.2348 -0.3448 -0.8202
18441TIP3    H276815   1.015   1.836   4.457  0.1092  1.1997 -0.9658
18442TIP3   OH276816   3.705   3.465   2.440  0.8297 -0.0989  0.0628
18442TIP3    H176817   3.772   3.518   2.483 -1.0049  1.2455  1.3487
18442TIP3    H276818   3.625   3.483   2.489 -0.2406 -2.6382 -0.6600
18443TIP3   OH276819   0.805   0.763  11.697  0.2874  0.8981 -0.0897
18443TIP3    H176820   0.853   0.807  11.767 -0.0694  1.2629 -0.0724
18443TIP3    H276821   0.726   0.816  11.685 -0.8972 -0.5775  0.9933
18444TIP3   OH276822   5.143   5.857   2.766 -0.6140  0.6191  0.7479
18444TIP3    H176823   5.071   5.804   2.733  1.1717 -0.8448 -0.9031
18444TIP3    H276824   5.148   5.930   2.704 -0.5499  0.6176  0.7515
18445TIP3   OH276825   2.050   4.785   3.300  0.3414  0.3560 -0.4909
18445TIP3    H176826   1.996   4.706   3.303 -0.1012  0.6786  0.0832
18445TIP3    H276827   2.043   4.815   3.210 -1.2532  0.9602 -0.1737
18446TIP3   OH276828   4.054   0.790   3.182 -0.0848  0.4064  0.6706
18446TIP3    H176829   3.976   0.734   3.182  0.3663 -0.2918 -1.6274
18446TIP3    H276830   4.119   0.741   3.232  0.0176 -0.7516 -0.5539
18447TIP3   OH276831   5.015   6.088   4.845 -0.1198  0.2474  0.1986
18447TIP3    H176832   5.079   6.148   4.884 -0.9758  0.1518  1.7895
18447TIP3    H276833   5.066   6.032   4.787  1.0572  0.9278  0.5706
18448TIP3   OH276834   5.002   1.783   3.201  0.0076 -0.2668 -0.5938
18448TIP3    H176835   4.918   1.742   3.223  0.1576 -0.4696 -0.4007
18448TIP3    H276836   5.022   1.750   3.114 -0.2135 -0.0577 -0.7242
18449TIP3   OH276837   5.074   0.452   1.915  0.0337  0.3203  0.7228
18449TIP3    H176838   5.081   0.357   1.912  0.2305  0.3534 -0.0076
18449TIP3    H276839   5.040   0.471   2.003 -2.5664 -0.5888 -0.0221
18450TIP3   OH276840   4.436   4.992  14.834  0.3374 -0.4007 -0.5843
18450TIP3    H176841   4.383   4.949  14.767  1.3060 -0.2464 -1.4491
18450TIP3    H276842   4.526   4.985  14.803  0.7833 -0.1950  0.6261
18451TIP3   OH276843   3.764   3.511  11.339 -0.5507  0.1329 -0.2188
18451TIP3    H176844   3.676   3.482  11.360  0.0071 -0.7115  0.9740
18451TIP3    H276845   3.775   3.490  11.246 -1.5607  0.1497 -0.3444
18452TIP3   OH276846   6.083   6.266   6.545 -1.0314 -0.0926 -0.1355
18452TIP3    H176847   5.993   6.273   6.577 -1.0120  1.0530 -0.2828
18452TIP3    H276848   6.110   6.177   6.566 -1.9846 -0.2394  0.4797
18453TIP3   OH276849   5.594   6.438   0.261 -0.5757  0.0172  0.3706
18453TIP3    H176850   5.668   6.499   0.261 -0.0590 -0.5851  2.2357
18453TIP3    H276851   5.634   6.351   0.255 -1.1561 -0.2843  0.8323
18454TIP3   OH276852   3.952   0.361   1.340  0.1856 -0.0099  0.1255
18454TIP3    H176853   3.881   0.297   1.335  0.1842  0.0582 -0.8571
18454TIP3    H276854   4.022   0.323   1.287 -0.6801  1.8692 -2.4803
18455TIP3   OH276855   6.705   2.306   2.328 -0.0814  0.4405 -0.1110
18455TIP3    H176856   6.765   2.338   2.261 -0.8133 -0.4751 -1.2166
18455TIP3    H276857   6.621   2.299   2.284 -0.3393 -1.2294  0.5969
18456TIP3   OH276858   1.500   2.366   4.577  0.6259 -0.1858 -0.0295
18456TIP3    H176859   1.430   2.399   4.634  0.3808 -1.0327  0.1570
18456TIP3    H276860   1.542   2.446   4.543  0.5583  0.3276  1.0623
18457TIP3   OH276861   4.433   2.420  14.889 -0.2284 -0.0531  0.5365
18457TIP3    H176862   4.477   2.502  14.910  0.5995  0.1518 -1.8043
18457TIP3    H276863   4.502   2.354  14.897 -0.4645 -0.2727  0.7467
18458TIP3   OH276864   4.541   1.166  15.257  0.4524 -0.0738  0.5576
18458TIP3    H176865   4.524   1.250  15.213 -1.3968  0.2469  1.8336
18458TIP3    H276866   4.623   1.181  15.304 -0.1167  1.2037  1.1766
18459TIP3   OH276867   1.428   1.386   0.860  0.3341 -0.5013  0.0414
18459TIP3    H176868   1.505   1.329   0.860  0.2736 -0.5817 -0.9005
18459TIP3    H276869   1.436   1.438   0.781 -2.8105 -3.5768 -2.4459
18460TIP3   OH276870   4.746   4.673   4.448 -0.2394  0.7482  0.5003
18460TIP3    H176871   4.713   4.698   4.535 -1.8069  2.0929 -0.4662
18460TIP3    H276872   4.755   4.755   4.401 -0.5302 -0.0668 -1.0126
18461TIP3   OH276873   1.345   6.649   2.260  0.4355 -0.2846  0.3048
18461TIP3    H176874   1.433   6.681   2.241  0.1136 -0.0057 -0.7814
18461TIP3    H276875   1.343   6.560   2.224  0.0875 -0.0698 -0.2125
18462TIP3   OH276876   0.161   3.393   5.259 -0.3080 -0.2481 -0.4294
18462TIP3    H176877   0.101   3.341   5.312 -0.9287 -0.1276 -1.0095
18462TIP3    H276878   0.129   3.384   5.169 -1.2776  2.2766 -0.3656
18463TIP3   OH276879   6.168   2.914  12.223  0.5049  0.4832  0.5101
18463TIP3    H176880   6.150   3.006  12.243 -0.8775  0.2046  0.5809
18463TIP3    H276881   6.109   2.893  12.150 -1.7644 -1.3148  2.7642
18464TIP3   OH276882   1.196   2.496  16.492  0.5577  0.8103 -0.0330
18464TIP3    H176883   1.103   2.518  16.486 -0.0648 -1.5724  0.1377
18464TIP3    H276884   1.230   2.551  16.563 -0.7269  1.6719 -0.0766
18465TIP3   OH276885   2.812   2.008   0.894 -0.5606  0.1532 -0.1709
18465TIP3    H176886   2.827   2.090   0.847 -2.7569 -0.1925 -1.5226
18465TIP3    H276887   2.824   1.940   0.827 -2.6882 -0.3974 -0.0145
18466TIP3   OH276888   2.497   5.534  11.269  0.3139 -0.0116 -0.4969
18466TIP3    H176889   2.571   5.584  11.303  0.8502 -0.1833 -1.4025
18466TIP3    H276890   2.532   5.445  11.257 -0.4930 -0.4884  0.6349
18467TIP3   OH276891   2.048   1.404   6.460 -0.1552 -0.1674  0.2888
18467TIP3    H176892   2.112   1.475   6.463  0.4558 -0.7600  1.9525
18467TIP3    H276893   2.100   1.324   6.458 -0.8386 -0.6283  0.5726
18468TIP3   OH276894   5.832   5.648   2.756  0.1263  0.5150  0.2995
18468TIP3    H176895   5.737   5.661   2.745  0.4867  1.3309 -2.2932
18468TIP3    H276896   5.869   5.677   2.673  2.6439 -0.1269  1.1688
18469TIP3   OH276897   5.532   6.496  13.340 -0.6337  0.0972  0.5208
18469TIP3    H176898   5.540   6.401  13.353  0.5069  0.1766  0.4501
18469TIP3    H276899   5.551   6.510  13.248  0.5358  0.5356  0.8244
18470TIP3   OH276900   1.540   1.664   0.849 -0.9042 -0.6031 -0.0088
18470TIP3    H176901   1.495   1.610   0.914 -0.3703  0.6320  1.4087
18470TIP3    H276902   1.622   1.689   0.891 -0.3330 -0.1687 -1.3465
18471TIP3   OH276903   4.389   3.513  15.974  0.1506 -0.2482  0.1677
18471TIP3    H176904   4.338   3.540  16.049  0.4282 -1.2200  0.7128
18471TIP3    H276905   4.333   3.531  15.898  0.0887  1.2432  0.5521
18472TIP3   OH276906   2.452   5.807   3.986 -0.1993 -0.8683  0.2513
18472TIP3    H176907   2.414   5.888   4.020  1.3832  0.0299 -0.0868
18472TIP3    H276908   2.475   5.756   4.064  0.7950 -0.0534  0.4910
18473TIP3   OH276909   4.112   4.074  12.002  0.0104 -0.0013 -0.1489
18473TIP3    H176910   4.068   4.029  12.075  0.2653  0.6190  0.3949
18473TIP3    H276911   4.146   4.003  11.948  2.9502 -0.5209  2.2440
18474TIP3   OH276912   4.839   0.843   1.792  0.1670 -0.0915  0.3943
18474TIP3    H176913   4.777   0.891   1.737  1.6962 -0.1740 -1.4614
18474TIP3    H276914   4.924   0.859   1.751  1.3475 -0.2333  2.7090
18475TIP3   OH276915   0.816   5.080  16.825 -0.2167  0.0983 -0.2543
18475TIP3    H176916   0.818   4.992  16.864  0.7571 -0.0340 -0.6041
18475TIP3    H276917   0.724   5.107  16.833 -0.2614 -0.3993  1.0709
18476TIP3   OH276918   1.230   6.201   1.978 -0.0846 -0.3423 -0.2129
18476TIP3    H176919   1.256   6.112   1.956  2.3722 -0.0124  1.1988
18476TIP3    H276920   1.280   6.256   1.917  0.8137  0.1895  0.9781
18477TIP3   OH276921   3.607   2.832  13.366  0.1787 -0.3529  0.2995
18477TIP3    H176922   3.688   2.832  13.315 -0.6423  1.8041 -1.1053
18477TIP3    H276923   3.540   2.862  13.305 -1.1168  0.8294  2.2302
18478TIP3   OH276924   5.324   0.187   5.964  0.4179  0.5515  0.2239
18478TIP3    H176925   5.270   0.109   5.952  1.6331 -0.5425  1.5158
18478TIP3    H276926   5.262   0.259   5.972 -0.8054 -0.5337  0.7486
18479TIP3   OH276927   5.248   0.488   3.230  0.1494 -0.1380 -0.5085
18479TIP3    H176928   5.277   0.397   3.234 -1.3754 -0.6258  0.1685
18479TIP3    H276929   5.231   0.511   3.321 -0.5127  0.4639 -0.7784
18480TIP3   OH276930   4.140   3.434   4.515  0.2254 -0.1468  0.1826
18480TIP3    H176931   4.232   3.440   4.539  0.0686 -0.0499  0.7526
18480TIP3    H276932   4.107   3.359   4.564  0.0052 -0.1973 -0.0398
18481TIP3   OH276933   6.232   2.073   3.576  0.3035 -0.0525  0.2061
18481TIP3    H176934   6.168   2.142   3.562 -2.5954 -2.6108  0.3837
18481TIP3    H276935   6.256   2.081   3.669 -0.2516  0.5073  0.3013
18482TIP3   OH276936   6.787   3.298   6.025 -0.3772  0.2065 -0.2268
18482TIP3    H176937   6.881   3.308   6.042 -0.2720  0.8701 -1.2083
18482TIP3    H276938   6.745   3.357   6.089 -0.0718  0.8852 -0.6463
18483TIP3   OH276939   2.031   3.331   4.021  0.3064  0.7666 -0.2433
18483TIP3    H176940   2.072   3.261   4.071 -2.2609  0.8149  2.0500
18483TIP3    H276941   1.999   3.393   4.087 -2.2336  1.3666 -1.9569
18484TIP3   OH276942   1.668   0.182  14.503  0.2755 -0.2448  0.1342
18484TIP3    H176943   1.751   0.166  14.458 -1.1062 -0.2532 -2.5250
18484TIP3    H276944   1.643   0.270  14.477 -0.9577 -0.5523  0.2521
18485TIP3   OH276945   0.585   1.703  11.619 -0.3048 -0.1802  0.7970
18485TIP3    H176946   0.583   1.632  11.684  0.7425  0.5978  1.7048
18485TIP3    H276947   0.619   1.661  11.540  2.2533 -0.3040  1.8916
18486TIP3   OH276948   3.486   1.520   0.481 -0.0120 -0.1788  0.1108
18486TIP3    H176949   3.521   1.490   0.565 -0.0899 -2.9515 -0.7961
18486TIP3    H276950   3.398   1.553   0.502 -0.2748 -1.4265  1.0104
18487TIP3   OH276951   2.200   0.679   1.931 -0.0696  0.1957 -0.2569
18487TIP3    H176952   2.242   0.674   1.845 -1.0739  0.5104 -0.7791
18487TIP3    H276953   2.272   0.693   1.993  0.7459 -0.8448 -0.9510
18488TIP3   OH276954   0.713   0.821  13.044 -0.1667  0.6894  0.4929
18488TIP3    H176955   0.710   0.850  12.953 -1.6021 -0.8922  0.0057
18488TIP3    H276956   0.626   0.784  13.060  0.9053 -1.3894  1.7079
18489TIP3   OH276957   6.504   1.741   5.364  0.2918  0.1303 -0.5353
18489TIP3    H176958   6.573   1.800   5.395 -0.2342 -0.1744  1.2468
18489TIP3    H276959   6.471   1.699   5.443  1.3097 -3.3117 -1.8744
18490TIP3   OH276960   6.043   5.251   3.507 -0.5395 -0.0843  0.2760
18490TIP3    H176961   6.093   5.170   3.511  0.9848  0.8613  0.4548
18490TIP3    H276962   6.088   5.310   3.566 -0.8268  1.3546 -0.9266
18491TIP3   OH276963   1.769   4.587  17.225 -0.6556 -0.7770 -0.1020
18491TIP3    H176964   1.739   4.587  17.316 -0.7438  0.1943 -0.1284
18491TIP3    H276965   1.832   4.515  17.221  1.3163  0.8118  1.3678
18492TIP3   OH276966   2.285   4.950   2.381 -0.1679  0.2081  0.2133
18492TIP3    H176967   2.306   4.877   2.323  2.1381  0.5869  0.4932
18492TIP3    H276968   2.208   4.992   2.342 -1.3295 -2.1634 -0.1020
18493TIP3   OH276969   5.224   1.586  12.903  0.0539  0.0428  0.1700
18493TIP3    H176970   5.212   1.533  12.824 -0.2502  0.1134  0.1684
18493TIP3    H276971   5.202   1.527  12.975  3.5700 -1.0579  0.4142
18494TIP3   OH276972   4.188   3.419  15.550 -0.3170 -0.1861 -0.3632
18494TIP3    H176973   4.126   3.363  15.504  1.6540 -1.9521 -0.9800
18494TIP3    H276974   4.160   3.418  15.641 -2.0301  0.2367 -0.8740
18495TIP3   OH276975   5.235   6.611   0.500  0.2068  0.4534 -0.3539
18495TIP3    H176976   5.309   6.550   0.502 -0.2435 -0.1496 -1.5195
18495TIP3    H276977   5.275   6.697   0.509  0.9159  0.0375  0.6106
18496TIP3   OH276978   1.608   0.275  16.742  0.2405  0.1041 -0.1873
18496TIP3    H176979   1.561   0.320  16.812 -1.7302  0.0410 -1.4397
18496TIP3    H276980   1.554   0.287  16.664  2.3285  0.0604 -1.6966
18497TIP3   OH276981   6.537   2.166  11.326  0.6269 -0.0979  0.4070
18497TIP3    H176982   6.449   2.154  11.291  0.2918 -0.6091  1.3963
18497TIP3    H276983   6.574   2.237  11.274  0.4961 -1.4743 -1.6210
18498TIP3   OH276984   0.045   4.715  15.282 -0.5800 -0.1747  0.1691
18498TIP3    H176985  -0.019   4.722  15.211 -0.0182 -0.2018 -0.3426
18498TIP3    H276986   0.024   4.632  15.325 -1.4344  0.2262  0.5415
18499TIP3   OH276987   3.771   5.945   2.817  0.7840  0.3234  0.0170
18499TIP3    H176988   3.820   5.863   2.808 -2.1020 -1.9734  3.6285
18499TIP3    H276989   3.708   5.944   2.746  0.2332 -1.0261  0.5129
18500TIP3   OH276990   2.465   2.733   1.410  0.4287  0.2039  0.3505
18500TIP3    H176991   2.529   2.694   1.350 -1.3197  1.2248 -2.2311
18500TIP3    H276992   2.403   2.663   1.428 -0.1580  0.4800 -0.6167
18501TIP3   OH276993   6.766   3.759  13.819  0.4614  0.3513 -0.3781
18501TIP3    H176994   6.762   3.723  13.908  3.4729  1.5167  0.2833
18501TIP3    H276995   6.753   3.683  13.762 -0.4173 -0.5891  1.0501
18502TIP3   OH276996   2.627   0.596  13.520 -0.0023 -0.2327  0.3055
18502TIP3    H176997   2.595   0.680  13.552 -0.0140 -0.5337  1.0923
18502TIP3    H276998   2.713   0.615  13.483 -0.8745  0.5031 -1.4169
18503TIP3   OH276999   4.650   6.065  13.450 -0.0442 -0.1528 -0.1094
18503TIP3    H177000   4.580   6.078  13.514  1.5669  0.4801  1.5898
18503TIP3    H277001   4.670   6.153  13.417  0.8766 -0.1388  0.4559
18504TIP3   OH277002   1.819   6.102   4.791  0.3857  0.3007 -0.8511
18504TIP3    H177003   1.900   6.103   4.843 -0.8606  1.2991  1.1449
18504TIP3    H277004   1.845   6.062   4.708  2.4548 -1.3652  0.5155
18505TIP3   OH277005   2.741   1.364   1.416 -0.2964  0.2890 -0.2962
18505TIP3    H177006   2.651   1.368   1.383 -0.0850  0.3482 -0.8680
18505TIP3    H277007   2.754   1.449   1.459 -0.6781  0.0883  0.2222
18506TIP3   OH277008   4.688   0.952  16.719  0.5182  0.0591 -0.0258
18506TIP3    H177009   4.597   0.978  16.707  0.7341  1.4360  1.1065
18506TIP3    H277010   4.686   0.858  16.731 -0.9638  0.2941  1.8215
18507TIP3   OH277011   5.340   2.616  12.575  0.3219 -0.7567 -0.0259
18507TIP3    H177012   5.359   2.547  12.512 -0.2126  0.8873 -2.0533
18507TIP3    H277013   5.255   2.650  12.548  0.2091  0.1483  1.4283
18508TIP3   OH277014   1.270   3.452   6.001 -0.1839  0.3069  0.3489
18508TIP3    H177015   1.199   3.472   6.063 -0.1992 -1.7289  1.0203
18508TIP3    H277016   1.233   3.471   5.915 -1.6032 -0.8769  0.6835
18509TIP3   OH277017   2.393   0.019   4.252  0.1601 -0.0851  0.2363
18509TIP3    H177018   2.333  -0.039   4.205  0.9193 -0.2409 -0.5293
18509TIP3    H277019   2.371   0.004   4.345 -0.5506 -0.6085 -0.0079
18510TIP3   OH277020   0.756   4.197  10.946 -0.4605 -0.0905 -0.2595
18510TIP3    H177021   0.771   4.283  10.908  1.8434  1.0755  2.9748
18510TIP3    H277022   0.808   4.137  10.892  0.8768  1.1310 -0.3527
18511TIP3   OH277023   4.023   0.689  16.392 -0.4129  0.0177 -0.3542
18511TIP3    H177024   4.042   0.630  16.465  0.6629  1.0450  0.2142
18511TIP3    H277025   3.954   0.645  16.343 -0.0969 -1.3965  0.4424
18512TIP3   OH277026   0.937   0.408   3.643  0.2746 -0.1550 -0.2366
18512TIP3    H177027   0.847   0.409   3.612  0.1952 -0.4643 -0.0172
18512TIP3    H277028   0.961   0.315   3.645  0.3023 -0.1344  0.5457
18513TIP3   OH277029   4.411   3.231  13.366  0.2403  0.1554  0.3915
18513TIP3    H177030   4.357   3.310  13.369  0.9825  0.8426 -2.2709
18513TIP3    H277031   4.501   3.263  13.372  0.4758 -0.6367  1.0884
18514TIP3   OH277032   4.522   4.584  16.466 -0.4885 -0.3054 -0.1875
18514TIP3    H177033   4.560   4.545  16.545  1.1217 -0.5561 -1.0644
18514TIP3    H277034   4.488   4.669  16.495 -0.2700 -0.5650  0.8540
18515TIP3   OH277035   6.539   0.967   6.292 -0.5019 -0.2124 -0.0004
18515TIP3    H177036   6.477   0.934   6.357 -1.6878  2.3279  0.1933
18515TIP3    H277037   6.616   0.992   6.343 -0.8300  0.3278  0.2241
18516TIP3   OH277038   6.110   6.182  16.810  0.1128  0.0836 -0.1431
18516TIP3    H177039   6.166   6.193  16.887  1.2929 -1.2711 -0.7806
18516TIP3    H277040   6.100   6.087  16.802  1.1595  0.1429 -2.4729
18517TIP3   OH277041   6.030   5.128   3.103 -0.2451 -0.5198  0.0715
18517TIP3    H177042   5.949   5.081   3.121 -0.6463 -1.8839 -4.7030
18517TIP3    H277043   6.099   5.062   3.108 -0.1039 -0.4623 -0.8686
18518TIP3   OH277044   2.042   3.193   3.554 -0.0489  0.1556 -0.3338
18518TIP3    H177045   1.969   3.142   3.520  1.3946 -1.7652 -0.6270
18518TIP3    H277046   2.118   3.164   3.503  1.4133  0.1676  1.7480
18519TIP3   OH277047   0.299   0.254  13.451  0.1767  0.1044 -0.5031
18519TIP3    H177048   0.310   0.197  13.375  1.2717  0.8814 -0.9443
18519TIP3    H277049   0.365   0.323  13.439  2.2992 -1.2910  2.5737
18520TIP3   OH277050   0.553   2.571  10.754  0.5130 -0.0311 -0.1890
18520TIP3    H177051   0.478   2.517  10.779  0.8622 -0.2319  0.4277
18520TIP3    H277052   0.601   2.585  10.835  1.0592  0.2303 -0.5535
18521TIP3   OH277053   0.175   5.251  12.929 -0.5299  0.6880 -0.1448
18521TIP3    H177054   0.127   5.198  12.865 -1.2337  1.1564 -0.0110
18521TIP3    H277055   0.267   5.244  12.902 -0.5290 -1.1667  0.2747
18522TIP3   OH277056   3.038   6.179   2.377  0.1464 -0.2709 -0.0545
18522TIP3    H177057   3.016   6.185   2.284  1.7053 -0.4749 -0.4515
18522TIP3    H277058   3.059   6.269   2.402 -0.2504 -0.2202  0.0964
18523TIP3   OH277059   4.568   4.216  16.791 -0.0137  0.5452  0.2409
18523TIP3    H177060   4.650   4.171  16.768  0.3398  0.9766  0.6668
18523TIP3    H277061   4.505   4.182  16.727  0.1791 -0.7707  0.7283
18524TIP3   OH277062   4.388   2.827   6.268  0.3379 -0.3182  0.2870
18524TIP3    H177063   4.361   2.916   6.249 -1.2143 -1.0614 -1.1098
18524TIP3    H277064   4.478   2.835   6.302  0.4889  1.6713 -0.5569
18525TIP3   OH277065   1.286   0.774  12.343 -0.0440  0.0513  0.8787
18525TIP3    H177066   1.298   0.865  12.371  1.8524 -0.3377  1.4483
18525TIP3    H277067   1.374   0.745  12.318 -0.8401 -1.2354 -0.5313
18526TIP3   OH277068   6.775   1.660  16.713 -0.6119 -0.0382 -0.0309
18526TIP3    H177069   6.860   1.619  16.731 -1.3933 -1.7712 -0.1602
18526TIP3    H277070   6.719   1.587  16.688 -2.4684  0.9286  1.2048
18527TIP3   OH277071   4.569   3.655   0.984  0.6554 -0.0434  0.2789
18527TIP3    H177072   4.546   3.747   0.975  1.0165 -0.1883 -2.6537
18527TIP3    H277073   4.656   3.647   0.944  1.5837 -1.2905  2.4327
18528TIP3   OH277074   1.777   2.844  12.590 -0.0096 -0.3679 -0.5792
18528TIP3    H177075   1.745   2.786  12.658 -1.6691 -0.1227 -1.1290
18528TIP3    H277076   1.843   2.899  12.633  0.8487 -1.9676  0.1693
18529TIP3   OH277077   0.559   5.889   3.805  0.1823  0.3455 -0.0065
18529TIP3    H177078   0.475   5.845   3.788  0.9301 -1.2665  0.3414
18529TIP3    H277079   0.543   5.938   3.886 -0.6443  0.6180 -0.3307
18530TIP3   OH277080   0.154   5.895  13.478  0.0769 -0.3598 -0.0534
18530TIP3    H177081   0.077   5.845  13.505 -0.1850 -0.3991 -0.8347
18530TIP3    H277082   0.120   5.984  13.465  0.5276  0.0087  1.2729
18531TIP3   OH277083   4.397   1.331   0.315 -0.4464  0.1330 -0.3295
18531TIP3    H177084   4.449   1.250   0.316 -0.0710  0.3778  0.0132
18531TIP3    H277085   4.367   1.342   0.405 -0.6343  0.2896 -0.4105
18532TIP3   OH277086   2.575   1.722  11.102 -0.2178 -0.0959  0.0645
18532TIP3    H177087   2.622   1.661  11.159  1.1144  1.0033  0.1726
18532TIP3    H277088   2.512   1.667  11.056 -0.4820 -1.2020  1.6884
18533TIP3   OH277089   4.501   5.661   6.201 -0.5496 -0.4179  0.6592
18533TIP3    H177090   4.427   5.690   6.255 -0.7174 -2.4061  1.5565
18533TIP3    H277091   4.546   5.596   6.255  0.7130 -0.6564 -0.6505
18534TIP3   OH277092   6.088   1.363  16.195 -0.5131  0.2075  0.4346
18534TIP3    H177093   6.132   1.445  16.217 -0.2198  1.1974 -3.5316
18534TIP3    H277094   5.995   1.385  16.198 -0.5183  0.0993  1.3923
18535TIP3   OH277095   6.332   3.204  16.227  0.0679 -0.2697 -0.4068
18535TIP3    H177096   6.339   3.159  16.311 -3.1946  0.9854  0.6158
18535TIP3    H277097   6.350   3.295  16.247  1.5616 -0.3148 -1.5073
18536TIP3   OH277098   4.001   6.414   1.713 -0.9375  0.5234  0.5859
18536TIP3    H177099   3.925   6.434   1.768  0.0211 -0.0744  2.1719
18536TIP3    H277100   4.049   6.348   1.762  0.3145  0.4752 -0.6678
18537TIP3   OH277101   0.779   0.268   6.459 -0.3706  0.3025  0.2123
18537TIP3    H177102   0.804   0.356   6.487 -0.2952  0.0404  0.9776
18537TIP3    H277103   0.816   0.210   6.525  2.9083 -0.6488 -2.3460
18538TIP3   OH277104   2.829   2.503  15.413 -0.6926  0.3187  0.3446
18538TIP3    H177105   2.774   2.492  15.336 -2.0391  1.1068  1.1745
18538TIP3    H277106   2.781   2.564  15.469  2.5704  3.7359 -0.3684
18539TIP3   OH277107   6.570   2.714   5.350 -0.8732  0.5520  0.4328
18539TIP3    H177108   6.665   2.719   5.339 -1.0411  2.3170 -0.2885
18539TIP3    H277109   6.541   2.805   5.348 -2.6292 -0.0113  0.2514
18540TIP3   OH277110   0.239   0.016  13.634  0.2138 -0.9612 -0.0872
18540TIP3    H177111   0.224   0.075  13.561 -0.1920 -0.3013  0.5207
18540TIP3    H277112   0.334   0.020  13.649  0.3635 -1.4720 -0.8751
18541TIP3   OH277113   0.970   0.560   5.990 -0.0116  0.0844 -0.2702
18541TIP3    H177114   1.015   0.636   6.026  0.7545 -0.5091  0.0226
18541TIP3    H277115   0.937   0.512   6.066 -1.1040  0.4844 -0.4770
18542TIP3   OH277116   5.121   0.117  13.659  0.1986  0.0872  0.1971
18542TIP3    H177117   5.211   0.087  13.658  0.4581  0.7974  1.5143
18542TIP3    H277118   5.127   0.212  13.648 -0.4733 -0.0320 -1.2863
18543TIP3   OH277119   2.773   5.447  16.569  0.6203  0.4300 -0.4246
18543TIP3    H177120   2.822   5.369  16.596 -0.8932 -0.4607 -0.1992
18543TIP3    H277121   2.822   5.481  16.494  1.7973 -0.2134  0.0318
18544TIP3   OH277122   4.366   0.020   0.096  0.3020 -0.0019  0.3359
18544TIP3    H177123   4.276   0.046   0.074  0.1857 -1.6695 -1.2609
18544TIP3    H277124   4.358  -0.068   0.132  1.3100 -0.3084 -0.1535
18545TIP3   OH277125   2.662   2.950   3.603  0.3994 -0.2592 -0.1468
18545TIP3    H177126   2.751   2.960   3.636  0.9993 -0.7712 -1.6155
18545TIP3    H277127   2.625   2.879   3.657  0.8346  0.0139  0.5241
18546TIP3   OH277128   0.423   1.367  17.214  0.4040 -0.4691  0.1427
18546TIP3    H177129   0.343   1.394  17.169  0.7119 -0.7473 -0.5705
18546TIP3    H277130   0.392   1.311  17.286  0.0726 -2.1253 -1.2661
18547TIP3   OH277131   5.566   3.239   3.275  0.4368 -0.0219  0.3143
18547TIP3    H177132   5.504   3.256   3.204  2.2854 -0.9031 -1.5897
18547TIP3    H277133   5.583   3.325   3.313 -1.8982  0.2289  0.8355
18548TIP3   OH277134   4.309   3.922  12.316  0.6348  0.5417  0.6750
18548TIP3    H177135   4.318   3.919  12.412  0.4611  1.9510  0.7477
18548TIP3    H277136   4.216   3.934  12.301  0.7358  0.9506  0.3537
18549TIP3   OH277137   6.139   2.956   1.025 -0.2189 -0.6875 -0.3812
18549TIP3    H177138   6.052   2.941   1.062 -1.0027 -0.4842 -2.0872
18549TIP3    H277139   6.171   2.868   1.004 -0.6973 -0.6558 -1.2579
18550TIP3   OH277140   6.490   3.569   0.627 -0.5435 -0.6244 -0.2877
18550TIP3    H177141   6.429   3.495   0.619 -1.1174 -0.1277 -0.5446
18550TIP3    H277142   6.433   3.646   0.634  0.0537 -0.2027 -0.0490
18551TIP3   OH277143   3.366   5.612  10.290  0.5297 -0.1946 -0.0750
18551TIP3    H177144   3.455   5.580  10.300  0.6057  0.0610  0.0904
18551TIP3    H277145   3.312   5.553  10.342  0.6089 -0.3209 -0.1384
18552TIP3   OH277146   2.286   4.934  16.703 -0.1715 -0.1975  0.3461
18552TIP3    H177147   2.312   5.002  16.640 -0.8167 -0.4808 -0.2399
18552TIP3    H277148   2.305   4.851  16.659 -0.3999 -0.3978  0.6181
18553TIP3   OH277149   5.063   1.414   4.823  0.4648 -0.0597 -0.4149
18553TIP3    H177150   5.002   1.363   4.769 -0.7003  1.2761 -0.3847
18553TIP3    H277151   5.141   1.424   4.768 -0.6644  1.1857 -1.8179
18554TIP3   OH277152   2.168   5.515   1.010  0.2585 -0.1597  0.5362
18554TIP3    H177153   2.257   5.485   0.995  1.4093  3.2282  0.1976
18554TIP3    H277154   2.150   5.575   0.937 -2.3184 -0.7576  0.6047
18555TIP3   OH277155   2.132   2.222  14.740  0.2020 -0.1752 -0.7652
18555TIP3    H177156   2.155   2.302  14.789  1.2764  0.1914 -1.8275
18555TIP3    H277157   2.042   2.203  14.766  0.6007  0.2530  1.0284
18556TIP3   OH277158   4.050   5.703  15.922  0.1374  0.2811 -0.2062
18556TIP3    H177159   4.067   5.738  15.834 -0.4346  1.4190  0.1277
18556TIP3    H277160   4.018   5.778  15.972  1.5284 -0.0836  1.2874
18557TIP3   OH277161   4.727   3.794   4.922  0.7627 -0.1474  0.1164
18557TIP3    H177162   4.689   3.710   4.897 -0.4424  0.7536 -1.1985
18557TIP3    H277163   4.656   3.842   4.963  1.6768 -0.0778  1.6470
18558TIP3   OH277164   2.857   3.205   1.511 -0.2342 -0.5579  0.4637
18558TIP3    H177165   2.909   3.221   1.432 -0.3670  1.5337  0.7735
18558TIP3    H277166   2.920   3.212   1.583 -0.6400  0.4919  0.7319
18559TIP3   OH277167   1.991   6.339  16.323 -0.4233 -0.1104 -0.2331
18559TIP3    H177168   1.963   6.302  16.406 -0.4255 -0.8013 -0.5355
18559TIP3    H277169   1.967   6.272  16.258 -0.3933  0.4072 -0.7778
18560TIP3   OH277170   3.202   2.271   5.467  0.3090  0.3585 -0.3457
18560TIP3    H177171   3.256   2.339   5.507  0.8049  0.4446 -1.1452
18560TIP3    H277172   3.247   2.251   5.385 -1.2720  0.9211 -1.3511
18561TIP3   OH277173   5.620   3.618   5.372  0.3624  0.1380  1.2676
18561TIP3    H177174   5.651   3.698   5.415  3.6939 -0.0133 -0.6859
18561TIP3    H277175   5.684   3.552   5.396  1.2997 -0.3794 -2.3498
18562TIP3   OH277176   1.270   4.241  13.334  0.4213  0.0507 -0.3028
18562TIP3    H177177   1.259   4.262  13.242 -0.9747 -3.2289 -0.9498
18562TIP3    H277178   1.351   4.192  13.338  0.1435 -0.3786  0.1234
18563TIP3   OH277179   4.464   1.912   2.180 -0.6529 -0.2100  0.1894
18563TIP3    H177180   4.399   1.918   2.110  0.1966 -0.9543 -0.6750
18563TIP3    H277181   4.419   1.867   2.252 -1.2869 -0.1554 -0.1779
18564TIP3   OH277182   5.761   6.791  17.219 -0.3731 -0.2521  0.0763
18564TIP3    H177183   5.847   6.828  17.198 -0.4144 -0.6181 -0.7853
18564TIP3    H277184   5.729   6.843  17.292  0.1099  0.6001 -0.3163
18565TIP3   OH277185   1.591   2.508   1.194 -0.0934 -0.1571 -0.1080
18565TIP3    H177186   1.581   2.547   1.280 -0.4694  0.0244 -0.2330
18565TIP3    H277187   1.657   2.561   1.150 -2.4266  1.9392 -1.2053
18566TIP3   OH277188   4.477   0.452   5.796  0.2598  0.3962  0.7568
18566TIP3    H177189   4.504   0.372   5.841  2.0028 -0.2627 -1.3446
18566TIP3    H277190   4.383   0.443   5.785  0.2250 -0.6906  1.8292
18567TIP3   OH277191   1.713   4.836  15.549 -0.0927 -0.2579 -0.6913
18567TIP3    H177192   1.701   4.868  15.639 -1.4348 -0.4899 -0.7772
18567TIP3    H277193   1.807   4.846  15.533 -0.2705  2.6111 -0.3075
18568TIP3   OH277194   6.694   2.310  13.772  0.2825 -0.7343  0.0719
18568TIP3    H177195   6.780   2.334  13.739  0.1815  0.5997  0.7535
18568TIP3    H277196   6.695   2.215  13.774  1.6058 -0.7357 -0.2646
18569TIP3   OH277197   0.673   3.317  15.985  0.2369 -0.2080  0.1686
18569TIP3    H177198   0.740   3.271  15.935 -0.6057 -1.4480  0.1722
18569TIP3    H277199   0.722   3.367  16.050  1.1377 -1.4099  0.4257
18570TIP3   OH277200   6.394   0.929   0.102 -0.4281  0.2462  0.4052
18570TIP3    H177201   6.486   0.911   0.085 -0.6133  0.3181 -0.7022
18570TIP3    H277202   6.349   0.847   0.081 -0.9796  1.1635 -2.2326
18571TIP3   OH277203   6.740   5.318   4.694  0.9979 -0.6966  0.1265
18571TIP3    H177204   6.682   5.314   4.770  2.6922  0.6197  1.5212
18571TIP3    H277205   6.814   5.262   4.718  1.7047  0.0038 -0.4234
18572TIP3   OH277206   0.109   6.644   0.073  0.0947  0.1852 -0.0881
18572TIP3    H177207   0.119   6.551   0.057  0.9502  0.2985 -0.1928
18572TIP3    H277208   0.094   6.683  -0.013 -1.3982  0.0081  0.0718
18573TIP3   OH277209   1.863   2.883   1.654 -0.0729  0.8401  0.1299
18573TIP3    H177210   1.890   2.797   1.621 -1.7536  0.1601  0.4442
18573TIP3    H277211   1.887   2.944   1.584 -1.5468 -0.2812 -1.4105
18574TIP3   OH277212   4.600   2.796   5.112  0.4754  0.7738  0.3477
18574TIP3    H177213   4.526   2.771   5.057  2.3502 -0.8671 -1.5054
18574TIP3    H277214   4.591   2.744   5.191 -0.1282  0.2896 -0.0394
18575TIP3   OH277215   0.966   2.419  10.814  0.1811  0.3783  0.0697
18575TIP3    H177216   0.959   2.339  10.867  0.7860  1.1066  1.2805
18575TIP3    H277217   0.968   2.490  10.878 -2.8869  1.5646 -1.0974
18576TIP3   OH277218   3.441   1.041   3.402 -0.3913  0.0239  0.4468
18576TIP3    H177219   3.496   0.971   3.365 -1.2676 -0.4655  0.0558
18576TIP3    H277220   3.441   1.025   3.496  0.1057  0.0006  0.4436
18577TIP3   OH277221   5.859   3.809   1.506 -0.1207 -0.2396 -0.4717
18577TIP3    H177222   5.881   3.896   1.472 -1.6073 -0.3809 -1.7990
18577TIP3    H277223   5.799   3.826   1.579  0.3701 -0.1148 -0.0918
18578TIP3   OH277224   4.325   4.961   6.452 -0.1404 -0.0450 -0.2090
18578TIP3    H177225   4.266   4.889   6.431 -0.8426 -0.4217  2.8388
18578TIP3    H277226   4.408   4.918   6.475  0.0308  0.2510 -0.2712
18579TIP3   OH277227   4.497   2.052  12.858 -0.0738 -0.3050 -0.7791
18579TIP3    H177228   4.442   1.987  12.814 -0.7121  1.2562 -2.3739
18579TIP3    H277229   4.581   2.048  12.812 -0.2170  0.2027 -1.0899
18580TIP3   OH277230   6.656   1.037  12.463  0.3800 -0.4266  0.2311
18580TIP3    H177231   6.592   1.021  12.395  0.8732  0.6895 -0.4942
18580TIP3    H277232   6.676   1.130  12.457  2.6854 -0.9158 -0.1140
18581TIP3   OH277233   4.557   0.242  14.775  0.2586 -0.0107  0.2419
18581TIP3    H177234   4.610   0.164  14.758 -0.6597 -0.5319 -0.2741
18581TIP3    H277235   4.513   0.260  14.692 -0.7481  0.1327  0.7975
18582TIP3   OH277236   5.740   0.518   1.497 -0.3729  0.1663  0.7283
18582TIP3    H177237   5.821   0.512   1.548  0.2254  2.5264  0.1238
18582TIP3    H277238   5.672   0.533   1.562  0.2833  2.4175  0.9315
18583TIP3   OH277239   3.488   5.345  17.282  0.2470 -0.1870 -0.1449
18583TIP3    H177240   3.416   5.281  17.286  0.3389 -0.2459  0.9228
18583TIP3    H277241   3.551   5.307  17.221 -0.0981 -0.6974 -0.1859
18584TIP3   OH277242   5.459   4.958  13.000 -0.9796  0.0206  0.2033
18584TIP3    H177243   5.454   4.878  13.053  0.6903  0.4776  1.0664
18584TIP3    H277244   5.475   4.926  12.911  2.4137 -0.5590  0.9512
18585TIP3   OH277245   4.477   0.599   3.714  0.0198  0.0942 -0.4777
18585TIP3    H177246   4.468   0.576   3.621 -0.3620  0.4401 -0.5272
18585TIP3    H277247   4.423   0.678   3.725  0.3818  0.2856 -0.0492
18586TIP3   OH277248   0.991   6.125   5.882 -0.1872 -0.1601  0.6870
18586TIP3    H177249   0.948   6.160   5.804  2.5725 -0.1252 -0.8928
18586TIP3    H277250   0.928   6.062   5.918 -1.0217 -1.1047 -2.2795
18587TIP3   OH277251   2.751   1.353   0.158 -0.4102 -0.7116 -0.2364
18587TIP3    H177252   2.812   1.316   0.093  1.0956  0.2831  0.5898
18587TIP3    H277253   2.753   1.447   0.142 -1.6038 -0.6449 -0.0644
18588TIP3   OH277254   3.353   6.421  17.138  0.4757  0.2297 -0.1988
18588TIP3    H177255   3.327   6.479  17.209 -0.0372 -1.1179  0.7155
18588TIP3    H277256   3.446   6.403  17.155  0.2689 -0.3562  0.3191
18589TIP3   OH277257   0.267   0.163  12.167 -0.1795  0.5512  0.1929
18589TIP3    H177258   0.233   0.251  12.152  0.5353  1.0728  1.5450
18589TIP3    H277259   0.356   0.164  12.132 -0.9153 -0.2882 -1.7440
18590TIP3   OH277260   4.243   1.536   5.810  0.2882 -0.2192 -0.4300
18590TIP3    H177261   4.267   1.451   5.848 -0.0517  0.8339  2.2396
18590TIP3    H277262   4.191   1.514   5.733  0.3461 -2.4377  0.1291
18591TIP3   OH277263   0.697   1.476   1.586 -0.7351  0.1211  0.5888
18591TIP3    H177264   0.755   1.538   1.543 -1.1825  2.1914  2.8906
18591TIP3    H277265   0.754   1.425   1.644 -0.6783 -0.3071  0.1630
18592TIP3   OH277266   1.049   4.350   0.801 -0.4980  0.2672 -0.4543
18592TIP3    H177267   0.990   4.363   0.726 -0.8817  1.3380  0.0265
18592TIP3    H277268   1.021   4.415   0.865 -0.7349 -1.2213  0.9838
18593TIP3   OH277269   4.565   1.330  16.107  0.3861 -0.6124  0.3702
18593TIP3    H177270   4.634   1.335  16.041 -0.1501  2.4079 -0.0479
18593TIP3    H277271   4.593   1.390  16.176 -1.7527  0.6063  0.2324
18594TIP3   OH277272   2.239   3.402  14.066  0.6126  0.3348 -0.2860
18594TIP3    H177273   2.192   3.318  14.069  1.8746 -0.4075 -0.9399
18594TIP3    H277274   2.232   3.436  14.155 -0.6037 -0.0845 -0.2150
18595TIP3   OH277275   1.979   5.711  15.409  0.5229  0.0457  0.1731
18595TIP3    H177276   1.971   5.807  15.413  0.7707  0.0393  0.8482
18595TIP3    H277277   2.032   5.688  15.485  3.9583 -0.2573 -2.2142
18596TIP3   OH277278   6.518   4.876  11.921 -0.2212 -0.1008  0.1800
18596TIP3    H177279   6.444   4.889  11.862 -0.9869  2.8898  1.7357
18596TIP3    H277280   6.514   4.950  11.981  1.8172 -1.9397  2.6528
18597TIP3   OH277281   3.764   5.955  15.319  0.0570  1.2488  0.9559
18597TIP3    H177282   3.792   5.867  15.346 -2.0168 -0.2900 -1.6502
18597TIP3    H277283   3.721   5.991  15.398  0.6162 -0.2052  1.9452
18598TIP3   OH277284   2.948   4.140   4.967  0.5767 -0.3420  0.1036
18598TIP3    H177285   3.035   4.151   4.928  0.0185 -0.5251 -1.2266
18598TIP3    H277286   2.895   4.209   4.928  0.1381 -0.1930  0.9556
18599TIP3   OH277287   1.775   5.347  12.733  0.2777  0.8281 -0.2098
18599TIP3    H177288   1.764   5.408  12.805 -1.5336  0.5282 -0.2075
18599TIP3    H277289   1.864   5.314  12.743 -0.3909 -0.2242  2.6860
18600TIP3   OH277290   0.764   3.308  14.404  0.3569 -0.4585  0.2177
18600TIP3    H177291   0.796   3.350  14.324 -0.7918  1.8218  0.9008
18600TIP3    H277292   0.807   3.223  14.405  1.8154  0.2035 -1.8780
18601TIP3   OH277293   4.187   5.368  16.190  0.1907 -0.2929 -0.6351
18601TIP3    H177294   4.160   5.278  16.209 -0.7214  0.2376  0.6508
18601TIP3    H277295   4.218   5.402  16.274  1.2983  0.3385 -1.2891
18602TIP3   OH277296   6.059   6.358  14.860 -0.4695 -0.4316  0.0131
18602TIP3    H177297   6.124   6.424  14.835 -1.6572  1.3299  1.4446
18602TIP3    H277298   6.005   6.348  14.782  0.8427 -1.1164 -0.8314
18603TIP3   OH277299   5.139   5.872   4.720 -0.2530  0.0892 -0.0787
18603TIP3    H177300   5.065   5.869   4.658  0.2925  0.3398 -0.7496
18603TIP3    H277301   5.216   5.879   4.664  0.4998 -2.9492  0.5093
18604TIP3   OH277302   2.893   1.080  11.848  0.0967  0.2286 -0.0866
18604TIP3    H177303   2.960   1.120  11.793  1.4587 -0.4642  1.0494
18604TIP3    H277304   2.881   0.992  11.812  0.2793  0.1179  0.1237
18605TIP3   OH277305   1.609   4.918  13.285 -0.0085 -0.0038  0.0622
18605TIP3    H177306   1.530   4.867  13.267 -0.9948  1.8366 -1.0229
18605TIP3    H277307   1.594   5.001  13.240  2.8649  0.1191 -0.7673
18606TIP3   OH277308   0.499   0.909   2.858 -0.0910  0.6169 -0.8978
18606TIP3    H177309   0.560   0.926   2.786  1.7168 -0.1177  0.4156
18606TIP3    H277310   0.491   0.814   2.861  1.0221  0.5560  0.7948
18607TIP3   OH277311   6.417   3.635  13.185 -0.2120  0.1577 -0.0118
18607TIP3    H177312   6.406   3.676  13.271  1.5245 -1.5864  1.0814
18607TIP3    H277313   6.487   3.686  13.143  1.1774 -0.9339  0.9125
18608TIP3   OH277314   5.737   0.556  14.420  0.0768  0.5130 -0.3042
18608TIP3    H177315   5.717   0.474  14.375  2.0820 -0.2840  0.1803
18608TIP3    H277316   5.832   0.567  14.408  0.8202 -0.0495  4.1491
18609TIP3   OH277317   3.367   5.932   3.312 -0.3918 -0.1309  0.1024
18609TIP3    H177318   3.460   5.914   3.327 -0.9712 -3.3881  0.1918
18609TIP3    H277319   3.323   5.894   3.388 -1.9381 -0.4769 -0.9472
18610TIP3   OH277320   1.681   1.421   2.490 -0.1897 -0.6353  0.0368
18610TIP3    H177321   1.709   1.415   2.582  0.4197 -0.6970 -0.1482
18610TIP3    H277322   1.727   1.349   2.447  0.4110  0.0825 -0.5338
18611TIP3   OH277323   3.287   6.252   1.028 -0.6026  0.0388  0.0624
18611TIP3    H177324   3.286   6.342   1.060  0.6389  0.0729  0.0382
18611TIP3    H277325   3.197   6.222   1.039 -1.3360  1.7024 -1.1793
18612TIP3   OH277326   2.926   3.852   5.896 -0.8297  0.2271 -0.6865
18612TIP3    H177327   3.019   3.874   5.898 -0.0679 -2.7419 -0.8147
18612TIP3    H277328   2.898   3.856   5.987  0.4057 -2.6104 -0.1430
18613TIP3   OH277329   1.093   4.735  16.669  0.5315  0.2078 -0.2421
18613TIP3    H177330   1.034   4.775  16.605 -0.4520 -0.5790  0.1593
18613TIP3    H277331   1.127   4.657  16.626  2.9370  1.7758 -1.2516
18614TIP3   OH277332   1.709   4.415   3.272 -0.5748 -0.1334 -0.1665
18614TIP3    H177333   1.667   4.329   3.263 -0.0055 -0.2569 -1.7886
18614TIP3    H277334   1.774   4.417   3.201 -1.3521  2.0794 -0.8467
18615TIP3   OH277335   2.963   5.797   3.507 -0.1063  0.6231  0.1943
18615TIP3    H177336   3.006   5.713   3.491  0.4941  0.5050  2.2558
18615TIP3    H277337   2.978   5.848   3.428  2.5383  0.0127  0.2700
18616TIP3   OH277338   0.379   3.677  14.910 -0.0557  0.0373  0.8640
18616TIP3    H177339   0.339   3.762  14.897 -1.2639 -0.7731 -0.8726
18616TIP3    H277340   0.467   3.697  14.943  0.2005  2.0144 -0.8736
18617TIP3   OH277341   3.791   2.720  12.935 -0.1043 -0.0444 -0.5432
18617TIP3    H177342   3.719   2.664  12.964  0.2188  0.1867  0.7098
18617TIP3    H277343   3.814   2.772  13.012  0.2992  1.0697 -1.4007
18618TIP3   OH277344   6.808   5.578  15.487 -0.1935  0.3184  0.0207
18618TIP3    H177345   6.887   5.602  15.438  1.8417  0.3080  3.2139
18618TIP3    H277346   6.832   5.497  15.532 -2.9714 -1.1710 -1.0721
18619TIP3   OH277347   4.855   0.270   0.979  0.6513 -0.3269  0.6592
18619TIP3    H177348   4.816   0.187   1.005  1.3957 -1.0294 -0.4568
18619TIP3    H277349   4.873   0.315   1.062 -1.0790 -0.6464  1.2211
18620TIP3   OH277350   3.467   3.312   2.096 -0.1050 -0.2841  0.3499
18620TIP3    H177351   3.556   3.327   2.128 -0.1546 -0.1752  0.4372
18620TIP3    H277352   3.412   3.370   2.149 -0.1886 -0.1034  0.0659
18621TIP3   OH277353   2.972   0.135  17.061  0.5564 -0.4976  0.3832
18621TIP3    H177354   2.909   0.199  17.095  0.7336 -0.9623  1.5839
18621TIP3    H277355   2.933   0.050  17.079  1.3577 -0.7825  0.7933
18622TIP3   OH277356   3.690   2.321   1.898  0.4547  0.1780 -0.0501
18622TIP3    H177357   3.752   2.284   1.835  1.1538  0.1168  0.6676
18622TIP3    H277358   3.727   2.407   1.919  0.2347  0.1921  0.2802
18623TIP3   OH277359   5.387   0.305  16.388  0.1813  0.1143 -0.1126
18623TIP3    H177360   5.464   0.282  16.439  0.6770 -1.3144 -1.4424
18623TIP3    H277361   5.340   0.369  16.441  1.1291 -0.6698  1.7139
18624TIP3   OH277362   2.481   2.158  16.898  0.7942 -0.3103 -0.3162
18624TIP3    H177363   2.481   2.064  16.877  0.2109 -0.0120 -1.7204
18624TIP3    H277364   2.524   2.199  16.823 -2.5431  0.9363 -1.6082
18625TIP3   OH277365   1.585   4.097  15.892  0.5476 -0.3816  0.4772
18625TIP3    H177366   1.620   4.186  15.888  0.3980 -0.2203  2.2833
18625TIP3    H277367   1.513   4.097  15.829  0.4924  0.8012  0.5247
18626TIP3   OH277368   4.264   1.291   1.550 -0.1114  0.1743 -0.2080
18626TIP3    H177369   4.186   1.236   1.561 -0.6969  0.8595 -0.8932
18626TIP3    H277370   4.280   1.290   1.456  1.0950 -0.4878  0.0007
18627TIP3   OH277371   0.110   2.643   5.678  0.3211  0.1024  0.1343
18627TIP3    H177372   0.196   2.608   5.653 -0.6429 -1.2351 -1.4215
18627TIP3    H277373   0.062   2.567   5.710 -0.8654  0.5071 -0.6575
18628TIP3   OH277374   3.289   0.549  14.570  0.2291 -0.2706  0.0072
18628TIP3    H177375   3.311   0.569  14.479  0.3531 -2.7328 -0.5335
18628TIP3    H277376   3.368   0.573  14.619  0.2259  0.8949 -0.5377
18629TIP3   OH277377   1.964   2.920  14.362  0.4566  0.2686  0.2287
18629TIP3    H177378   2.033   2.886  14.417 -1.3084 -0.1701  2.2485
18629TIP3    H277379   1.957   3.013  14.386  0.6996  0.4420 -0.3572
18630TIP3   OH277380   2.716   6.612   5.193  0.5419  0.1512 -0.3470
18630TIP3    H177381   2.769   6.622   5.114 -1.1995  1.6893 -1.3685
18630TIP3    H277382   2.759   6.542   5.243  3.5157  1.3527 -1.1066
18631TIP3   OH277383   0.708   4.945   0.572 -0.3197 -0.1408  0.1890
18631TIP3    H177384   0.634   4.930   0.514  0.4191 -1.1890 -0.5051
18631TIP3    H277385   0.763   4.867   0.562  1.6316  1.2896 -0.4534
18632TIP3   OH277386   1.876   3.310   2.558  0.5433  0.1588 -0.0274
18632TIP3    H177387   1.905   3.276   2.473  0.8490 -2.2444  0.9939
18632TIP3    H277388   1.784   3.335   2.543  1.1074  1.4182 -1.5025
18633TIP3   OH277389   4.940   0.701   4.037 -0.2208 -0.1542  0.2361
18633TIP3    H177390   4.953   0.769   4.104  1.0206 -1.1213  1.0046
18633TIP3    H277391   4.915   0.749   3.958 -1.4448  1.0336  1.3111
18634TIP3   OH277392   5.916   1.221   3.976  0.2966 -0.0441  0.1880
18634TIP3    H177393   5.963   1.222   3.893 -1.0971  0.5877 -0.6249
18634TIP3    H277394   5.858   1.298   3.971  1.5330  1.1000  2.5351
18635TIP3   OH277395   0.455   1.100   3.981  0.5344  0.2087 -0.0639
18635TIP3    H177396   0.455   1.050   4.062  2.9124 -1.2470 -0.9273
18635TIP3    H277397   0.388   1.058   3.927  1.9376 -1.5507 -0.4656
18636TIP3   OH277398   5.578   6.352   1.822  0.0006 -0.6249 -0.2911
18636TIP3    H177399   5.509   6.295   1.856 -0.8071  0.0657 -0.7555
18636TIP3    H277400   5.596   6.414   1.893 -0.2641 -0.4492 -0.3756
18637TIP3   OH277401   6.791   5.327  15.804 -0.7487 -0.4006 -0.0334
18637TIP3    H177402   6.785   5.304  15.711 -0.5574  0.6213 -0.3079
18637TIP3    H277403   6.744   5.257  15.850  0.5881 -1.7903 -0.7668
18638TIP3   OH277404   4.139   1.987  11.401 -0.7284  1.0321 -0.8744
18638TIP3    H177405   4.049   2.003  11.371 -0.2575  0.4433 -2.6515
18638TIP3    H277406   4.191   1.983  11.321  0.6046 -0.4763  0.0304
18639TIP3   OH277407   0.119   1.137   7.097  0.1625  0.2379  0.4142
18639TIP3    H177408   0.121   1.047   7.130  1.1482  0.4328  0.9038
18639TIP3    H277409   0.211   1.156   7.075 -0.2663  0.6069 -1.0963
18640TIP3   OH277410   2.120   0.202   5.967 -0.3506 -0.6151  0.7715
18640TIP3    H177411   2.156   0.170   6.049 -0.6206 -0.1904  1.0586
18640TIP3    H277412   2.030   0.168   5.966 -1.0892  1.2509  1.7230
18641TIP3   OH277413   4.477   3.057  16.758  0.4653  0.2497 -0.2178
18641TIP3    H177414   4.496   2.983  16.816  1.3487  0.6539  0.0245
18641TIP3    H277415   4.481   3.020  16.670 -1.5730 -0.5108  0.0024
18642TIP3   OH277416   1.671   5.763  12.122 -0.5325 -0.4772 -0.1040
18642TIP3    H177417   1.687   5.758  12.216 -1.0836 -1.0041 -0.0384
18642TIP3    H277418   1.705   5.848  12.096  1.6292 -1.2129  0.1981
18643TIP3   OH277419   6.628   4.082  15.009 -0.0238  0.4144 -0.2863
18643TIP3    H177420   6.642   4.130  15.090  2.0099  1.2707 -1.1049
18643TIP3    H277421   6.590   4.145  14.949 -2.6329 -0.5249  0.3084
18644TIP3   OH277422   6.655   3.002  11.160 -0.0215  0.3043 -0.1995
18644TIP3    H177423   6.624   2.915  11.184 -2.0109  0.8064 -0.8487
18644TIP3    H277424   6.623   3.059  11.230  1.0630  0.5761  0.0950
18645TIP3   OH277425   4.196   5.694   2.014  0.3403 -0.3537  0.1588
18645TIP3    H177426   4.258   5.648   2.071 -0.1958 -0.1858  0.8753
18645TIP3    H277427   4.121   5.635   2.009 -0.1539  0.2300  0.6932
18646TIP3   OH277428   3.150   5.774   1.991  0.2762 -0.0535 -0.3867
18646TIP3    H177429   3.141   5.703   1.928 -1.2550 -0.7174  0.5507
18646TIP3    H277430   3.174   5.850   1.938  0.1548 -0.8559 -1.6180
18647TIP3   OH277431   0.655   5.771  10.902  0.3014  0.3770  0.1414
18647TIP3    H177432   0.683   5.833  10.835  1.4173  1.7208  1.7770
18647TIP3    H277433   0.736   5.730  10.932 -0.4330 -1.9238 -0.9259
18648TIP3   OH277434   0.537   0.593  12.261  0.3058 -0.1863 -0.3029
18648TIP3    H177435   0.530   0.527  12.331  0.7354  0.7504  0.6293
18648TIP3    H277436   0.597   0.554  12.198 -0.5662 -1.3066 -0.4576
18649TIP3   OH277437   4.942   2.326   6.190  0.2006  0.7061 -0.6619
18649TIP3    H177438   5.032   2.357   6.196  0.6509 -0.6927  0.0301
18649TIP3    H277439   4.934   2.291   6.101  0.9019 -0.8395 -0.1287
18650TIP3   OH277440   0.201   3.264  12.003  0.2178 -0.7039  0.3871
18650TIP3    H177441   0.125   3.213  11.976  0.9568 -0.5429 -2.1079
18650TIP3    H277442   0.213   3.242  12.095 -2.3751 -1.3089  0.6170
18651TIP3   OH277443   1.592   6.672  16.882 -0.4816 -0.4639 -0.0063
18651TIP3    H177444   1.686   6.666  16.898 -0.3058 -0.6535 -1.0820
18651TIP3    H277445   1.560   6.583  16.893 -0.2056 -0.7712 -1.6414
18652TIP3   OH277446   3.296   0.937  12.584  0.2011  0.1584  0.0276
18652TIP3    H177447   3.280   0.932  12.678 -1.4468  0.9129 -0.1873
18652TIP3    H277448   3.255   0.859  12.548  1.1830 -0.3395 -0.0356
18653TIP3   OH277449   1.666   5.968  12.933 -0.8339  0.1450  0.1868
18653TIP3    H177450   1.607   5.922  12.992 -0.2023  0.8341  1.3584
18653TIP3    H277451   1.750   5.923  12.942 -1.1077 -0.7171 -1.3356
18654TIP3   OH277452   2.151   3.386  15.573  0.2933 -0.4545  0.1199
18654TIP3    H177453   2.094   3.337  15.632  0.4114 -1.3650 -0.5144
18654TIP3    H277454   2.239   3.369  15.605  0.3653 -1.0383 -0.3720
18655TIP3   OH277455   4.408   6.388   3.406  0.7677 -0.1465  0.1480
18655TIP3    H177456   4.392   6.307   3.454 -1.8730  0.1010 -0.2650
18655TIP3    H277457   4.405   6.457   3.472 -0.7999 -0.0168 -0.0448
18656TIP3   OH277458   6.330   2.667   6.579 -0.0974  0.7196 -0.6316
18656TIP3    H177459   6.281   2.678   6.661 -2.3764  0.0566 -1.8686
18656TIP3    H277460   6.355   2.575   6.578  0.2580  0.8140 -0.5060
18657TIP3   OH277461   2.475   3.328  15.413  0.3670 -0.6995  0.0012
18657TIP3    H177462   2.444   3.310  15.501  0.0034  1.2840  0.3026
18657TIP3    H277463   2.569   3.341  15.423  0.0325  1.6639  0.4963
18658TIP3   OH277464   6.712   3.439  16.179  0.2168  0.0503  0.3423
18658TIP3    H177465   6.722   3.488  16.098  3.0540  0.4282  0.8309
18658TIP3    H277466   6.802   3.422  16.207 -0.7144 -2.2582  2.1016
18659TIP3   OH277467   4.791   3.045  13.500 -0.3002 -0.2770  0.3352
18659TIP3    H177468   4.822   2.956  13.484 -2.8342 -1.0400 -0.5478
18659TIP3    H277469   4.836   3.098  13.435  0.4213 -1.0836  0.1665
18660TIP3   OH277470   0.837   3.075  16.618 -0.2086  0.0622 -0.4957
18660TIP3    H177471   0.780   3.000  16.636 -1.7292  1.2976 -0.0043
18660TIP3    H277472   0.922   3.050  16.654 -0.5211 -1.6833 -0.9244
18661TIP3   OH277473   2.113   2.293  13.748 -0.4510 -0.1226 -0.5856
18661TIP3    H177474   2.039   2.254  13.794 -0.2557  0.4338  0.2199
18661TIP3    H277475   2.166   2.218  13.720 -1.1158 -0.5059 -0.8365
18662TIP3   OH277476   6.373   6.788  16.845  0.8385  0.2863  0.1684
18662TIP3    H177477   6.341   6.844  16.775  0.7806 -1.0045 -0.8617
18662TIP3    H277478   6.393   6.848  16.917  1.4903  1.6991 -1.1614
18663TIP3   OH277479   3.356   6.802   2.574  0.5578 -0.0804  0.0509
18663TIP3    H177480   3.313   6.887   2.565 -0.6352 -0.6562  0.1503
18663TIP3    H277481   3.422   6.815   2.642  0.7171  0.8912 -0.2839
18664TIP3   OH277482   0.662   2.048  16.745 -0.2037  0.5011 -0.1475
18664TIP3    H177483   0.616   2.024  16.825 -0.1787  0.8161 -0.0383
18664TIP3    H277484   0.594   2.050  16.677 -0.2818  0.5747 -0.0656
18665TIP3   OH277485   1.993   2.080   3.320 -0.4094  0.4237 -0.2157
18665TIP3    H177486   1.956   2.162   3.354  0.7958  1.3909 -1.1522
18665TIP3    H277487   2.023   2.034   3.398  0.4995  1.6921  0.2130
18666TIP3   OH277488   5.484   1.559   1.649 -0.1023 -0.3424  0.0087
18666TIP3    H177489   5.569   1.536   1.611  0.5098 -2.1909  2.4429
18666TIP3    H277490   5.476   1.504   1.727 -2.4552  1.5657  1.1763
18667TIP3   OH277491   3.221   4.578  14.634 -0.0972 -0.1199  0.5218
18667TIP3    H177492   3.128   4.555  14.646 -0.0658 -0.1439  0.7263
18667TIP3    H277493   3.253   4.592  14.723 -0.2612  1.3294  0.3666
18668TIP3   OH277494   0.904   5.869   4.851 -0.1944  0.2855 -0.0397
18668TIP3    H177495   0.890   5.952   4.896 -0.1691  0.5119 -0.4485
18668TIP3    H277496   0.971   5.888   4.786  2.0263 -0.7891  1.8835
18669TIP3   OH277497   3.225   2.077   6.052 -0.4619 -0.2937  0.2555
18669TIP3    H177498   3.281   2.130   5.996  0.5540  1.3255  2.7741
18669TIP3    H277499   3.279   2.002   6.077  0.0979  0.5080  1.4736
18670TIP3   OH277500   4.999   5.612   2.834 -0.5169 -0.3911  0.4152
18670TIP3    H177501   5.018   5.528   2.876 -0.0837 -0.1992  0.6094
18670TIP3    H277502   4.904   5.612   2.822 -0.6986 -0.3059  1.7147
18671TIP3   OH277503   5.422   0.286  12.684  0.2446  0.2472 -0.3761
18671TIP3    H177504   5.346   0.272  12.740 -0.0790 -0.5559 -1.0041
18671TIP3    H277505   5.448   0.198  12.656  1.5995  0.4800  0.0851
18672TIP3   OH277506   1.240   4.674  12.037  0.3067 -0.0065  0.6022
18672TIP3    H177507   1.331   4.698  12.023 -0.6297  2.9364 -0.9021
18672TIP3    H277508   1.201   4.751  12.079 -2.1007 -0.1490 -1.2808
18673TIP3   OH277509   2.200   6.505   1.323 -0.5979 -0.1899 -0.5153
18673TIP3    H177510   2.190   6.593   1.359 -1.2237 -0.6827  0.5300
18673TIP3    H277511   2.161   6.448   1.388  1.8140 -1.4622 -0.1386
18674TIP3   OH277512   6.112   6.323   1.767  0.8794 -0.1097  0.5081
18674TIP3    H177513   6.205   6.338   1.785  0.7069  1.0202  0.5057
18674TIP3    H277514   6.067   6.376   1.832  0.2350 -0.6189  0.4732
18675TIP3   OH277515   3.768   5.441  16.908  0.7427 -0.4122 -0.4106
18675TIP3    H177516   3.728   5.462  16.992 -0.4351 -2.1402 -0.5125
18675TIP3    H277517   3.765   5.524  16.859 -0.8834 -0.0072  0.3226
18676TIP3   OH277518   5.489   4.798   4.368  0.0408  0.3856 -0.0483
18676TIP3    H177519   5.464   4.792   4.275 -0.8784  0.5552  0.1789
18676TIP3    H277520   5.417   4.756   4.415  0.1442  0.9660  0.6387
18677TIP3   OH277521   3.303   1.194  15.707  0.0207  0.0644 -0.0763
18677TIP3    H177522   3.250   1.221  15.783 -0.3202  0.2144 -0.3674
18677TIP3    H277523   3.240   1.183  15.636  0.1178 -1.8938  0.1302
18678TIP3   OH277524   2.541   5.577   4.534  0.1869  0.5011  0.7965
18678TIP3    H177525   2.599   5.653   4.533  0.8347  0.0014 -0.3147
18678TIP3    H277526   2.575   5.520   4.465 -1.9888  0.4593 -0.2825
18679TIP3   OH277527   3.622   1.900   5.316  0.4584 -0.3159  0.5202
18679TIP3    H177528   3.683   1.832   5.342 -0.6384 -2.8079 -3.0045
18679TIP3    H277529   3.537   1.869   5.347  0.2603  0.5672  0.8625
18680TIP3   OH277530   2.644   2.347  13.138 -0.1700 -0.2094  0.5365
18680TIP3    H177531   2.671   2.426  13.091  1.0864 -0.2977  1.0999
18680TIP3    H277532   2.600   2.379  13.216 -1.0017 -0.0665  0.0128
18681TIP3   OH277533   2.431   4.368  16.506  0.1780  0.3375 -0.4302
18681TIP3    H177534   2.482   4.300  16.460  0.8242  1.1244 -0.8964
18681TIP3    H277535   2.408   4.430  16.437  1.4867  1.7385  0.3629
18682TIP3   OH277536   0.217   3.215   2.769  0.4835  0.0170 -0.2116
18682TIP3    H177537   0.244   3.125   2.787  0.1549  0.0178  0.2783
18682TIP3    H277538   0.127   3.207   2.737  0.1633  0.2468  0.6303
18683TIP3   OH277539   6.664   4.466  17.217 -0.0429  0.6154  0.2153
18683TIP3    H177540   6.643   4.526  17.146 -1.7507  0.7578  0.8213
18683TIP3    H277541   6.581   4.453  17.264 -0.1026 -3.3904 -0.7876
18684TIP3   OH277542   6.799   1.190  15.514 -0.6266  0.0145  0.1753
18684TIP3    H177543   6.877   1.210  15.566 -0.4418 -1.1698  0.3705
18684TIP3    H277544   6.826   1.206  15.423 -1.0625  2.4473  0.4375
18685TIP3   OH277545   6.522   3.799   1.643 -0.6457 -0.3884  0.5215
18685TIP3    H177546   6.558   3.868   1.698  0.4275 -0.9512  0.5259
18685TIP3    H277547   6.428   3.818   1.640 -0.7207 -0.3652  2.5630
18686TIP3   OH277548   0.470   0.875   3.723  0.8066  0.2111 -0.0940
18686TIP3    H177549   0.454   0.821   3.800 -2.0077  0.4903 -0.4194
18686TIP3    H277550   0.533   0.824   3.671  0.2486 -1.5078  0.8645
18687TIP3   OH277551   1.748   5.855   5.235  0.1722 -0.1456  0.0269
18687TIP3    H177552   1.757   5.821   5.324 -0.0883  0.6082  0.3468
18687TIP3    H277553   1.756   5.778   5.179  0.9696 -0.5346  0.6708
18688TIP3   OH277554   6.525   4.804  16.337  0.4144  0.2295 -0.5109
18688TIP3    H177555   6.502   4.753  16.260  0.9010 -0.8291  0.0300
18688TIP3    H277556   6.454   4.788  16.399  1.2687 -0.9614  0.1903
18689TIP3   OH277557   1.151   4.208  14.115  0.7277  0.2470 -0.0962
18689TIP3    H177558   1.156   4.115  14.136 -1.4804  0.0865 -0.2456
18689TIP3    H277559   1.150   4.252  14.200 -0.6001  0.0023  0.0194
18690TIP3   OH277560   6.484   5.009  11.563 -0.3734 -0.0663 -0.2498
18690TIP3    H177561   6.436   5.078  11.517  1.0246  1.2440  0.2279
18690TIP3    H277562   6.508   5.048  11.647  0.1201 -1.2686  0.1791
18691TIP3   OH277563   0.640   1.836  13.323 -0.4251  0.0936  0.3524
18691TIP3    H177564   0.608   1.749  13.298 -0.4901 -0.2440  1.6072
18691TIP3    H277565   0.601   1.894  13.258 -1.7356 -0.6085  0.4851
18692TIP3   OH277566   5.650   5.975   6.254 -0.2997 -0.0736 -0.3783
18692TIP3    H177567   5.706   5.928   6.192  0.4439  0.2669  0.0230
18692TIP3    H277568   5.698   6.055   6.273 -1.3080  0.5997 -0.6404
18693TIP3   OH277569   3.371   4.189  12.269  0.0573 -0.6060  0.4506
18693TIP3    H177570   3.374   4.153  12.181  0.4692 -1.0546  0.6483
18693TIP3    H277571   3.286   4.234  12.273  0.0795 -0.5046 -0.2008
18694TIP3   OH277572   0.635   1.065  15.001 -0.3844  0.1899  0.2089
18694TIP3    H177573   0.675   1.060  14.914 -1.5525 -0.9969 -0.2857
18694TIP3    H277574   0.682   0.999  15.053  0.6723  1.2629  0.6562
18695TIP3   OH277575   4.107   3.025  15.673  0.3982 -0.0296 -0.3217
18695TIP3    H177576   4.182   3.080  15.696 -0.7382  1.3308  0.2169
18695TIP3    H277577   4.086   3.049  15.583 -0.1863  0.5245 -0.0395
18696TIP3   OH277578   1.143   0.597  15.125 -0.3030  0.3759  0.0981
18696TIP3    H177579   1.146   0.686  15.091 -0.0267 -0.5412 -2.3888
18696TIP3    H277580   1.177   0.604  15.214  1.7596  2.4248 -0.7922
18697TIP3   OH277581   1.763   0.900  13.057  0.0963  0.0595 -0.6030
18697TIP3    H177582   1.742   0.807  13.059  1.7512 -0.3205  0.2611
18697TIP3    H277583   1.857   0.904  13.036  0.0621  1.5229 -0.5920
18698TIP3   OH277584   4.785   2.656  14.472 -0.4977 -0.0305 -0.1761
18698TIP3    H177585   4.777   2.561  14.468  0.3085 -0.0942 -0.2775
18698TIP3    H277586   4.722   2.682  14.539 -1.0483 -0.5921 -0.4732
18699TIP3   OH277587   5.043   3.484  17.054  0.2442  0.3925  0.1547
18699TIP3    H177588   5.113   3.494  16.990  1.1439 -0.5168  0.9755
18699TIP3    H277589   5.079   3.424  17.119 -2.1178 -1.9036 -0.5756
18700TIP3   OH277590   2.527   4.848  12.373  0.2412 -0.1003  0.2215
18700TIP3    H177591   2.587   4.898  12.429  0.1810 -0.1489  0.3295
18700TIP3    H277592   2.442   4.854  12.418  0.1153  0.1615 -0.0461
18701TIP3   OH277593   4.550   2.940   2.842  0.0244 -0.8239  0.0700
18701TIP3    H177594   4.546   2.984   2.757  0.8110 -1.7679 -0.4647
18701TIP3    H277595   4.507   3.001   2.902 -0.6536 -0.2000 -1.0231
18702TIP3   OH277596   1.467   1.371  15.420  0.0898  0.0535  0.5663
18702TIP3    H177597   1.452   1.329  15.335  4.6977  0.4381 -0.5207
18702TIP3    H277598   1.451   1.464  15.404  2.3442  0.3137 -0.2798
18703TIP3   OH277599   2.568   5.281  11.244  0.1913  0.1812 -0.4575
18703TIP3    H177600   2.495   5.252  11.189  0.3887 -0.6302 -0.2911
18703TIP3    H277601   2.646   5.249  11.199  0.3569 -0.4625  0.2689
18704TIP3   OH277602   5.549   4.478   6.273 -0.0202  0.0409  0.4507
18704TIP3    H177603   5.510   4.400   6.233 -1.6007  0.6590  0.7466
18704TIP3    H277604   5.546   4.460   6.367 -0.3546  0.4276  0.5179
18705TIP3   OH277605   5.325   1.046  12.120  0.0481  0.2069 -0.1126
18705TIP3    H177606   5.267   1.117  12.093  0.0224  0.0096 -0.5742
18705TIP3    H277607   5.408   1.088  12.140 -0.2575  0.4979  0.5825
18706TIP3   OH277608   1.053   2.114  17.214 -0.0977 -0.0204 -0.3041
18706TIP3    H177609   1.124   2.118  17.278 -0.1701  1.1087 -0.2861
18706TIP3    H277610   0.975   2.094  17.266 -0.0238  0.1047 -0.1438
18707TIP3   OH277611   2.343   6.332  14.510 -0.4499 -0.7874 -0.5025
18707TIP3    H177612   2.434   6.334  14.539 -0.1545  0.4579 -1.5096
18707TIP3    H277613   2.325   6.239  14.494  0.2786 -1.1645  0.8011
18708TIP3   OH277614   4.278   5.412   3.754  0.2697  0.3321 -0.0007
18708TIP3    H177615   4.314   5.378   3.672  1.5247 -1.8019  1.3628
18708TIP3    H277616   4.355   5.436   3.806 -0.4602  0.7386  0.9093
18709TIP3   OH277617   4.121   4.605   0.384  0.2037  0.0515  0.2367
18709TIP3    H177618   4.103   4.692   0.348  2.4751  0.4184 -0.0712
18709TIP3    H277619   4.192   4.618   0.446 -0.3012 -1.3899  1.1533
18710TIP3   OH277620   4.636   5.477   5.347  0.2509  0.2959 -0.1573
18710TIP3    H177621   4.725   5.511   5.344  2.0129 -4.0841 -0.2406
18710TIP3    H277622   4.609   5.487   5.438  1.1384  0.8836  0.0464
18711TIP3   OH277623   1.920   1.043   2.175 -0.3136 -0.1007  0.3106
18711TIP3    H177624   1.887   1.132   2.170  1.4563  0.5643  0.1505
18711TIP3    H277625   1.872   0.995   2.108 -1.0495  0.7925  0.2005
18712TIP3   OH277626   3.991   4.805   5.407  0.1556 -0.1479  0.5701
18712TIP3    H177627   3.901   4.773   5.413  0.3972 -0.7882  0.8302
18712TIP3    H277628   4.001   4.830   5.315 -0.4801  0.5007  0.6721
18713TIP3   OH277629   5.547   4.113  10.872 -0.0966  0.0263 -0.6988
18713TIP3    H177630   5.493   4.190  10.885  1.1439  1.1190 -1.7728
18713TIP3    H277631   5.541   4.064  10.954 -0.7568  1.3460  0.0497
18714TIP3   OH277632   6.715   0.732  10.973  0.2532  0.3072  0.3049
18714TIP3    H177633   6.762   0.654  10.946  0.5177  0.6578 -0.2780
18714TIP3    H277634   6.630   0.725  10.930 -0.4038 -0.5432  1.7119
18715TIP3   OH277635   2.159   2.000  14.071 -0.7210  0.6037 -0.5905
18715TIP3    H177636   2.071   1.990  14.034 -0.8251  0.8477 -0.4056
18715TIP3    H277637   2.216   2.002  13.994 -0.8389  0.0573 -0.6954
18716TIP3   OH277638   3.970   5.826  12.634  0.1605 -0.1118  0.5454
18716TIP3    H177639   3.983   5.831  12.729  0.7236 -1.4957  0.5474
18716TIP3    H277640   4.058   5.813  12.599  0.0655  1.2658 -0.2396
18717TIP3   OH277641   0.525   3.510   2.165 -0.6258 -0.3256 -0.2790
18717TIP3    H177642   0.441   3.490   2.207  0.1368  0.2717  1.6134
18717TIP3    H277643   0.530   3.606   2.167  0.0267 -0.3567 -0.5135
18718TIP3   OH277644   0.404   2.922   4.967 -0.1818 -0.1643 -0.2479
18718TIP3    H177645   0.471   2.909   4.900  0.6228 -1.0861  0.7234
18718TIP3    H277646   0.450   2.967   5.038 -0.4891 -1.1323  0.5801
18719TIP3   OH277647   2.893   1.374  15.258 -0.2562 -0.0154 -0.1696
18719TIP3    H177648   2.931   1.393  15.172  0.3901  0.6145  0.2481
18719TIP3    H277649   2.948   1.423  15.319 -0.9221 -0.1933  0.5709
18720TIP3   OH277650   3.763   3.536  15.776  0.0058 -0.1826 -0.1895
18720TIP3    H177651   3.808   3.620  15.777 -0.5410  0.1904 -3.0470
18720TIP3    H277652   3.680   3.553  15.820  0.6098  0.3254  0.7714
18721TIP3   OH277653   0.538   5.042  16.722 -0.8112 -0.7485 -0.2651
18721TIP3    H177654   0.501   5.085  16.645  0.4081  1.4899  0.3527
18721TIP3    H277655   0.591   4.971  16.687  1.2992  1.4320 -1.6417
18722TIP3   OH277656   4.649   1.465   4.751  0.1295  0.4260  0.3771
18722TIP3    H177657   4.718   1.461   4.685  0.0276  0.0302  0.2964
18722TIP3    H277658   4.635   1.559   4.765  0.1357  0.5103 -0.1800
18723TIP3   OH277659   2.351   1.983   0.058  0.1733  0.3683 -0.0118
18723TIP3    H177660   2.279   1.934   0.021  0.3879 -2.6890  3.3637
18723TIP3    H277661   2.314   2.026   0.136  1.3606  0.9656  0.2398
18724TIP3   OH277662   5.962   0.996  12.246 -0.6681  0.4137  0.3759
18724TIP3    H177663   6.048   0.956  12.238  1.2740  4.0009  1.9757
18724TIP3    H277664   5.943   1.031  12.159 -1.3883 -1.9904 -0.4532
18725TIP3   OH277665   2.972   1.437  16.635  0.1354 -0.0062 -0.1392
18725TIP3    H177666   3.010   1.395  16.713 -0.6589 -1.6718 -0.6394
18725TIP3    H277667   2.878   1.433  16.649  0.0539  2.8107  0.4016
18726TIP3   OH277668   0.817   6.751   5.701 -0.3179  0.3322  0.3658
18726TIP3    H177669   0.825   6.656   5.702  0.4954  0.3986  1.3322
18726TIP3    H277670   0.883   6.781   5.763  1.5512  1.6811 -2.1555
18727TIP3   OH277671   4.288   4.207  14.508 -0.1053  0.1269  0.4504
18727TIP3    H177672   4.306   4.116  14.529  0.2923  0.3493  1.0806
18727TIP3    H277673   4.236   4.203  14.428  1.3686 -0.5862 -0.4957
18728TIP3   OH277674   5.935   5.431   3.944  0.2342  0.2822  0.5532
18728TIP3    H177675   6.012   5.374   3.933 -0.6010 -1.2023  2.0424
18728TIP3    H277676   5.971   5.514   3.974  1.3831  0.1162 -0.3396
18729TIP3   OH277677   2.587   3.381  16.047  0.0445 -0.2172 -0.2769
18729TIP3    H177678   2.606   3.421  15.962 -0.4500 -0.5663 -0.5605
18729TIP3    H277679   2.611   3.289  16.036  3.1764  0.3885  1.0386
18730TIP3   OH277680   1.597   1.068   5.124  0.7540  0.2464 -0.2752
18730TIP3    H177681   1.678   1.045   5.078  0.3137 -1.2228 -0.3411
18730TIP3    H277682   1.627   1.120   5.199  1.9418 -1.7849  0.7038
18731TIP3   OH277683   3.589   6.113  15.495  0.3596 -0.1426 -0.2545
18731TIP3    H177684   3.571   6.156  15.578  0.6208 -1.8672  0.7262
18731TIP3    H277685   3.527   6.151  15.434 -1.2032 -0.2860  1.2101
18732TIP3   OH277686   5.489   1.606  14.627  0.3129 -0.1314  0.0113
18732TIP3    H177687   5.513   1.685  14.675 -1.9686  0.5901  0.0065
18732TIP3    H277688   5.418   1.568  14.678  1.2261 -2.0938 -0.1095
18733TIP3   OH277689   5.928   4.328   5.139  0.2283 -0.0983  0.0247
18733TIP3    H177690   5.886   4.247   5.111 -0.8247  0.8161 -1.0760
18733TIP3    H277691   5.980   4.356   5.063  0.0351  0.6277  0.1576
18734TIP3   OH277692   6.373   0.243  15.280  0.5054 -0.3815 -0.3448
18734TIP3    H177693   6.306   0.248  15.348 -0.2184 -1.7481 -0.9256
18734TIP3    H277694   6.439   0.183  15.315  2.4946  2.5476  1.0878
18735TIP3   OH277695   4.530   2.078   5.728 -0.1146  0.1552  0.5515
18735TIP3    H177696   4.549   2.033   5.810  2.0527 -1.3269 -0.7044
18735TIP3    H277697   4.462   2.025   5.687  0.0025 -0.0643  0.6401
18736TIP3   OH277698   6.550   3.259   3.870 -0.0970  0.4135 -0.4675
18736TIP3    H177699   6.562   3.331   3.808  0.1721 -0.7833 -1.8313
18736TIP3    H277700   6.638   3.239   3.901 -0.2420  1.0855  0.4342
18737TIP3   OH277701   1.715   4.468   2.768 -0.0871  0.3927  0.1304
18737TIP3    H177702   1.641   4.476   2.828  1.9028  0.7158  2.6531
18737TIP3    H277703   1.722   4.553   2.726 -1.4714  0.1843 -0.5496
18738TIP3   OH277704   0.348   0.383  11.803  0.0893 -0.0708 -0.4633
18738TIP3    H177705   0.312   0.313  11.748 -1.1772 -0.1467  0.4647
18738TIP3    H277706   0.382   0.447  11.741  0.1859 -0.9503 -1.3300
18739TIP3   OH277707   2.920   4.018  16.192  0.1879 -0.0511  0.3865
18739TIP3    H177708   2.954   4.100  16.228  1.5500 -0.3594 -0.1642
18739TIP3    H277709   2.986   3.990  16.129 -0.2632 -1.5843  0.5703
18740TIP3   OH277710   3.844   1.869   0.268  0.1104  0.1268  0.0132
18740TIP3    H177711   3.937   1.889   0.265  0.1300 -0.0814 -3.9707
18740TIP3    H277712   3.800   1.954   0.259 -0.0627  0.1102  0.6948
18741TIP3   OH277713   0.406   0.543  13.550 -0.0152  0.4154  0.4983
18741TIP3    H177714   0.454   0.525  13.470 -3.1476  0.8281 -1.5711
18741TIP3    H277715   0.435   0.631  13.576  1.8127 -0.1573  0.4822
18742TIP3   OH277716   6.728   6.490   1.937  0.9035  0.2119 -0.1657
18742TIP3    H177717   6.809   6.468   1.890  0.7923 -1.9610  0.6236
18742TIP3    H277718   6.663   6.504   1.868  0.4048 -4.2772 -0.7564
18743TIP3   OH277719   1.814   4.818  11.797  0.9494  0.0227  0.1497
18743TIP3    H177720   1.813   4.755  11.869 -1.6118 -0.1909 -0.0403
18743TIP3    H277721   1.820   4.763  11.718 -2.0968 -0.1005 -0.0611
18744TIP3   OH277722   3.469   5.937   5.575  0.2226 -0.1457 -0.2651
18744TIP3    H177723   3.511   5.906   5.495  0.7091 -0.1769  0.0009
18744TIP3    H277724   3.435   5.858   5.616 -0.3548 -0.0871 -0.6269
18745TIP3   OH277725   2.112   3.984   0.896 -0.0878 -0.3154  0.2606
18745TIP3    H177726   2.165   3.969   0.974  1.4667  0.5638 -0.5929
18745TIP3    H277727   2.144   3.920   0.832 -1.1285 -0.8158  0.2313
18746TIP3   OH277728   2.342   1.474   0.674  0.0785 -0.2215 -0.2784
18746TIP3    H177729   2.264   1.445   0.721  1.3325 -0.3785  1.8046
18746TIP3    H277730   2.309   1.527   0.601 -2.0060 -1.7089 -0.4557
18747TIP3   OH277731   3.083   1.005  15.625  0.3357 -1.0265  0.6122
18747TIP3    H177732   3.118   0.979  15.710  1.3735  0.9153  0.8141
18747TIP3    H277733   2.997   1.042  15.645  0.6447 -0.4311  0.8283
18748TIP3   OH277734   1.497   6.087  12.742 -0.3687 -0.0431  0.1794
18748TIP3    H177735   1.481   6.181  12.733  1.1383  0.3152  1.0179
18748TIP3    H277736   1.554   6.080  12.819 -1.2309 -1.7236  0.6783
18749TIP3   OH277737   5.953   6.321   6.170 -0.7574 -0.4325  0.1784
18749TIP3    H177738   6.039   6.338   6.209 -1.3579  2.9036  0.1841
18749TIP3    H277739   5.973   6.287   6.083  0.5538 -1.3342  0.8107
18750TIP3   OH277740   3.611   5.484  13.560 -0.7266  0.1094  0.1480
18750TIP3    H177741   3.584   5.528  13.479 -2.4525 -0.4647  0.3760
18750TIP3    H277742   3.706   5.477  13.553 -0.8347  0.1866 -1.7663
18751TIP3   OH277743   0.933   3.567  16.814 -0.0718  0.3247 -0.2707
18751TIP3    H177744   0.975   3.482  16.797  0.6159  0.2698  1.5359
18751TIP3    H277745   1.005   3.624  16.843 -0.9413  0.7404  1.1175
18752TIP3   OH277746   5.939   2.898   4.105 -0.3463  0.8012  0.1196
18752TIP3    H177747   6.002   2.938   4.045 -0.4187  2.2510  0.9741
18752TIP3    H277748   5.954   2.943   4.188 -2.1958  0.8460  0.4468
18753TIP3   OH277749   5.045   5.010   4.359 -0.9118  0.1865  0.1782
18753TIP3    H177750   5.073   5.030   4.270 -0.0016 -0.3628  0.3350
18753TIP3    H277751   5.085   5.079   4.413 -1.4965  0.5443  0.1671
18754TIP3   OH277752   5.789   2.188  13.992  0.0628  0.0414  0.2368
18754TIP3    H177753   5.856   2.124  13.969  1.9755  2.0830 -0.0117
18754TIP3    H277754   5.774   2.239  13.912 -0.7223  0.5426  0.6846
18755TIP3   OH277755   1.285   3.320  10.900  0.0104 -0.4805 -0.3779
18755TIP3    H177756   1.229   3.263  10.848 -0.0492 -2.1996  1.4858
18755TIP3    H277757   1.374   3.294  10.876 -0.0120 -0.4408 -0.5031
18756TIP3   OH277758   5.769   5.834  16.071 -0.0215 -0.2363  0.5285
18756TIP3    H177759   5.748   5.761  16.129 -1.0615  0.2865  0.8206
18756TIP3    H277760   5.730   5.910  16.113 -0.5294  0.1907 -0.6987
18757TIP3   OH277761   3.383   4.758  16.246 -0.0056  0.4449 -0.2880
18757TIP3    H177762   3.340   4.839  16.220 -2.5962 -0.9963 -0.5866
18757TIP3    H277763   3.438   4.783  16.321 -0.7432  2.4535 -0.3987
18758TIP3   OH277764   5.322   1.091  11.588  0.2889  0.3964 -0.0943
18758TIP3    H177765   5.272   1.067  11.665 -0.4168  0.9395 -0.3816
18758TIP3    H277766   5.276   1.166  11.551 -0.0113 -0.5326 -1.6530
18759TIP3   OH277767   2.644   0.792  11.150 -0.0817 -0.1918  0.0096
18759TIP3    H177768   2.661   0.741  11.229  1.0682  0.1142 -0.0358
18759TIP3    H277769   2.658   0.730  11.078 -0.3975 -0.2686  0.0106
18760TIP3   OH277770   0.025   2.558  16.175 -0.1289 -0.1306 -0.3686
18760TIP3    H177771  -0.041   2.627  16.171 -0.8568 -0.8770 -1.5655
18760TIP3    H277772  -0.014   2.485  16.126  1.7946 -0.4132 -1.5113
18761TIP3   OH277773   3.806   2.241  11.127  0.9131  0.2743  0.3457
18761TIP3    H177774   3.810   2.203  11.039 -0.6144  1.6770 -0.3480
18761TIP3    H277775   3.713   2.239  11.150  1.4316 -1.2796  2.5000
18762TIP3   OH277776   6.444   4.720   4.092 -0.4893  0.1416  0.0664
18762TIP3    H177777   6.352   4.693   4.092 -0.1463 -1.0646  1.0674
18762TIP3    H277778   6.493   4.639   4.095  0.6437  0.7566 -1.2505
18763TIP3   OH277779   3.672   6.024   1.239 -1.2203  0.1847 -0.0361
18763TIP3    H177780   3.592   6.074   1.256 -3.1026 -3.0000  0.8544
18763TIP3    H277781   3.706   6.004   1.326  0.1944  0.9586 -0.4097
18764TIP3   OH277782   4.259   0.437   3.377  0.1362 -0.4995  0.5138
18764TIP3    H177783   4.195   0.482   3.433 -0.6405 -0.5320 -0.3346
18764TIP3    H277784   4.214   0.357   3.349  1.0067 -1.1294  0.8986
18765TIP3   OH277785   4.487   1.258  11.057 -0.3329  0.1353  0.6389
18765TIP3    H177786   4.401   1.295  11.076 -0.2894  0.7221 -0.2929
18765TIP3    H277787   4.490   1.251  10.962  0.0990 -1.2200  0.7476
18766TIP3   OH277788   3.818   1.480  12.259  0.2397  0.2331  0.2821
18766TIP3    H177789   3.893   1.541  12.256 -0.5966  1.2957  0.6125
18766TIP3    H277790   3.822   1.442  12.346 -0.2435  1.1117  0.6902
18767TIP3   OH277791   4.041   0.193   1.845 -0.2408  0.4795 -0.5045
18767TIP3    H177792   4.019   0.285   1.831 -0.5335  0.8863  2.3385
18767TIP3    H277793   4.005   0.148   1.769 -1.2825  2.5570 -1.2782
18768TIP3   OH277794   2.981   3.574  14.372 -0.0982  0.1459  1.0392
18768TIP3    H177795   2.944   3.487  14.391  0.2649 -0.0108  1.0469
18768TIP3    H277796   2.971   3.584  14.278  0.0037  0.0259  1.0155
18769TIP3   OH277797   2.019   6.619   0.434 -0.0858 -0.0470 -0.2867
18769TIP3    H177798   1.960   6.639   0.362  0.5513 -0.3087 -0.8855
18769TIP3    H277799   2.027   6.702   0.482  0.9456  0.6129 -1.5896
18770TIP3   OH277800   5.121   4.768  12.859 -0.3601  0.3343 -0.1607
18770TIP3    H177801   5.112   4.849  12.808  0.5554  1.3024  1.1762
18770TIP3    H277802   5.061   4.781  12.933  0.0058 -0.0899  0.2083
18771TIP3   OH277803   4.452   5.403   0.821 -0.3791  0.6177  0.1826
18771TIP3    H177804   4.420   5.404   0.731 -0.1215 -1.6453  0.0398
18771TIP3    H277805   4.375   5.427   0.874 -1.3210 -0.9158 -0.4486
18772TIP3   OH277806   3.658   5.692  17.286 -0.3158  0.0548 -0.8504
18772TIP3    H177807   3.708   5.630  17.339  3.3597  1.6821 -2.2247
18772TIP3    H277808   3.656   5.772  17.338 -0.4436  0.3470 -1.3018
18773TIP3   OH277809   2.226   2.792  16.180  0.1550 -0.2741  0.3459
18773TIP3    H177810   2.149   2.736  16.167  0.9639 -2.1866  3.1288
18773TIP3    H277811   2.191   2.881  16.180 -1.8046 -1.0075 -0.1314
18774TIP3   OH277812   1.812   3.982  10.757 -0.0334 -0.4815 -0.3022
18774TIP3    H177813   1.757   4.016  10.687  0.7910  0.1111 -0.6789
18774TIP3    H277814   1.836   3.894  10.729 -1.5417 -1.0955  0.3048
18775TIP3   OH277815   5.214   3.726  14.522 -0.0838 -0.2932  0.1878
18775TIP3    H177816   5.203   3.632  14.514 -1.1432 -0.2141  0.5702
18775TIP3    H277817   5.228   3.741  14.616  1.5847 -0.2102 -0.0624
18776TIP3   OH277818   1.850   2.811   5.547 -0.4377  0.7471  0.1219
18776TIP3    H177819   1.928   2.863   5.527 -0.5531  0.3984 -1.3043
18776TIP3    H277820   1.777   2.867   5.520 -0.7632  1.4961  2.4027
18777TIP3   OH277821   3.086   5.292   2.802 -0.2573 -0.0179  0.2854
18777TIP3    H177822   3.155   5.298   2.868  1.0810  1.2956 -1.1986
18777TIP3    H277823   3.045   5.378   2.804  0.2288  0.2482 -1.0587
18778TIP3   OH277824   5.391   1.988   0.968 -0.0454  0.2995 -0.3778
18778TIP3    H177825   5.465   1.993   0.907 -0.7322  0.8085 -1.1767
18778TIP3    H277826   5.327   1.934   0.922  0.2420 -1.0240  0.7600
18779TIP3   OH277827   2.983   6.517   1.187 -0.0056  0.5322 -0.0856
18779TIP3    H177828   3.035   6.547   1.112 -0.1164 -0.5522 -0.6135
18779TIP3    H277829   2.895   6.551   1.170 -0.0552  0.2040 -0.5104
18780TIP3   OH277830   1.813   6.013  16.578  0.5259  0.2125  0.1454
18780TIP3    H177831   1.728   5.985  16.610  0.5592 -0.3905 -0.2886
18780TIP3    H277832   1.794   6.087  16.519  0.5055  1.6427  1.9073
18781TIP3   OH277833   3.629   3.187   0.613  0.1865 -0.8787  0.2857
18781TIP3    H177834   3.698   3.240   0.573  0.4033 -1.3576  0.0216
18781TIP3    H277835   3.610   3.232   0.695  1.0848 -0.9565  0.5467
18782TIP3   OH277836   1.249   2.184  16.863 -0.0308  0.2678  0.4200
18782TIP3    H177837   1.233   2.102  16.816 -1.7448  0.5200  0.5013
18782TIP3    H277838   1.314   2.230  16.810  0.2690 -0.7573 -0.1162
18783TIP3   OH277839   5.723   3.701  11.478  0.0868  0.4607 -0.4052
18783TIP3    H177840   5.813   3.708  11.446 -0.0916 -0.6736 -1.1693
18783TIP3    H277841   5.690   3.791  11.475  0.5989  0.6133 -1.8556
18784TIP3   OH277842   0.610   4.216   4.835  0.4615 -0.7124 -0.2615
18784TIP3    H177843   0.544   4.161   4.878 -0.6776  0.2878 -0.6971
18784TIP3    H277844   0.685   4.158   4.823 -0.5620 -2.0577 -0.3163
18785TIP3   OH277845   4.362   1.539   2.599  0.1196  0.4768 -0.4044
18785TIP3    H177846   4.351   1.570   2.689  2.5570  0.5579 -0.1011
18785TIP3    H277847   4.418   1.462   2.607 -0.9492 -0.4625 -1.7327
18786TIP3   OH277848   6.434   5.130  12.685 -0.2878  0.4579  0.0325
18786TIP3    H177849   6.491   5.120  12.609  0.9042  1.5289  0.7653
18786TIP3    H277850   6.354   5.084  12.660  1.0163 -1.4396 -0.8549
18787TIP3   OH277851   4.119   5.802  11.368 -0.3885  0.1815 -0.7726
18787TIP3    H177852   4.073   5.718  11.377 -0.0410  0.2573  2.1594
18787TIP3    H277853   4.053   5.868  11.385  0.4560  0.3174  2.3337
18788TIP3   OH277854   1.925   5.225  12.405  0.1698  0.2721 -0.8320
18788TIP3    H177855   1.974   5.144  12.388  0.5539  0.1090  0.9711
18788TIP3    H277856   1.834   5.200  12.392  0.2365 -0.6314  0.2829
18789TIP3   OH277857   3.985   0.329  16.057  0.6123  0.1285 -0.2268
18789TIP3    H177858   3.990   0.357  15.965  1.4177  0.9626  0.0666
18789TIP3    H277859   3.920   0.388  16.096  1.3079  0.7124  0.0668
18790TIP3   OH277860   3.835   6.220  16.990 -0.0214  0.1619  0.0892
18790TIP3    H177861   3.917   6.268  16.979 -0.7022  1.3696  0.2051
18790TIP3    H277862   3.770   6.271  16.943 -0.8281 -0.4611  0.5091
18791TIP3   OH277863   4.611   0.459   6.060 -0.3047  0.2730  0.0536
18791TIP3    H177864   4.545   0.465   6.130 -0.7477  0.6399 -0.3920
18791TIP3    H277865   4.689   0.499   6.098 -0.2712 -0.3497  0.6574
18792TIP3   OH277866   4.911   0.948   4.454  0.3550  0.1192 -0.3851
18792TIP3    H177867   4.925   0.900   4.373 -0.1327  0.5444 -0.7219
18792TIP3    H277868   4.927   1.039   4.431 -5.2453  1.0375 -1.4352
18793TIP3   OH277869   0.907   1.422  16.102 -0.0246 -0.0707 -0.1162
18793TIP3    H177870   0.992   1.404  16.062 -0.0112  0.7623 -0.4815
18793TIP3    H277871   0.893   1.350  16.163  0.0861 -1.2328 -1.4115
18794TIP3   OH277872   0.897   5.055  15.240 -0.0275 -0.3365  0.0187
18794TIP3    H177873   0.802   5.044  15.249  0.0160 -1.3183 -0.6789
18794TIP3    H277874   0.907   5.118  15.169 -0.1554 -0.6028 -0.2388
18795TIP3   OH277875   1.476   6.813   4.884 -0.4103 -0.6921 -0.3717
18795TIP3    H177876   1.501   6.737   4.832  0.7011 -0.8188  0.3413
18795TIP3    H277877   1.420   6.778   4.953 -1.6510 -0.5625 -1.3031
18796TIP3   OH277878   0.125   1.699  13.099  0.3281  0.2907 -0.1558
18796TIP3    H177879   0.096   1.702  13.190 -0.7497  0.4302 -0.5035
18796TIP3    H277880   0.133   1.791  13.073  1.6175  0.2573  0.1049
18797TIP3   OH277881   4.271   2.724  17.247 -0.7456 -0.4079  0.5118
18797TIP3    H177882   4.315   2.639  17.241 -0.3543 -0.4534  3.3390
18797TIP3    H277883   4.313   2.778  17.180  1.4314 -1.3954  1.0400
18798TIP3   OH277884   2.332   4.250   1.997 -0.4726  0.0063  0.4716
18798TIP3    H177885   2.302   4.266   1.908 -0.9347  0.0654  0.6411
18798TIP3    H277886   2.283   4.312   2.051 -2.3482 -2.0025  1.1380
18799TIP3   OH277887   0.101   5.709   6.210 -0.3329 -0.2473  0.1317
18799TIP3    H177888   0.035   5.671   6.268 -0.0993  2.1071  2.0364
18799TIP3    H277889   0.181   5.711   6.263  0.0187  1.4346 -0.4252
18800TIP3   OH277890   2.483   0.752  16.785  0.0322  0.0702  0.5684
18800TIP3    H177891   2.446   0.840  16.778 -3.8899 -1.6388 -2.0029
18800TIP3    H277892   2.568   0.758  16.742 -0.7266  2.3457 -0.7071
18801TIP3   OH277893   4.969   0.684   5.263  0.0150  0.1268  0.2081
18801TIP3    H177894   4.920   0.647   5.335 -0.0202 -1.7399 -0.7581
18801TIP3    H277895   5.061   0.677   5.290 -0.0699  0.7832  0.6855
18802TIP3   OH277896   0.553   2.826  11.629 -0.1512 -0.2495  0.1261
18802TIP3    H177897   0.485   2.880  11.590  0.5399  0.3532 -0.2610
18802TIP3    H277898   0.634   2.859  11.591  0.2050 -2.1969 -0.8759
18803TIP3   OH277899   5.244   2.284   4.746  0.1109 -0.2414  0.4836
18803TIP3    H177900   5.308   2.235   4.796 -1.3372 -1.9483  0.7324
18803TIP3    H277901   5.164   2.281   4.800 -0.5333  0.7146 -0.3959
18804TIP3   OH277902   1.182   5.397  11.813 -0.1357 -0.5179 -0.3019
18804TIP3    H177903   1.230   5.371  11.892 -1.3286 -1.6468  0.0656
18804TIP3    H277904   1.211   5.334  11.746  0.4824  0.1162 -0.6350
18805TIP3   OH277905   0.934   4.562  12.760  0.1111 -0.2166  0.1104
18805TIP3    H177906   0.937   4.533  12.669  0.3487  1.2315 -0.3673
18805TIP3    H277907   0.939   4.658  12.754 -0.5030 -0.0807  1.6178
18806TIP3   OH277908   0.775   4.124   2.502  0.4769 -0.1767 -0.4261
18806TIP3    H177909   0.807   4.157   2.418  2.3679  0.0234  0.3336
18806TIP3    H277910   0.790   4.030   2.499 -0.4501 -0.3167 -0.7258
18807TIP3   OH277911   6.394   2.907  15.619 -0.1305  0.1031  0.0515
18807TIP3    H177912   6.445   2.929  15.696 -1.2755  1.8367  0.3348
18807TIP3    H277913   6.311   2.873  15.655 -0.3827  0.2281 -0.4115
18808TIP3   OH277914   2.235   6.085  13.568  0.1935  0.1802 -0.2192
18808TIP3    H177915   2.181   6.073  13.646 -0.3521  0.8375 -0.5024
18808TIP3    H277916   2.325   6.069  13.599 -0.2035 -1.4977  0.1201
18809TIP3   OH277917   0.923   1.171  14.882  0.2028  0.1594  0.1363
18809TIP3    H177918   0.883   1.096  14.838  1.2603 -0.4757  0.2585
18809TIP3    H277919   0.979   1.133  14.949  0.8665  1.0527  0.1008
18810TIP3   OH277920   1.480   4.596  15.625 -0.0949 -0.6884  0.2852
18810TIP3    H177921   1.479   4.691  15.634  1.4432 -0.6114 -0.1299
18810TIP3    H277922   1.547   4.567  15.687 -1.5522 -1.6386  1.4638
18811TIP3   OH277923   4.197   5.960  13.419 -0.1625  0.1895  0.0265
18811TIP3    H177924   4.191   6.051  13.449  0.3958  0.4540 -0.6360
18811TIP3    H277925   4.126   5.915  13.464 -0.5218  0.9815  0.2645
18812TIP3   OH277926   3.362   1.835  12.974 -0.4243 -0.0524  0.4773
18812TIP3    H177927   3.284   1.782  12.958 -0.8981  0.5910  0.6351
18812TIP3    H277928   3.409   1.788  13.043 -0.9959 -0.1046  0.8367
18813TIP3   OH277929   0.317   6.534  14.496 -0.6842  0.2568 -0.5362
18813TIP3    H177930   0.232   6.523  14.538 -0.5485 -0.9826 -0.5775
18813TIP3    H277931   0.308   6.491  14.411 -0.5596  1.6581 -1.2837
18814TIP3   OH277932   1.840   4.178   2.480  0.6519 -0.4152  0.2929
18814TIP3    H177933   1.897   4.114   2.523 -0.3009  0.7270  3.3749
18814TIP3    H277934   1.887   4.261   2.487 -0.4896  0.1745  1.1028
18815TIP3   OH277935   5.697   3.871   1.715 -0.0039  0.0596  0.0145
18815TIP3    H177936   5.663   3.803   1.773  1.3775 -1.4244 -0.8790
18815TIP3    H277937   5.726   3.940   1.774  1.2417 -1.3733  1.1050
18816TIP3   OH277938   4.300   2.738  11.987  0.1273 -0.5677  0.1408
18816TIP3    H177939   4.363   2.674  12.020  0.9660  0.2562  0.1665
18816TIP3    H277940   4.332   2.760  11.899  1.1295  1.4637  0.9841
18817TIP3   OH277941   3.997   4.747   2.442 -0.3096 -0.3143 -0.0690
18817TIP3    H177942   3.936   4.677   2.416 -0.9175  0.6696 -1.3172
18817TIP3    H277943   4.047   4.765   2.363  0.2680  0.2483  0.4274
18818TIP3   OH277944   2.156   5.378  12.898 -0.4144  0.3805 -0.0212
18818TIP3    H177945   2.128   5.347  12.812 -0.1741 -2.4736  0.8797
18818TIP3    H277946   2.097   5.335  12.960 -0.3271  2.0679  1.2881
18819TIP3   OH277947   3.707   1.640  16.909 -0.2264 -0.3262  0.2607
18819TIP3    H177948   3.737   1.580  16.841 -0.9573  0.1402 -0.4796
18819TIP3    H277949   3.632   1.685  16.870 -1.0906 -0.5532  1.6218
18820TIP3   OH277950   4.889   0.287  12.001  0.4832 -0.2341  0.3369
18820TIP3    H177951   4.934   0.312  11.920  1.2849 -0.8935  0.5716
18820TIP3    H277952   4.924   0.347  12.067 -1.4945  1.5044 -0.1440
18821TIP3   OH277953   3.035   0.265  12.428  0.1189 -0.3795 -0.0042
18821TIP3    H177954   2.945   0.253  12.398  0.4738 -1.6836 -0.5693
18821TIP3    H277955   3.026   0.307  12.514 -0.9338  2.4515 -1.4304
18822TIP3   OH277956   3.382   3.119   3.021  0.3427 -0.0886  0.3522
18822TIP3    H177957   3.301   3.167   3.034  0.8315  0.6194  0.8515
18822TIP3    H277958   3.428   3.168   2.952  0.7379  0.0199  0.6916
18823TIP3   OH277959   0.241   0.114  16.008 -0.2466  0.1632  0.0304
18823TIP3    H177960   0.271   0.162  15.931  1.0579 -1.4125 -0.4720
18823TIP3    H277961   0.268   0.024  15.992 -0.1009 -0.2250  2.2585
18824TIP3   OH277962   3.652   3.508  10.725 -0.5042  0.4554  0.3754
18824TIP3    H177963   3.594   3.432  10.717  0.2426  0.0455 -1.5211
18824TIP3    H277964   3.598   3.582  10.700 -0.9993  0.4523  1.4074
18825TIP3   OH277965   1.241   3.991  16.749 -0.0462 -0.1265 -0.5647
18825TIP3    H177966   1.199   3.914  16.786  0.0135 -0.2428 -0.7366
18825TIP3    H277967   1.170   4.054  16.737 -0.1567 -0.2928 -0.7765
18826TIP3   OH277968   4.087   4.181  12.885 -0.1406  0.3876  0.7900
18826TIP3    H177969   4.072   4.264  12.840 -0.5624  0.0766  0.3581
18826TIP3    H277970   4.182   4.171  12.886 -0.0548  1.1560  1.3597
18827TIP3   OH277971   1.682   6.742  16.135 -0.1460 -0.0651  0.4114
18827TIP3    H177972   1.716   6.793  16.208 -1.2773  0.1399  0.7962
18827TIP3    H277973   1.621   6.680  16.175 -1.4485  0.6420 -0.4424
18828TIP3   OH277974   0.838   4.967  11.892 -0.4583  0.0040 -0.8127
18828TIP3    H177975   0.884   4.889  11.860 -1.8646 -0.2684 -2.2244
18828TIP3    H277976   0.819   4.947  11.984  1.9747  0.0112 -0.2859
18829TIP3   OH277977   0.238   1.406   0.144  0.7450 -0.3317 -0.0141
18829TIP3    H177978   0.278   1.328   0.181  1.2042 -0.0968 -0.0089
18829TIP3    H277979   0.145   1.397   0.164  0.6271 -1.4468 -1.0599
18830TIP3   OH277980   1.192   3.007   0.272  1.1221  1.0986 -0.0683
18830TIP3    H177981   1.269   3.045   0.228 -0.2671  1.8519 -1.9223
18830TIP3    H277982   1.189   2.916   0.242  0.9972  1.2136 -0.4053
18831TIP3   OH277983   3.265   1.370   1.152 -0.4963 -0.4062  0.0755
18831TIP3    H177984   3.187   1.351   1.204 -1.2158 -0.3641 -0.9883
18831TIP3    H277985   3.300   1.451   1.190 -0.6313 -0.7479  0.9345
18832TIP3   OH277986   3.692   4.376   0.442  0.1244  0.0916  0.3876
18832TIP3    H177987   3.616   4.399   0.388  1.2621  0.3763 -1.1344
18832TIP3    H277988   3.731   4.461   0.465  0.2067 -0.0706  0.8503
18833TIP3   OH277989   4.643   3.058  12.471 -0.0473  0.1364 -0.0230
18833TIP3    H177990   4.623   3.099  12.555  0.1888 -0.2715  0.2365
18833TIP3    H277991   4.651   3.131  12.410 -1.2532  0.3762  0.0883
18834TIP3   OH277992   5.359   6.177   1.898 -0.3747  0.5793 -0.2079
18834TIP3    H177993   5.272   6.212   1.878 -0.5197  0.6503  0.5418
18834TIP3    H277994   5.355   6.156   1.991 -0.1962 -1.1418 -0.5712
18835TIP3   OH277995   1.248   5.275  13.996 -0.1215  0.3388  0.2918
18835TIP3    H177996   1.280   5.211  13.932  1.8251  2.0729 -0.5384
18835TIP3    H277997   1.300   5.258  14.075 -0.1504  0.3969  0.3230
18836TIP3   OH277998   0.969   4.797  15.283  0.4707  0.5794 -0.3444
18836TIP3    H177999   0.975   4.891  15.263  0.9863  0.6498  0.1271
18836TIP3    H278000   0.889   4.789  15.334  0.1673  0.6891 -0.8004
18837TIP3   OH278001   0.779   5.937  16.548  0.3914  0.1351  0.2680
18837TIP3    H178002   0.685   5.942  16.526  0.5635  0.6224 -0.3860
18837TIP3    H278003   0.823   5.942  16.463  1.0538  1.1610  0.6730
18838TIP3   OH278004   0.438   0.638   0.846 -1.0997  0.5690  0.1357
18838TIP3    H178005   0.528   0.659   0.870 -0.9859  0.5156 -0.2501
18838TIP3    H278006   0.429   0.668   0.756 -1.1632 -0.3535 -0.1675
18839TIP3   OH278007   3.981   0.443   1.784  0.1762 -0.1612 -0.3341
18839TIP3    H178008   3.897   0.488   1.775  1.0121  1.2704 -1.1038
18839TIP3    H278009   4.033   0.500   1.840  0.3376 -1.4928  0.8905
18840TIP3   OH278010   2.910   4.413  16.125 -0.1413 -0.2664 -0.3206
18840TIP3    H178011   2.818   4.429  16.146 -0.3390 -1.3431 -0.3324
18840TIP3    H278012   2.939   4.348  16.189  0.7012  0.3051 -0.1192
18841TIP3   OH278013   4.339   5.602  12.803  0.1140 -0.0474 -0.2117
18841TIP3    H178014   4.398   5.635  12.871 -0.5412  3.0982 -1.0933
18841TIP3    H278015   4.256   5.590  12.849 -0.4696  2.5718 -0.4588
18842TIP3   OH278016   3.176   1.909   3.569 -0.6960 -0.1839 -0.1758
18842TIP3    H178017   3.202   1.838   3.628  0.0507 -0.4436 -0.8060
18842TIP3    H278018   3.112   1.869   3.509 -1.3357  0.0396  0.3548
18843TIP3   OH278019   2.182   3.720  11.385  0.5539 -0.4756  0.1529
18843TIP3    H178020   2.232   3.792  11.424  1.2022 -0.1026 -1.3250
18843TIP3    H278021   2.098   3.760  11.361  0.9731 -0.1643 -0.8128
18844TIP3   OH278022   4.782   3.224   0.496 -0.0407  0.4180 -0.2675
18844TIP3    H178023   4.756   3.303   0.544  0.3388  0.6364 -0.4119
18844TIP3    H278024   4.775   3.153   0.559  0.9514  0.7823  0.2502
18845TIP3   OH278025   4.885   3.713   3.759  0.7878 -0.5682 -0.5318
18845TIP3    H178026   4.954   3.702   3.693  1.5212 -2.1270  0.4598
18845TIP3    H278027   4.856   3.624   3.778  0.3123 -0.1139  0.9650
18846TIP3   OH278028   5.662   3.914  16.594 -0.5111 -0.0632  0.2172
18846TIP3    H178029   5.757   3.908  16.582 -0.7063 -3.2570 -0.0386
18846TIP3    H278030   5.649   3.915  16.689 -0.3344 -2.2630  0.2770
18847TIP3   OH278031   0.688   2.480   1.400 -0.2191 -0.7727 -0.0511
18847TIP3    H178032   0.721   2.401   1.443 -0.3067 -1.4948 -1.2746
18847TIP3    H278033   0.593   2.474   1.407 -0.1967 -0.3705  0.5669
18848TIP3   OH278034   2.518   1.295   0.489 -0.1513 -0.1292 -0.3193
18848TIP3    H178035   2.481   1.317   0.575  0.7282  0.8292 -0.1712
18848TIP3    H278036   2.443   1.295   0.430 -0.4522  1.5363  0.0183
18849TIP3   OH278037   3.285   2.286   2.463  0.0769 -0.1942  0.4396
18849TIP3    H178038   3.367   2.308   2.419  1.5153 -1.1874  2.5173
18849TIP3    H278039   3.251   2.211   2.415  0.3349  0.2760 -0.4875
18850TIP3   OH278040   5.981   1.024   3.410 -0.7728  0.7706 -0.3451
18850TIP3    H178041   6.023   1.094   3.359  1.2408  0.0553  0.2971
18850TIP3    H278042   6.043   0.951   3.406 -1.9639 -0.3149  0.6447
18851TIP3   OH278043   2.396   0.230   0.347 -0.4050  0.4561  0.0423
18851TIP3    H178044   2.326   0.166   0.360  0.9472 -0.9751  0.4239
18851TIP3    H278045   2.419   0.222   0.254 -0.4710  0.6157  0.0131
18852TIP3   OH278046   1.273   0.721  13.263 -0.1801 -0.4012 -0.2922
18852TIP3    H178047   1.351   0.669  13.280  0.6567  1.2409  1.0294
18852TIP3    H278048   1.230   0.729  13.348 -0.9584  0.0342 -0.7162
18853TIP3   OH278049   4.601   4.343   2.365  0.3618  0.0530 -0.3309
18853TIP3    H178050   4.605   4.266   2.420  0.8394  0.7125  0.5725
18853TIP3    H278051   4.679   4.338   2.310  0.2072 -0.2912 -0.5146
18854TIP3   OH278052   4.690   4.374   4.920 -0.3829  0.4082 -0.3371
18854TIP3    H178053   4.728   4.315   4.984 -0.5269  0.3472 -0.3077
18854TIP3    H278054   4.746   4.451   4.922  0.6359 -0.2931 -1.3952
18855TIP3   OH278055   5.594   3.679   1.889  0.0042 -0.5516  0.3592
18855TIP3    H178056   5.583   3.694   1.983 -0.1079 -1.6589  0.5287
18855TIP3    H278057   5.572   3.587   1.876  0.0437 -0.4176 -0.7545
18856TIP3   OH278058   3.537   5.495   2.737 -0.4549 -0.2599  0.1042
18856TIP3    H178059   3.560   5.570   2.792 -0.3990 -0.3732  0.2369
18856TIP3    H278060   3.456   5.520   2.694  0.9602  0.9659 -1.9308
18857TIP3   OH278061   0.934   4.782  12.384  0.5209  0.8018 -0.0101
18857TIP3    H178062   1.017   4.779  12.432 -0.5637 -0.9328  1.8243
18857TIP3    H278063   0.876   4.835  12.440  0.1676  1.4015 -0.9340
18858TIP3   OH278064   6.300   0.523  15.727  0.2516 -0.0871  0.4634
18858TIP3    H178065   6.249   0.570  15.793  0.6217  0.7630  0.1594
18858TIP3    H278066   6.327   0.591  15.665  0.4191 -0.7758 -0.2342
18859TIP3   OH278067   1.082   2.599   2.672  0.1720 -0.0322 -1.0523
18859TIP3    H178068   1.055   2.507   2.680  1.4339 -0.4268 -1.2127
18859TIP3    H278069   1.015   2.638   2.615 -0.7645 -0.6749 -0.4115
18860TIP3   OH278070   2.379   4.069   4.165  0.2102  0.0597 -0.0428
18860TIP3    H178071   2.284   4.064   4.157  0.1537 -0.3136  0.7638
18860TIP3    H278072   2.409   3.980   4.147  0.6534  0.7530 -3.0614
18861TIP3   OH278073   2.483   1.568   0.970 -0.3783 -0.2603 -0.3863
18861TIP3    H178074   2.574   1.577   0.945 -0.3486 -1.8634 -0.9233
18861TIP3    H278075   2.473   1.475   0.991 -1.2046  0.3742  2.3519
18862TIP3   OH278076   5.803   0.214   0.919  0.7512 -0.0324 -0.3236
18862TIP3    H178077   5.818   0.142   0.857 -1.8316 -0.7452 -0.1812
18862TIP3    H278078   5.819   0.175   1.005  0.0161 -0.2781 -0.2905
18863TIP3   OH278079   6.285   6.359   6.054 -0.0224  0.7464 -0.2452
18863TIP3    H178080   6.261   6.450   6.039  1.4277  1.4042  1.2230
18863TIP3    H278081   6.269   6.345   6.148  0.6961 -0.2299 -0.2571
18864TIP3   OH278082   0.457   3.515   4.918  0.2154 -0.1735  0.6640
18864TIP3    H178083   0.457   3.466   4.836 -0.6299 -0.2028  0.6815
18864TIP3    H278084   0.399   3.589   4.903 -0.3072 -0.4260  1.3716
18865TIP3   OH278085   1.206   0.979   0.057 -0.1776  0.2799 -0.8375
18865TIP3    H178086   1.202   0.888   0.028  0.6779 -0.7091  2.0215
18865TIP3    H278087   1.300   0.997   0.065 -0.3971  0.4449  1.4689
18866TIP3   OH278088   2.072   6.672  15.269  0.1217 -0.2266 -0.2428
18866TIP3    H178089   2.090   6.616  15.193  1.8840 -0.8014  0.5716
18866TIP3    H278090   2.018   6.743  15.234 -2.0194 -2.3324 -1.3181
18867TIP3   OH278091   3.056   4.926  14.630  0.3242 -0.1374 -0.1283
18867TIP3    H178092   3.139   4.967  14.606  0.2453 -0.1780 -0.4855
18867TIP3    H278093   3.038   4.865  14.558 -0.1444  0.0644 -0.1857
18868TIP3   OH278094   4.361   0.110   5.694  0.0892  0.3306 -0.4952
18868TIP3    H178095   4.315   0.180   5.740  0.6131  0.7670 -0.6275
18868TIP3    H278096   4.442   0.098   5.744 -0.3936 -0.7756  0.0280
18869TIP3   OH278097   6.622   3.797  14.363 -0.1017  0.5603 -0.3688
18869TIP3    H178098   6.588   3.873  14.317 -0.2999 -0.2394 -1.5735
18869TIP3    H278099   6.557   3.728  14.348 -0.5528  0.4849  1.7691
18870TIP3   OH278100   6.661   3.765  12.166  0.1356 -0.8815  0.2815
18870TIP3    H178101   6.632   3.749  12.256  0.0923 -1.8147  0.1096
18870TIP3    H278102   6.756   3.755  12.171 -0.0783 -3.9168 -0.3272
18871TIP3   OH278103   5.559   6.368  16.082 -0.1160  0.2754 -0.6631
18871TIP3    H178104   5.519   6.450  16.112 -0.5697 -0.2460  0.1812
18871TIP3    H278105   5.515   6.349  15.999 -0.3208  0.6653 -0.6461
18872TIP3   OH278106   1.600   5.781  11.702  0.2636 -0.2781  0.0546
18872TIP3    H178107   1.524   5.815  11.748  0.2890  3.1863 -2.3157
18872TIP3    H278108   1.626   5.703  11.752 -1.3665  1.6979  4.1710
18873TIP3   OH278109   4.977   1.769   1.634  0.2834 -0.5334  0.1843
18873TIP3    H178110   5.005   1.767   1.542 -0.0622 -0.6405  0.0826
18873TIP3    H278111   4.915   1.697   1.642  0.7544 -0.8881  0.6489
18874TIP3   OH278112   5.740   6.611  15.879 -0.3243 -0.0278  0.2920
18874TIP3    H178113   5.785   6.677  15.826  0.6458 -1.8307 -1.1788
18874TIP3    H278114   5.809   6.575  15.935 -0.8755  0.2913  1.1792
18875TIP3   OH278115   0.856   6.047  16.789 -0.4402 -0.4364 -0.0245
18875TIP3    H178116   0.802   6.030  16.712  2.4816 -1.3255 -1.9217
18875TIP3    H278117   0.808   6.006  16.861 -2.1326 -1.4555 -1.7034
18876TIP3   OH278118   2.486   1.975  13.832  0.2716 -0.7224 -0.5649
18876TIP3    H178119   2.569   2.004  13.793  0.1256 -1.2403 -1.2723
18876TIP3    H278120   2.496   1.994  13.925  0.9898 -0.3128 -0.7150
18877TIP3   OH278121   3.857   1.423   2.074 -0.2107  0.4800 -0.4296
18877TIP3    H178122   3.906   1.412   1.992  0.9611  0.9740  0.2053
18877TIP3    H278123   3.905   1.489   2.123  0.7339 -1.8077  1.8946
18878TIP3   OH278124   6.303   4.555  16.497 -0.6619 -0.3927  0.2685
18878TIP3    H178125   6.231   4.617  16.504 -0.4468 -0.4244  3.4119
18878TIP3    H278126   6.263   4.470  16.516 -0.1339 -0.6462  0.2478
18879TIP3   OH278127   6.200   1.822   3.493  1.0023  0.4799  0.1288
18879TIP3    H178128   6.195   1.915   3.518 -1.7003 -0.0673  1.7559
18879TIP3    H278129   6.275   1.818   3.433  2.7301  3.2558  1.9750
18880TIP3   OH278130   4.794   3.152   6.782 -0.1971 -0.6260 -0.4436
18880TIP3    H178131   4.718   3.200   6.748 -0.3241 -0.1255  0.5494
18880TIP3    H278132   4.768   3.060   6.781 -0.5784 -0.5147 -0.7009
18881TIP3   OH278133   0.016   2.540   4.266  0.0436  0.3666 -0.9260
18881TIP3    H178134  -0.058   2.582   4.223 -1.5003 -1.1726  0.1999
18881TIP3    H278135   0.047   2.475   4.203 -1.1869 -0.7638 -0.3612
18882TIP3   OH278136   3.930   2.130   3.582 -0.0848 -0.8615 -0.4415
18882TIP3    H178137   4.007   2.093   3.625  0.4308  0.3045 -0.3411
18882TIP3    H278138   3.914   2.073   3.506  1.8916 -0.1388 -1.4263
18883TIP3   OH278139   3.765   0.708  12.337 -0.2619 -0.4028  0.3723
18883TIP3    H178140   3.807   0.645  12.396  0.4384 -0.6808 -0.4260
18883TIP3    H278141   3.680   0.669  12.316 -1.3097  0.5479  2.6655
18884TIP3   OH278142   4.012   1.744   1.980  0.6792 -0.3341  0.3086
18884TIP3    H178143   3.959   1.788   1.914  0.0073 -0.9802  0.4097
18884TIP3    H278144   3.980   1.778   2.064 -0.4249 -1.6298  0.4275
18885TIP3   OH278145   3.720   0.553   2.436 -0.0088  0.2485 -0.0295
18885TIP3    H178146   3.697   0.618   2.502 -1.1752  1.8660 -1.9643
18885TIP3    H278147   3.815   0.556   2.431  0.1218 -0.2492  1.9131
18886TIP3   OH278148   6.053   6.100   4.233 -0.7734  0.8287 -0.2524
18886TIP3    H178149   6.008   6.020   4.205  1.4443 -0.2730 -0.7722
18886TIP3    H278150   5.990   6.170   4.215 -3.4781 -0.9166  1.9023
18887TIP3   OH278151   4.901   4.718  11.944  0.4633  0.0903 -1.0299
18887TIP3    H178152   4.828   4.656  11.938  0.4332 -0.0396  0.5962
18887TIP3    H278153   4.904   4.743  12.036  1.7926  0.9234 -1.2912
18888TIP3   OH278154   2.100   2.151   4.715 -0.1235  0.3180  0.2412
18888TIP3    H178155   2.095   2.149   4.811  1.6456 -0.6364  0.3319
18888TIP3    H278156   2.015   2.120   4.686 -0.2913 -0.4580  1.5081
18889TIP3   OH278157   1.656   6.371  16.603 -0.0201  0.2124 -0.3931
18889TIP3    H178158   1.700   6.413  16.676 -1.0703 -0.3376  0.5788
18889TIP3    H278159   1.578   6.331  16.642 -0.0627 -0.9577 -1.6295
18890TIP3   OH278160   4.051   2.632   2.391  0.4812 -0.1298 -0.4241
18890TIP3    H178161   4.113   2.689   2.437  0.1378 -0.2722  0.2049
18890TIP3    H278162   4.100   2.602   2.314  0.5657  1.2527 -0.9293
18891TIP3   OH278163   2.971   0.538  16.602 -0.2317 -0.5146 -0.1925
18891TIP3    H178164   3.019   0.506  16.678 -0.1450 -0.0308 -0.0403
18891TIP3    H278165   3.039   0.562  16.539 -0.3087 -1.1506 -0.5224
18892TIP3   OH278166   2.362   4.456   2.817 -0.0062 -0.1985  0.0457
18892TIP3    H178167   2.392   4.531   2.869  0.9122 -0.5778  0.0700
18892TIP3    H278168   2.339   4.494   2.732 -0.4110  0.2473  0.3485
18893TIP3   OH278169   1.426   2.781  16.438 -0.0560  0.0646 -0.2076
18893TIP3    H178170   1.350   2.838  16.434 -2.5759 -3.1499 -0.9974
18893TIP3    H278171   1.445   2.772  16.531 -1.3508  0.0927  0.0704
18894TIP3   OH278172   2.022   4.402  13.632 -0.2508  0.1933  0.9032
18894TIP3    H178173   2.052   4.474  13.575 -0.7911 -1.6039 -1.7618
18894TIP3    H278174   1.926   4.403  13.622 -0.4402  0.4823  2.6129
18895TIP3   OH278175   4.503   0.349  12.280 -0.6799  0.0896 -0.2791
18895TIP3    H178176   4.474   0.332  12.190 -1.3314  1.2508 -0.2991
18895TIP3    H278177   4.502   0.445  12.288  0.2497  0.0308  0.6802
18896TIP3   OH278178   2.296   1.475   3.249  0.2402  0.5311  0.0820
18896TIP3    H178179   2.345   1.557   3.245  1.0022  0.1696  1.5603
18896TIP3    H278180   2.204   1.503   3.253  0.5334  1.3696  1.6086
18897TIP3   OH278181   3.516   5.324   0.273  0.7538 -0.2839 -0.0963
18897TIP3    H178182   3.541   5.416   0.284  3.4774 -0.9333 -0.6221
18897TIP3    H278183   3.506   5.313   0.178  0.3002 -0.5205 -0.0260
18898TIP3   OH278184   2.641   0.559   5.438 -0.7054  0.6528  0.1850
18898TIP3    H178185   2.636   0.544   5.344 -0.2313  0.2258  0.2262
18898TIP3    H278186   2.584   0.493   5.476  0.5508 -0.3821  0.3022
18899TIP3   OH278187   1.886   2.839  16.001 -0.3904 -0.3377  0.1795
18899TIP3    H178188   1.937   2.903  15.952 -1.9564  1.9377  1.4588
18899TIP3    H278189   1.805   2.829  15.950  0.4757 -2.5820 -0.8758
18900TIP3   OH278190   4.110   1.288   2.744 -0.1247  0.3468  0.6402
18900TIP3    H178191   4.017   1.298   2.766 -0.8000 -1.4902 -1.1706
18900TIP3    H278192   4.110   1.275   2.649  1.8800 -0.9415  0.7939
18901TIP3   OH278193   6.803   2.265  15.755  0.2191  0.0052 -0.3277
18901TIP3    H178194   6.823   2.232  15.667 -0.7593  0.2329 -0.6347
18901TIP3    H278195   6.745   2.200  15.793  2.6137 -1.3762  1.1061
18902TIP3   OH278196   4.499   4.364   0.066 -0.3799 -0.2221 -0.1227
18902TIP3    H178197   4.442   4.436   0.096 -0.1684 -0.4343  0.8134
18902TIP3    H278198   4.540   4.398  -0.013 -1.2679  0.2054 -0.4146
18903TIP3   OH278199   1.776   1.003  11.646 -0.2971  0.1684  0.2727
18903TIP3    H178200   1.684   0.981  11.661 -0.5744  0.4997 -0.8895
18903TIP3    H278201   1.800   1.058  11.720 -0.5858 -1.2139  1.4085
18904TIP3   OH278202   4.838   2.155   5.073  0.0752 -0.3335 -0.0247
18904TIP3    H178203   4.788   2.077   5.049 -0.1973 -0.3671  0.6295
18904TIP3    H278204   4.783   2.199   5.138  0.7158 -0.1615  0.3991
18905TIP3   OH278205   2.255   3.852  11.877 -0.0002 -0.0148 -0.0561
18905TIP3    H178206   2.343   3.851  11.915  0.6751  2.0012 -1.4554
18905TIP3    H278207   2.256   3.781  11.812  0.6663  0.1338 -0.2119
18906TIP3   OH278208   3.910   4.843   3.041  0.5723  0.0025 -1.0484
18906TIP3    H178209   3.957   4.889   2.972 -0.3173 -0.9686 -2.3242
18906TIP3    H278210   3.818   4.859   3.022  0.2962 -1.0862 -0.6624
18907TIP3   OH278211   6.529   0.206  15.056 -0.3650 -0.0508 -0.7076
18907TIP3    H178212   6.568   0.284  15.015  0.6941 -0.2235 -0.0418
18907TIP3    H278213   6.470   0.241  15.123 -0.4323  0.1962 -0.8942
18908TIP3   OH278214   2.828   4.971  11.942  0.5908  0.5316 -0.0556
18908TIP3    H178215   2.748   4.940  11.983  0.7879 -0.6291 -0.5306
18908TIP3    H278216   2.895   4.961  12.009  0.4839  0.7720  0.0872
18909TIP3   OH278217   1.813   0.367   3.277 -0.1336  0.1574  0.0232
18909TIP3    H178218   1.771   0.307   3.216  0.4951 -0.1638 -0.0928
18909TIP3    H278219   1.905   0.367   3.252  0.0977  0.1746  0.8436
18910TIP3   OH278220   4.369   1.943  16.337 -0.1289  0.3262 -0.0176
18910TIP3    H178221   4.434   2.004  16.303 -1.2037  1.1935 -0.5566
18910TIP3    H278222   4.293   1.998  16.357 -2.1126 -1.1372 -3.0405
18911TIP3   OH278223   5.296   1.604  16.109  0.1306  0.3817 -0.1701
18911TIP3    H178224   5.201   1.619  16.113  0.2733  0.9514  1.4984
18911TIP3    H278225   5.314   1.546  16.183  0.8406 -1.2071 -1.5666
18912TIP3   OH278226   3.024   3.741   0.549 -0.0539  0.0708  0.8378
18912TIP3    H178227   2.954   3.684   0.580 -0.4940  0.5668  0.7565
18912TIP3    H278228   3.095   3.681   0.524 -0.4566 -0.4293  0.8976
18913TIP3   OH278229   3.457   0.681   1.124  0.1787 -0.4563  0.1117
18913TIP3    H178230   3.414   0.671   1.039  0.4095  0.8279 -0.1704
18913TIP3    H278231   3.389   0.719   1.180 -0.0683 -1.5899  0.5965
18914TIP3   OH278232   1.125   4.580  13.596 -0.2440  0.3718 -0.4845
18914TIP3    H178233   1.170   4.654  13.638  0.7659  0.0725 -1.0252
18914TIP3    H278234   1.034   4.588  13.626  0.4833  0.0551  1.9056
18915TIP3   OH278235   4.721   4.762  15.354 -0.7876 -0.4206 -0.3154
18915TIP3    H178236   4.629   4.740  15.342 -0.4694 -1.0096 -1.8784
18915TIP3    H278237   4.753   4.777  15.265  0.3455  0.9328  0.3002
18916TIP3   OH278238   4.128   3.127  15.397  0.3330  0.3470 -0.3786
18916TIP3    H178239   4.075   3.156  15.323  0.7589  1.6739 -0.1727
18916TIP3    H278240   4.217   3.120  15.362  0.3415 -0.1206 -0.2695
18917TIP3   OH278241   3.357   0.234   2.886 -0.4854  0.5394 -0.4811
18917TIP3    H178242   3.438   0.185   2.869  0.2116  1.4250  0.2114
18917TIP3    H278243   3.294   0.167   2.912 -0.2308 -0.2636 -1.8804
18918TIP3   OH278244   4.899   1.805   5.269  0.2489  0.0656 -1.1381
18918TIP3    H178245   4.831   1.815   5.202 -0.3869  1.9765 -0.2457
18918TIP3    H278246   4.902   1.890   5.312  2.2588 -0.4300 -0.2467
18919TIP3   OH278247   6.389   3.337  13.325  0.3449 -0.3573  0.3620
18919TIP3    H178248   6.388   3.287  13.244 -1.7903 -0.3068  0.3147
18919TIP3    H278249   6.425   3.422  13.301 -0.7036 -0.1853 -0.6371
18920TIP3   OH278250   5.880   4.820   4.599  0.2302  0.3117 -0.0437
18920TIP3    H178251   5.913   4.886   4.660  0.5477 -0.1146  0.2490
18920TIP3    H278252   5.936   4.828   4.522  1.3075 -0.6998  0.6185
18921TIP3   OH278253   1.516   4.374   4.687 -0.2981 -0.1212 -0.1167
18921TIP3    H178254   1.441   4.374   4.627 -0.7593 -0.7742  0.4528
18921TIP3    H278255   1.580   4.316   4.644 -0.3939 -0.1154 -0.2680
18922TIP3   OH278256   0.016   1.860  17.047  0.1443 -0.0440  0.0802
18922TIP3    H178257   0.068   1.854  16.967  2.0972 -0.0040  1.3205
18922TIP3    H278258  -0.075   1.855  17.017  0.8705 -1.1183 -2.0242
18923TIP3   OH278259   0.220   0.260   2.195 -0.0932  0.0967  0.4040
18923TIP3    H178260   0.193   0.347   2.168  0.1064  0.1048  0.2274
18923TIP3    H278261   0.207   0.205   2.118 -1.8696 -0.3960  1.0222
18924TIP3   OH278262   1.911   5.460  16.669 -0.0364  0.0187 -0.1270
18924TIP3    H178263   1.949   5.466  16.757  1.1336  2.1915 -0.7536
18924TIP3    H278264   1.818   5.481  16.683 -0.2087 -1.3080  0.8222
18925TIP3   OH278265   3.106   0.593  12.295  0.3712  0.0375  0.2660
18925TIP3    H178266   3.037   0.569  12.357  2.0302 -2.2153  1.2886
18925TIP3    H278267   3.062   0.650  12.232 -2.6327 -1.9896  0.4249
18926TIP3   OH278268   5.129   5.199  16.280 -0.1942 -0.0828 -0.0166
18926TIP3    H178269   5.093   5.158  16.201  1.4445 -0.2119 -0.7130
18926TIP3    H278270   5.163   5.283  16.250  0.8910 -0.3486  0.4484
18927TIP3   OH278271   5.346   0.348  10.985 -0.1364  0.2595  0.2438
18927TIP3    H178272   5.389   0.299  10.915 -1.1328 -0.2397 -0.0251
18927TIP3    H278273   5.378   0.438  10.974  2.1049 -0.3978  1.0599
18928TIP3   OH278274   1.096   3.373   0.286  0.2482  0.1435 -0.3367
18928TIP3    H178275   1.099   3.329   0.202  2.2065 -1.0733  0.3414
18928TIP3    H278276   1.083   3.465   0.264 -1.0105 -0.3740 -1.8756
18929TIP3   OH278277   1.077   2.110  16.577  0.3510 -0.1354  0.1429
18929TIP3    H178278   1.013   2.155  16.630 -1.0205 -1.4258 -0.3791
18929TIP3    H278279   1.104   2.174  16.511  1.3521  1.1539  1.7631
18930TIP3   OH278280   1.704   0.654   4.021  0.3561  0.2305  0.1347
18930TIP3    H178281   1.716   0.717   3.950 -0.4928 -1.0423 -1.1759
18930TIP3    H278282   1.730   0.570   3.983 -1.6579 -0.7254  0.8032
18931TIP3   OH278283   1.868   0.466   3.896  0.4352 -0.1730  0.4560
18931TIP3    H178284   1.874   0.371   3.909  0.5442 -0.0928  1.0055
18931TIP3    H278285   1.946   0.501   3.939 -0.6248  0.3374  2.0029
18932TIP3   OH278286   0.008   6.439   3.740  0.0398  0.6804  0.2936
18932TIP3    H178287   0.056   6.518   3.717 -0.3027  0.6110 -0.6565
18932TIP3    H278288   0.050   6.369   3.690  0.8378  0.1097  1.7011
18933TIP3   OH278289   2.837   3.915  13.359  0.3154  0.1331  0.1928
18933TIP3    H178290   2.768   3.978  13.340  1.7212  2.2200  1.8211
18933TIP3    H278291   2.798   3.855  13.422 -1.2117 -1.0495 -1.7899
18934TIP3   OH278292   3.199   1.671  14.825  0.2012 -0.0958 -0.0218
18934TIP3    H178293   3.132   1.660  14.893 -0.7747  1.0258 -0.7858
18934TIP3    H278294   3.257   1.596  14.837 -0.2292 -0.1754  1.7435
18935TIP3   OH278295   4.596   6.648  13.802 -0.0907  0.7049  0.4060
18935TIP3    H178296   4.558   6.560  13.798 -1.6976  1.3188  1.5918
18935TIP3    H278297   4.576   6.678  13.891 -1.0052  2.9038 -0.5219
18936TIP3   OH278298   4.734   0.016  15.128 -0.4265  0.7498  0.0145
18936TIP3    H178299   4.693  -0.036  15.197 -0.0733  1.4232  0.7478
18936TIP3    H278300   4.785   0.081  15.176 -0.9973  1.8705 -0.8812
18937TIP3   OH278301   3.861   2.667   0.220 -0.7353  0.3698 -0.0259
18937TIP3    H178302   3.867   2.751   0.176 -1.8295  1.4398  1.8177
18937TIP3    H278303   3.952   2.637   0.227 -0.1857  2.2048  0.8311
18938TIP3   OH278304   1.478   3.163  13.048  0.1760  0.3681 -0.6864
18938TIP3    H178305   1.466   3.138  13.140 -0.4014  0.5410 -0.7102
18938TIP3    H278306   1.413   3.232  13.034 -0.3115 -0.2389 -1.4534
18939TIP3   OH278307   1.582   4.001  14.167 -0.2769  0.1777 -0.2069
18939TIP3    H178308   1.563   3.964  14.254 -1.5469 -0.5781 -0.7976
18939TIP3    H278309   1.673   3.974  14.150 -0.3695 -0.5758  0.4311
18940TIP3   OH278310   5.207   1.169  15.046  0.1206  0.3513 -0.5640
18940TIP3    H178311   5.205   1.263  15.030  0.8752  0.4422 -0.0977
18940TIP3    H278312   5.297   1.150  15.071 -0.2985 -0.3082  0.4755
18941TIP3   OH278313   6.072   3.159  13.720  0.2485 -0.0448  0.5552
18941TIP3    H178314   6.118   3.236  13.685  0.0693  0.0022  0.4210
18941TIP3    H278315   6.062   3.100  13.645  1.4127 -0.7036  0.9155
18942TIP3   OH278316   5.574   6.217  15.559  0.7247 -0.3602  0.4218
18942TIP3    H178317   5.570   6.263  15.643  0.8103  0.9792 -0.2854
18942TIP3    H278318   5.640   6.265  15.509 -0.4499 -0.1578 -0.9775
18943TIP3   OH278319   0.763   3.239   3.571  0.0345  0.4622  0.3690
18943TIP3    H178320   0.719   3.255   3.488  0.0532  0.1517  0.2997
18943TIP3    H278321   0.852   3.216   3.547  0.1817  0.8881  0.5014
18944TIP3   OH278322   6.567   5.187   0.575 -0.0788  0.4846  0.2230
18944TIP3    H178323   6.537   5.276   0.560 -1.3684  0.3567  1.8343
18944TIP3    H278324   6.486   5.135   0.575  0.8103 -1.0209 -2.7546
18945TIP3   OH278325   0.614   2.004   6.031 -0.2158  0.4079  0.1879
18945TIP3    H178326   0.689   1.946   6.045  2.7094  3.6127 -1.3669
18945TIP3    H278327   0.608   2.014   5.936 -0.8106  2.4339  0.4110
18946TIP3   OH278328   5.347   6.425  12.649 -0.0575  0.2178 -0.4972
18946TIP3    H178329   5.296   6.471  12.715  1.3730 -0.6777  1.2932
18946TIP3    H278330   5.285   6.366  12.607 -0.6295 -0.4449  1.2371
18947TIP3   OH278331   4.457   2.776  12.682  0.1569  0.1322  0.1530
18947TIP3    H178332   4.543   2.754  12.645  0.2038 -1.7299  1.3001
18947TIP3    H278333   4.453   2.725  12.763 -1.0638  2.0615  1.3181
18948TIP3   OH278334   3.362   0.531  15.370  0.2342  0.4507 -0.0237
18948TIP3    H178335   3.399   0.619  15.359 -1.8846  1.3046 -0.5665
18948TIP3    H278336   3.314   0.535  15.453 -2.0115  0.6204 -1.2803
18949TIP3   OH278337   2.770   0.543   4.566 -0.1641  0.1589  0.1663
18949TIP3    H178338   2.799   0.631   4.590  0.2737  0.0847 -0.0814
18949TIP3    H278339   2.832   0.485   4.610 -0.8466 -0.0479  0.8671
18950TIP3   OH278340   1.136   2.941   3.147  0.9666  0.1507  0.5280
18950TIP3    H178341   1.124   3.036   3.140  1.9158  0.2484  0.1828
18950TIP3    H278342   1.082   2.904   3.077 -0.0113  0.3897  1.1502
18951TIP3   OH278343   0.597   0.932   4.970  0.0298  0.8685  0.2899
18951TIP3    H178344   0.537   1.006   4.965 -0.4054  0.4572 -0.6183
18951TIP3    H278345   0.638   0.927   4.884  0.7004  0.5855  0.6176
18952TIP3   OH278346   1.534   4.077   0.435 -0.3466 -0.0338 -0.8054
18952TIP3    H178347   1.446   4.077   0.472  0.6598 -0.1296  1.7100
18952TIP3    H278348   1.552   3.986   0.414 -0.4649 -0.1620 -0.3506
18953TIP3   OH278349   3.353   6.612  15.890  0.5341 -0.1720  0.7705
18953TIP3    H178350   3.274   6.557  15.893  0.8268 -0.6385  0.2528
18953TIP3    H278351   3.328   6.686  15.835  0.6222 -0.6093  0.1261
18954TIP3   OH278352   1.676   4.216   3.909  0.0980  0.1760  0.1353
18954TIP3    H178353   1.710   4.177   3.829  1.9980 -0.0636  1.0172
18954TIP3    H278354   1.640   4.300   3.882  0.8857  0.1725 -0.9503
18955TIP3   OH278355   3.588   4.241  15.573  0.0437  0.1834 -0.5741
18955TIP3    H178356   3.648   4.292  15.520  0.3186 -0.0952 -0.5340
18955TIP3    H278357   3.639   4.165  15.601  1.1463  2.2120  3.2954
18956TIP3   OH278358   0.821   0.939  15.701 -0.0116  0.3251  0.1467
18956TIP3    H178359   0.815   0.982  15.616  1.9341 -1.9507 -1.1931
18956TIP3    H278360   0.898   0.978  15.743  0.2477 -0.0346  0.0043
18957TIP3   OH278361   5.175   5.582  12.213  0.5055 -0.2144  0.2261
18957TIP3    H178362   5.192   5.676  12.202 -1.6239  0.0376 -1.2418
18957TIP3    H278363   5.096   5.578  12.267  1.0041 -1.1783  0.8924
18958TIP3   OH278364   5.410   5.460  12.076 -0.6190  0.0780 -0.0238
18958TIP3    H178365   5.345   5.506  12.129 -0.6331  0.2924 -0.2255
18958TIP3    H278366   5.378   5.370  12.073 -0.2602 -0.0888  0.8950
18959TIP3   OH278367   0.160   5.507   5.617 -0.1990 -0.2915  0.2272
18959TIP3    H178368   0.089   5.517   5.553  0.4055 -0.9322 -0.5658
18959TIP3    H278369   0.240   5.516   5.565  0.3103 -2.2471  0.6289
18960TIP3   OH278370   5.996   3.545   2.464  1.0199  0.4083  0.0156
18960TIP3    H178371   5.911   3.508   2.490  0.9369 -0.4625 -1.4892
18960TIP3    H278372   5.989   3.559   2.370  2.0478  1.6974  0.1142
18961TIP3   OH278373   6.186   5.001  15.493 -0.1926  0.2921  0.6749
18961TIP3    H178374   6.198   4.906  15.485 -1.1160  0.1427  0.9389
18961TIP3    H278375   6.198   5.019  15.586  2.4124  0.8065  0.2567
18962TIP3   OH278376   3.824   2.352   4.400  0.0251  0.1653  0.1528
18962TIP3    H178377   3.752   2.303   4.439  0.3112 -1.0951 -0.8986
18962TIP3    H278378   3.792   2.377   4.314  1.2565 -1.3956 -0.7810
18963TIP3   OH278379   0.503   4.865   2.608 -0.0423  0.3960  0.2469
18963TIP3    H178380   0.408   4.859   2.623  0.0005  0.1717  0.4293
18963TIP3    H278381   0.525   4.955   2.631 -0.4498  0.8710 -1.1334
18964TIP3   OH278382   2.050   5.071  13.599 -0.1568  0.0987  0.0386
18964TIP3    H178383   1.971   5.112  13.563 -0.3887 -2.2833 -2.4128
18964TIP3    H278384   2.022   5.033  13.682 -1.9576 -1.7457 -1.3624
18965TIP3   OH278385   0.684   2.166   4.116  0.2205  0.6820 -0.1317
18965TIP3    H178386   0.744   2.230   4.077 -1.1898  0.9775 -1.8314
18965TIP3    H278387   0.608   2.217   4.144  0.2390  0.1302  0.9720
18966TIP3   OH278388   2.177   3.492  13.705  0.5619 -0.8159 -0.0144
18966TIP3    H178389   2.133   3.424  13.755 -0.4463 -0.5066 -0.4727
18966TIP3    H278390   2.244   3.526  13.764  0.6962 -1.8168  0.4119
18967TIP3   OH278391   0.819   6.633   4.820  0.5195 -0.1590  0.7416
18967TIP3    H178392   0.910   6.661   4.829  0.0183  1.5746  0.6563
18967TIP3    H278393   0.801   6.642   4.726  0.0905  0.0599  0.8447
18968TIP3   OH278394   3.446   4.535   0.837 -0.2348  0.0613  0.2391
18968TIP3    H178395   3.493   4.596   0.779  0.6456 -0.5430  0.3114
18968TIP3    H278396   3.464   4.449   0.800 -1.1236 -0.1973  0.3991
18969TIP3   OH278397   1.795   0.990   1.175 -0.6639  0.4724 -0.3814
18969TIP3    H178398   1.868   1.052   1.184 -0.8078  0.5164  0.6324
18969TIP3    H278399   1.720   1.045   1.150 -0.1707  0.3112 -2.2390
18970TIP3   OH278400   4.237   2.118  11.605  0.2132 -0.0634  0.4261
18970TIP3    H178401   4.189   2.063  11.542 -1.0840  0.3541  1.0439
18970TIP3    H278402   4.313   2.065  11.630 -2.2022 -2.5862  2.7566
18971TIP3   OH278403   0.828   0.618   4.162  0.3468 -0.6588 -0.4124
18971TIP3    H178404   0.852   0.556   4.230 -1.2276 -1.1080 -0.2463
18971TIP3    H278405   0.910   0.641   4.120  1.1104 -1.7448  0.4701
18972TIP3   OH278406   1.068   3.781  15.062 -0.3058 -0.1900  0.1662
18972TIP3    H178407   1.036   3.691  15.073 -0.0495 -0.4414 -1.0484
18972TIP3    H278408   1.124   3.796  15.138 -0.3428 -1.0658  0.3713
18973TIP3   OH278409   6.734   3.332  12.769 -0.0606 -0.9056  0.0104
18973TIP3    H178410   6.773   3.380  12.696  1.0470 -2.2398 -0.2917
18973TIP3    H278411   6.656   3.291  12.731 -1.1595  0.8353  0.3357
18974TIP3   OH278412   3.323   4.713  15.383 -0.0296  0.1384  0.1758
18974TIP3    H178413   3.370   4.796  15.373 -1.2463  0.7485 -0.5960
18974TIP3    H278414   3.306   4.685  15.294 -0.3280 -0.5415  0.4472
18975TIP3   OH278415   2.220   2.414  11.785 -0.4171 -0.0359 -0.4431
18975TIP3    H178416   2.204   2.508  11.795  0.1419 -0.0551  0.7490
18975TIP3    H278417   2.285   2.408  11.714 -0.4955  0.4680 -0.5588
18976TIP3   OH278418   3.974   3.652  13.307 -0.4280 -0.0108 -0.2998
18976TIP3    H178419   3.917   3.622  13.378 -0.3656  2.4350  0.8366
18976TIP3    H278420   3.931   3.622  13.227 -2.1673 -0.0784  0.6376
18977TIP3   OH278421   4.343   1.903   3.791  0.3728 -0.2417 -1.0173
18977TIP3    H178422   4.324   1.884   3.699 -2.7167 -0.9568 -0.3042
18977TIP3    H278423   4.376   1.992   3.792 -0.1052 -0.0406 -2.7703
18978TIP3   OH278424   0.988   4.935   3.365  0.2421  0.3618 -0.0639
18978TIP3    H178425   1.075   4.906   3.335  0.4548  0.7869  0.1440
18978TIP3    H278426   0.965   5.006   3.306  0.9241  1.6055  1.1480
18979TIP3   OH278427   6.654   3.867  10.284 -0.2176 -0.4229  0.4376
18979TIP3    H178428   6.619   3.898  10.201  0.4817 -0.2774  0.1954
18979TIP3    H278429   6.585   3.886  10.348 -0.3887  0.2841  0.0446
18980TIP3   OH278430   4.889   3.855  14.901  0.3540 -0.0148 -0.5134
18980TIP3    H178431   4.896   3.881  14.993  0.6429  3.1936 -1.4036
18980TIP3    H278432   4.979   3.837  14.874  0.6000  1.6808 -0.8780
18981TIP3   OH278433   1.522   1.882   3.790  0.1756  0.1905  0.0421
18981TIP3    H178434   1.508   1.887   3.884  2.8564  0.7650  0.4619
18981TIP3    H278435   1.551   1.791   3.775  1.1724  0.4988  0.0254
18982TIP3   OH278436   5.135   3.620   6.769  0.5019 -0.8929  0.4764
18982TIP3    H178437   5.222   3.649   6.795  0.9487 -2.7871  1.1955
18982TIP3    H278438   5.142   3.524   6.767 -1.5392 -1.0553  0.4546
18983TIP3   OH278439   6.490   1.097  15.535 -0.6572  0.8842 -0.8584
18983TIP3    H178440   6.462   1.041  15.463 -1.0610 -0.2956  0.2104
18983TIP3    H278441   6.583   1.112  15.519 -0.0622 -1.7276 -0.0787
18984TIP3   OH278442   5.090   3.985  13.040 -1.2766 -0.3230  0.1658
18984TIP3    H178443   5.083   4.067  13.088 -1.9303 -0.1956 -0.1430
18984TIP3    H278444   5.159   3.936  13.086 -0.7788  0.4576  0.2506
18985TIP3   OH278445   4.498   6.455   4.326  0.2843  0.0382  0.0103
18985TIP3    H178446   4.572   6.414   4.370  2.6100  2.8498 -1.1721
18985TIP3    H278447   4.534   6.534   4.284 -2.6777 -0.2516 -3.3695
18986TIP3   OH278448   1.497   1.299  14.851  0.3936  0.1808  0.6028
18986TIP3    H178449   1.518   1.390  14.829 -0.4681  0.3162  0.3149
18986TIP3    H278450   1.522   1.249  14.773 -1.0660  0.4441 -0.0513
18987TIP3   OH278451   2.298   0.309  12.289 -0.3613  0.1418 -0.1621
18987TIP3    H178452   2.214   0.264  12.287 -0.4155  0.2448 -0.2216
18987TIP3    H278453   2.310   0.335  12.380  0.1436 -0.8792  0.0704
18988TIP3   OH278454   1.819   2.902   2.404  0.1763 -0.2887 -0.0981
18988TIP3    H178455   1.906   2.930   2.378 -0.3800 -0.2586 -1.9743
18988TIP3    H278456   1.760   2.949   2.347 -1.1355  0.2680  1.6646
18989TIP3   OH278457   0.796   3.862   2.681  0.0996 -0.0784  0.4752
18989TIP3    H178458   0.874   3.912   2.707 -0.0521  0.1282  0.5360
18989TIP3    H278459   0.830   3.779   2.649  0.6047  1.1427 -2.3974
18990TIP3   OH278460   1.833   6.671  11.477 -0.0946 -0.4209  0.7381
18990TIP3    H178461   1.794   6.610  11.540 -1.0101 -1.2644 -0.6105
18990TIP3    H278462   1.924   6.681  11.506  0.0651 -2.3989  1.0189
18991TIP3   OH278463   2.549   4.483   5.032  0.3739 -0.1987 -0.1896
18991TIP3    H178464   2.569   4.389   5.029  1.3535 -0.0111  0.2795
18991TIP3    H278465   2.565   4.508   5.123 -2.3706 -0.0920  0.3123
18992TIP3   OH278466   0.309   2.034   3.096 -0.3961  0.3823  0.4369
18992TIP3    H178467   0.302   2.128   3.076  0.3060  0.3409 -0.0077
18992TIP3    H278468   0.219   2.003   3.094 -0.3705  0.2988 -3.1068
18993TIP3   OH278469   0.529   0.091  14.492  0.4406  0.2961 -0.2635
18993TIP3    H178470   0.442   0.108  14.455 -0.7570 -1.1020  1.8435
18993TIP3    H278471   0.530  -0.003  14.509  1.1072  0.8386  2.8734
18994TIP3   OH278472   6.757   0.322  16.133  0.4499 -0.2498  0.7770
18994TIP3    H178473   6.687   0.369  16.089  0.9431 -0.9591 -0.8103
18994TIP3    H278474   6.838   0.358  16.096  0.8423 -1.6785  0.2050
18995TIP3   OH278475   1.772   5.825   0.036  0.2185  0.7697  0.0957
18995TIP3    H178476   1.807   5.812   0.124 -0.6529  4.0515  0.9885
18995TIP3    H278477   1.825   5.897  -0.001  0.8185 -0.7953 -2.2163
18996TIP3   OH278478   3.214   4.435  10.995  0.0843 -0.3130  0.0947
18996TIP3    H178479   3.307   4.459  10.986 -0.0017  0.2081  0.5311
18996TIP3    H278480   3.169   4.495  10.935  0.1880 -1.7913 -1.5060
18997TIP3   OH278481   2.378   4.120   5.027 -0.4013 -0.0801  0.2068
18997TIP3    H178482   2.301   4.136   5.081  0.0714 -0.2846  0.9405
18997TIP3    H278483   2.370   4.028   5.000 -0.5494 -0.0252  0.0652
18998TIP3   OH278484   0.615   2.903  14.742  0.3443  0.1854 -0.1366
18998TIP3    H178485   0.562   2.950  14.806 -1.1710 -2.3146  0.5148
18998TIP3    H278486   0.705   2.927  14.763 -0.3713  2.8562  0.0711
18999TIP3   OH278487   3.760   3.186  13.168 -0.3618 -0.0136  0.5762
18999TIP3    H178488   3.831   3.222  13.116  0.7013 -1.5030  0.9632
18999TIP3    H278489   3.725   3.114  13.115 -0.9037  0.0546  0.8349
19000TIP3   OH278490   2.461   5.756  15.207 -0.0657 -0.4141  0.7644
19000TIP3    H178491   2.468   5.745  15.112  0.8492 -0.8105  0.8708
19000TIP3    H278492   2.368   5.772  15.222  0.1742  2.7664 -0.5514
19001TIP3   OH278493   3.663   1.734   5.044 -0.3318 -0.7309  0.4954
19001TIP3    H178494   3.648   1.646   5.079 -0.2120 -0.5248  1.0663
19001TIP3    H278495   3.714   1.778   5.112  0.3136 -0.4849 -0.1488
19002TIP3   OH278496   3.944   1.939   5.530  0.1860 -0.0596  0.1301
19002TIP3    H178497   3.993   1.982   5.459  0.3878 -0.2426  0.1580
19002TIP3    H278498   3.929   2.009   5.594 -1.9691  0.6660 -1.1047
19003TIP3   OH278499   4.054   0.004   1.389  0.2502 -0.4933  0.6014
19003TIP3    H178500   4.073  -0.089   1.405  0.9295 -0.6647 -1.0788
19003TIP3    H278501   4.139   0.043   1.371 -0.1220  0.3153  0.5691
19004TIP3   OH278502   6.349   6.517   5.727  0.4353 -0.5677 -0.9844
19004TIP3    H178503   6.342   6.558   5.641  0.1877 -0.6563 -1.0070
19004TIP3    H278504   6.258   6.506   5.755  0.5241 -0.0654 -0.4908
19005TIP3   OH278505   5.793   6.380   5.624 -0.2193 -0.2985 -0.1042
19005TIP3    H178506   5.707   6.345   5.601 -1.1105  0.9103  1.3208
19005TIP3    H278507   5.785   6.405   5.716  0.4705  3.3710 -0.9768
19006TIP3   OH278508   6.416   6.341  15.799  1.0873 -0.0356  0.1318
19006TIP3    H178509   6.450   6.258  15.832  2.0108  0.7289  1.1932
19006TIP3    H278510   6.450   6.406  15.861  0.3499  1.1209 -0.6570
19007TIP3   OH278511   6.091   2.080   3.192  0.3802  0.1140 -0.1690
19007TIP3    H178512   6.078   2.152   3.130 -0.6273  0.4944  0.4762
19007TIP3    H278513   6.114   2.123   3.274  1.1748 -0.3691 -0.1323
19008TIP3   OH278514   3.180   4.585  13.581  0.0050  0.2519 -0.0177
19008TIP3    H178515   3.186   4.493  13.554  0.7295  0.9406 -2.3338
19008TIP3    H278516   3.090   4.610  13.563 -0.7054 -0.4723  2.3239
19009TIP3   OH278517   4.411   2.623  16.375 -0.2335 -0.3541  0.2370
19009TIP3    H178518   4.411   2.633  16.471 -1.6729 -0.7677  0.2935
19009TIP3    H278519   4.491   2.667  16.346 -0.2463  0.5573  1.5514
19010TIP3   OH278520   5.090   5.649  16.288 -0.1060  0.3308  0.0928
19010TIP3    H178521   5.160   5.593  16.322 -0.3954  0.0101  0.1582
19010TIP3    H278522   5.038   5.591  16.231 -0.3740  0.5436  0.1168
19011TIP3   OH278523   5.691   5.318   6.159  0.0429  0.5908  0.2603
19011TIP3    H178524   5.679   5.281   6.072 -0.5754  1.8958 -0.2104
19011TIP3    H278525   5.642   5.400   6.158  0.6794  1.0061  1.5793
19012TIP3   OH278526   5.126   5.472   2.099  0.3991  0.9815 -0.6112
19012TIP3    H178527   5.213   5.462   2.138 -0.6783  2.0542  2.2464
19012TIP3    H278528   5.138   5.539   2.032  1.6948  1.4496  0.0629
19013TIP3   OH278529   4.035   2.957  14.038  0.0078  0.1095  0.7870
19013TIP3    H178530   3.960   3.013  14.056 -1.5898 -1.6574 -0.0878
19013TIP3    H278531   4.081   2.950  14.122 -0.2416  1.9789  1.0974
19014TIP3   OH278532   5.225   6.349   3.740 -0.7136  0.1796 -0.1560
19014TIP3    H178533   5.253   6.440   3.732 -0.0621 -0.0011 -0.0180
19014TIP3    H278534   5.291   6.300   3.691 -0.4452 -0.3164  0.6969
19015TIP3   OH278535   2.703   6.020   5.455  0.1015 -0.5962 -0.5551
19015TIP3    H178536   2.629   6.079   5.441  0.4912 -0.1458 -0.7430
19015TIP3    H278537   2.710   5.971   5.373 -1.8566 -2.7753  0.5267
19016TIP3   OH278538   0.786   5.593  13.750  0.0533 -0.4119 -0.3426
19016TIP3    H178539   0.747   5.664  13.699 -0.2119 -0.4943 -0.2593
19016TIP3    H278540   0.839   5.544  13.688 -0.7060 -0.8419 -0.6665
19017TIP3   OH278541   0.481   3.012   4.261  0.1484  0.3329 -0.0388
19017TIP3    H178542   0.489   3.021   4.166 -0.2719  0.9315 -0.0134
19017TIP3    H278543   0.425   3.084   4.289 -1.5577 -1.1434  0.4015
19018TIP3   OH278544   1.053   6.232  13.245  0.0616 -0.0908  0.0600
19018TIP3    H178545   1.069   6.290  13.319  0.6899 -0.7215  0.4345
19018TIP3    H278546   0.982   6.175  13.274 -0.7213  0.6405 -0.3974
19019TIP3   OH278547   4.088   1.310  15.371  0.0272  0.2722  0.2232
19019TIP3    H178548   4.012   1.266  15.409  0.6081 -0.4622  0.5578
19019TIP3    H278549   4.152   1.240  15.359  1.3196  1.1572  1.6346
19020TIP3   OH278550   0.338   0.863  13.160 -0.0007  0.3719  0.4367
19020TIP3    H178551   0.285   0.785  13.174  0.6978  0.0608  1.3387
19020TIP3    H278552   0.363   0.859  13.068 -0.7009 -0.0052  0.2616
19021TIP3   OH278553   2.723   2.705   1.693 -0.1578  0.2243 -0.2671
19021TIP3    H178554   2.745   2.693   1.601 -0.0923  3.3198 -0.7282
19021TIP3    H278555   2.721   2.800   1.705  3.8632 -0.0032  3.8568
19022TIP3   OH278556   3.206   2.846  10.295  0.0366  0.3168 -0.1139
19022TIP3    H178557   3.149   2.792  10.350  0.8063  1.0865  1.4425
19022TIP3    H278558   3.259   2.896  10.356 -1.8433  4.1420 -1.4665
19023TIP3   OH278559   0.218   5.044   5.898 -0.0234 -0.0170 -0.6028
19023TIP3    H178560   0.209   4.962   5.947 -0.8339  1.0356  1.0380
19023TIP3    H278561   0.303   5.035   5.854  0.5523 -1.1519  0.6760
19024TIP3   OH278562   2.875   3.120  14.824  0.7219  0.0653 -0.2563
19024TIP3    H178563   2.897   3.200  14.777  1.4406  0.9933  1.5861
19024TIP3    H278564   2.890   3.141  14.916 -1.5816 -1.3837  0.5072
19025TIP3   OH278565   5.715   2.286   2.841 -0.1101 -0.2975 -0.9297
19025TIP3    H178566   5.688   2.354   2.904  1.5311  0.0954 -0.6263
19025TIP3    H278567   5.639   2.276   2.783 -1.9681 -1.1934  1.5347
19026TIP3   OH278568   1.693   3.501  11.390  0.7714 -0.9012  0.0260
19026TIP3    H178569   1.667   3.411  11.410  0.1616 -0.2860  2.0306
19026TIP3    H278570   1.668   3.512  11.298 -0.5730 -2.2777  0.1896
19027TIP3   OH278571   6.197   2.811  14.174  0.0833 -0.4053  0.3623
19027TIP3    H178572   6.243   2.892  14.195 -2.6910  1.5700 -0.8763
19027TIP3    H278573   6.219   2.793  14.083  0.5494 -0.9619  0.5819
19028TIP3   OH278574   2.135   1.855   1.705  0.2913 -0.3107 -0.3237
19028TIP3    H178575   2.075   1.874   1.777 -0.6601 -0.4507 -1.0681
19028TIP3    H278576   2.078   1.838   1.630  1.2224 -1.6530 -0.7539
19029TIP3   OH278577   0.836   1.106  15.494  0.2357  0.2043  0.1250
19029TIP3    H178578   0.764   1.146  15.445  0.2846  0.4583  0.2610
19029TIP3    H278579   0.886   1.180  15.528  1.7803  0.0490 -1.7320
19030TIP3   OH278580   4.661   0.393  11.610 -0.4298 -0.3533  0.2942
19030TIP3    H178581   4.756   0.385  11.602 -0.2366  0.6045  1.4892
19030TIP3    H278582   4.635   0.444  11.534 -0.0311 -0.9553 -0.2449
19031TIP3   OH278583   6.410   1.680  15.286  0.1544  0.5630  0.4615
19031TIP3    H178584   6.506   1.680  15.289  0.2422  2.2301 -1.0691
19031TIP3    H278585   6.384   1.738  15.357  0.3559  1.2997 -0.0565
19032TIP3   OH278586   0.756   2.425   4.453 -0.8160 -0.1733 -0.3102
19032TIP3    H178587   0.755   2.513   4.417 -2.0212 -0.7299 -1.6974
19032TIP3    H278588   0.668   2.414   4.491 -0.8852 -0.9885 -0.6903
19033TIP3   OH278589   1.502   3.693   2.261  0.5535  0.5634 -0.2602
19033TIP3    H178590   1.447   3.760   2.302  1.0722  0.4381  0.6526
19033TIP3    H278591   1.440   3.631   2.222  0.0241 -0.1237  1.6407
19034TIP3   OH278592   2.553   6.816   1.158 -0.1975  0.0436 -0.1531
19034TIP3    H178593   2.473   6.826   1.209 -0.0918 -1.4461  0.3295
19034TIP3    H278594   2.622   6.849   1.215 -0.5505  2.0776 -0.8788
19035TIP3   OH278595   0.869   5.697   5.420 -0.3849 -0.1669 -0.2049
19035TIP3    H178596   0.944   5.641   5.401  0.7268  0.8537  1.0355
19035TIP3    H278597   0.891   5.780   5.377  0.1121  0.7427  1.7520
19036TIP3   OH278598   4.736   0.567   6.276 -0.0834  0.1689  0.1650
19036TIP3    H178599   4.827   0.541   6.292 -1.1895 -4.4556 -0.2951
19036TIP3    H278600   4.697   0.572   6.364  0.2063  0.4441  0.2774
19037TIP3   OH278601   1.697   0.074   5.586 -0.2357  0.0809 -0.0444
19037TIP3    H178602   1.668   0.093   5.497  1.9494 -1.5767 -1.1713
19037TIP3    H278603   1.619   0.041   5.630 -1.5649  1.8116 -1.0505
19038TIP3   OH278604   1.549   3.196   2.739  0.5297 -0.5971 -0.2392
19038TIP3    H178605   1.497   3.116   2.727 -0.9813  0.3563 -0.1718
19038TIP3    H278606   1.639   3.166   2.740 -0.0538 -2.3736  0.2832
19039TIP3   OH278607   2.041   1.099   0.870  0.0311 -0.0297 -0.4528
19039TIP3    H178608   1.972   1.136   0.925  0.2685 -0.4106  0.1062
19039TIP3    H278609   1.999   1.089   0.784 -0.7756 -0.7157  0.0034
19040TIP3   OH278610   6.044   2.340  16.337 -0.3556  0.2363  0.0660
19040TIP3    H178611   6.046   2.273  16.405  0.5973 -0.7362 -0.9095
19040TIP3    H278612   5.959   2.328  16.294 -0.1976 -0.3142 -0.0883
19041TIP3   OH278613   0.815   1.786  12.316  0.7120 -0.3236 -0.0698
19041TIP3    H178614   0.875   1.778  12.242 -0.1894 -2.8817 -0.5699
19041TIP3    H278615   0.734   1.745  12.286  0.7441 -2.6292  2.7638
19042TIP3   OH278616   1.879   1.410   4.323 -0.3904 -0.5373  0.1318
19042TIP3    H178617   1.819   1.400   4.397 -1.6851  0.4645 -0.7548
19042TIP3    H278618   1.821   1.412   4.246  0.8543 -0.4666 -0.8149
19043TIP3   OH278619   3.129   5.232   2.527  0.6164 -0.1701  0.1978
19043TIP3    H178620   3.068   5.257   2.596  1.4405  0.9760  0.5245
19043TIP3    H278621   3.156   5.314   2.486  0.9202 -0.7605 -0.8173
19044TIP3   OH278622   4.043   2.876   4.472  0.9479  0.2408 -0.4069
19044TIP3    H178623   4.077   2.876   4.383 -1.1843 -0.8087 -1.2642
19044TIP3    H278624   4.032   2.783   4.494 -1.2523  0.5151 -0.1719
19045TIP3   OH278625   3.480   1.856   1.074  0.3247 -0.4515  0.2812
19045TIP3    H178626   3.402   1.904   1.045  0.7195  0.8715  1.3286
19045TIP3    H278627   3.554   1.907   1.040  0.7426 -1.0104  0.3395
19046TIP3   OH278628   4.958   1.513  13.060  0.2649  0.1680  0.3365
19046TIP3    H178629   4.889   1.517  13.125  0.9647  1.9873  1.0141
19046TIP3    H278630   5.018   1.445  13.091 -1.6865 -2.1446 -0.7859
19047TIP3   OH278631   3.389   6.005   4.942  0.0443 -0.2976 -0.1461
19047TIP3    H178632   3.311   6.049   4.977  0.1396 -0.5923  0.4362
19047TIP3    H278633   3.409   6.053   4.862  1.2686  1.9317  1.4572
19048TIP3   OH278634   4.657   0.742   6.508 -0.1608 -0.5933  0.4570
19048TIP3    H178635   4.578   0.753   6.560 -0.3734 -0.6586  0.1497
19048TIP3    H278636   4.727   0.777   6.563 -0.3891 -0.6253  0.7684
19049TIP3   OH278637   6.619   6.689   4.824  0.2445 -0.3218 -0.1041
19049TIP3    H178638   6.600   6.677   4.917  1.0001  2.0703  0.3761
19049TIP3    H278639   6.544   6.648   4.780 -1.5517  0.9846  1.6142
19050TIP3   OH278640   3.887   3.085   1.156  0.2430 -0.2165  0.0140
19050TIP3    H178641   3.818   3.041   1.206  0.5866 -0.2448  0.4694
19050TIP3    H278642   3.926   3.016   1.102 -0.2205 -0.1579 -0.3911
19051TIP3   OH278643   4.371   2.252  12.988 -0.1444 -0.2239 -0.2423
19051TIP3    H178644   4.298   2.258  12.925  0.5949 -1.4216 -1.2241
19051TIP3    H278645   4.425   2.181  12.956  1.1577  0.2582  0.8314
19052TIP3   OH278646   3.959   6.036  11.372  0.3702 -1.2102 -0.1371
19052TIP3    H178647   3.905   6.049  11.450  1.4179 -1.2551  0.6114
19052TIP3    H278648   3.930   6.103  11.311 -0.2699 -0.9890  0.4000
19053TIP3   OH278649   0.393   6.031  17.229 -0.0255 -0.4166 -0.5262
19053TIP3    H178650   0.339   6.073  17.296  0.4701  1.7485 -1.4595
19053TIP3    H278651   0.416   5.946  17.267 -0.4338  0.4327  1.7009
19054TIP3   OH278652   2.124   3.597   3.715 -0.2269  0.0954  0.4434
19054TIP3    H178653   2.123   3.534   3.644  0.3491  0.0288  0.4987
19054TIP3    H278654   2.049   3.654   3.697  0.0724  0.2412 -0.3565
19055TIP3   OH278655   1.068   4.510   6.010 -0.3544 -0.2875  0.2955
19055TIP3    H178656   1.113   4.570   5.951 -0.8568 -0.7606 -0.5802
19055TIP3    H278657   0.976   4.514   5.983 -0.7972  0.3667  1.8045
19056TIP3   OH278658   4.091   5.940   0.255 -0.0162  0.3787  0.4012
19056TIP3    H178659   4.133   6.019   0.221  0.2549  0.3973  0.7824
19056TIP3    H278660   4.120   5.935   0.346 -1.2938  0.7190  0.8455
19057TIP3   OH278661   5.652   2.333   4.670  0.3747  0.2672  0.0308
19057TIP3    H178662   5.579   2.361   4.726 -0.3410 -0.1637 -0.6699
19057TIP3    H278663   5.715   2.405   4.676  0.5559 -0.0168  1.8096
19058TIP3   OH278664   2.180   3.913  14.488 -0.5725 -0.3244  0.0946
19058TIP3    H178665   2.093   3.875  14.486 -0.4530 -0.6410  0.7122
19058TIP3    H278666   2.176   3.981  14.555 -0.5782  0.2574 -0.4838
19059TIP3   OH278667   5.321   4.150   1.832  0.4060  0.3132 -0.0718
19059TIP3    H178668   5.257   4.157   1.762  0.8920  2.2781 -0.3371
19059TIP3    H278669   5.402   4.121   1.789  0.3102  0.0813 -0.0954
19060TIP3   OH278670   3.010   2.594   5.673  0.5737 -0.3848  0.1820
19060TIP3    H178671   2.946   2.534   5.711 -0.3501  0.8068  0.5428
19060TIP3    H278672   2.979   2.681   5.698  1.5508  0.2763 -0.8632
19061TIP3   OH278673   0.063   0.738   3.544 -0.8365  0.4267 -0.1002
19061TIP3    H178674   0.052   0.712   3.452 -1.2731  0.5593 -0.0860
19061TIP3    H278675   0.140   0.688   3.574 -1.3730 -0.4851 -0.2111
19062TIP3   OH278676   2.314   1.691   5.319  0.4220  0.7249  0.4485
19062TIP3    H178677   2.230   1.732   5.340 -0.3342 -2.2360  3.8778
19062TIP3    H278678   2.348   1.662   5.404  4.2553  0.5479 -1.0284
19063TIP3   OH278679   0.158   1.329   0.515  0.1132 -0.3648 -0.4181
19063TIP3    H178680   0.142   1.250   0.462  1.2852 -0.5344 -0.5154
19063TIP3    H278681   0.093   1.323   0.585  0.7166 -1.8467  0.0422
19064TIP3   OH278682   4.637   6.397   3.265 -0.4529  0.5435 -0.1475
19064TIP3    H178683   4.641   6.490   3.287 -1.3215  1.0742 -2.1046
19064TIP3    H278684   4.549   6.370   3.289  0.0591 -0.0137  1.1938
19065TIP3   OH278685   0.327   3.995   3.884 -0.0675  0.6297  0.0681
19065TIP3    H178686   0.301   4.033   3.801 -1.2969  0.0214  0.1632
19065TIP3    H278687   0.361   4.069   3.935  2.6866  0.6677 -1.7078
19066TIP3   OH278688   0.692   5.399   3.907  0.1004 -0.5620 -0.2565
19066TIP3    H178689   0.768   5.437   3.951 -1.8567  0.2238  2.5543
19066TIP3    H278690   0.720   5.388   3.816  3.9698 -1.4397  0.9532
19067TIP3   OH278691   1.108   0.416  11.256  0.0051  0.0083 -0.5371
19067TIP3    H178692   1.152   0.494  11.222 -0.2578 -0.1483 -1.2359
19067TIP3    H278693   1.057   0.382  11.182  0.4889 -1.0965 -0.3708
19068TIP3   OH278694   5.010   3.274   3.549  0.1195  0.0704 -0.1266
19068TIP3    H178695   5.036   3.188   3.583  0.3108  0.3342  0.3974
19068TIP3    H278696   5.092   3.315   3.521 -0.0495 -0.1958 -1.0359
19069TIP3   OH278697   5.010   0.928  10.843 -0.2520 -0.0069 -0.3440
19069TIP3    H178698   5.023   0.848  10.792 -0.0657 -0.2172  0.0319
19069TIP3    H278699   4.943   0.905  10.908  1.5576 -0.6060  1.3637
19070TIP3   OH278700   2.077   2.879   4.381 -0.2337  0.0810 -0.0744
19070TIP3    H178701   2.038   2.906   4.465 -0.5773  0.4661 -0.3586
19070TIP3    H278702   2.004   2.843   4.332  0.3651 -2.1709  0.6224
19071TIP3   OH278703   0.347   1.005  16.072 -0.2666  0.1328 -0.0885
19071TIP3    H178704   0.410   1.073  16.050 -0.2239  0.1721  0.1477
19071TIP3    H278705   0.277   1.014  16.007 -0.7513  1.0607  0.5542
19072TIP3   OH278706   5.159   5.741   1.673 -0.0606  0.1502  0.1168
19072TIP3    H178707   5.182   5.832   1.652  1.5578 -0.1879  0.4255
19072TIP3    H278708   5.091   5.719   1.609  1.1114  0.8615 -1.4250
19073TIP3   OH278709   4.127   1.861  14.036  0.2019  0.4648  0.5916
19073TIP3    H178710   4.183   1.859  13.959  0.4104 -0.9729  0.7520
19073TIP3    H278711   4.140   1.775  14.077 -0.0628  1.1154  2.1061
19074TIP3   OH278712   6.509   2.787   0.122 -0.1540  0.5632  0.3854
19074TIP3    H178713   6.418   2.813   0.103 -0.6132 -1.0684  0.2558
19074TIP3    H278714   6.542   2.856   0.180 -1.4986  1.1403  0.4913
19075TIP3   OH278715   0.831   4.710  12.149 -0.0047 -0.1600 -0.5142
19075TIP3    H178716   0.855   4.693  12.240  0.9634 -1.0989 -0.9314
19075TIP3    H278717   0.798   4.800  12.149  1.6877  0.4733  0.4404
19076TIP3   OH278718   1.798   4.699  16.027 -0.2940 -0.2533 -0.2799
19076TIP3    H178719   1.851   4.631  15.984  0.7059  0.4323 -0.1443
19076TIP3    H278720   1.782   4.665  16.115  0.7684 -0.0258  0.0085
19077TIP3   OH278721   2.889   3.523  15.909  0.0656 -0.8269 -0.7057
19077TIP3    H178722   2.938   3.582  15.853 -0.0280 -0.5841 -0.5320
19077TIP3    H278723   2.800   3.558  15.910  0.6865  0.8250  1.8570
19078TIP3   OH278724   3.263   0.411  12.624 -0.1177 -0.8456 -0.1381
19078TIP3    H178725   3.276   0.495  12.582  2.7178  0.2272  2.6697
19078TIP3    H278726   3.193   0.427  12.688 -0.7920 -1.0933 -0.8104
19079TIP3   OH278727   4.553   0.005  11.242 -0.5329 -0.0985  0.3799
19079TIP3    H178728   4.624  -0.003  11.179  0.7135  0.3825  1.7082
19079TIP3    H278729   4.476  -0.030  11.196  0.6546 -1.1222 -0.8656
19080TIP3   OH278730   3.691   0.725   2.647  0.7112  0.3985 -0.4537
19080TIP3    H178731   3.742   0.806   2.644  1.2600  0.1514  1.4257
19080TIP3    H278732   3.620   0.744   2.709  1.2657 -0.7704  0.5775
19081TIP3   OH278733   6.354   0.433   2.854 -0.0952  0.3481 -0.0652
19081TIP3    H178734   6.378   0.466   2.768  0.1171  0.9458  0.2240
19081TIP3    H278735   6.432   0.387   2.885 -0.4752 -0.6728 -0.5774
19082TIP3   OH278736   4.078   4.200  13.872 -0.1802  0.6450 -0.1925
19082TIP3    H178737   4.087   4.205  13.967 -0.4907  1.3088 -0.1934
19082TIP3    H278738   3.998   4.149  13.858 -0.2957  0.8006 -0.0937
19083TIP3   OH278739   4.298   2.422  17.168 -0.3860  0.0744  0.3900
19083TIP3    H178740   4.244   2.349  17.138  2.8976 -2.0773 -0.5603
19083TIP3    H278741   4.313   2.475  17.089  0.0159 -0.0880  0.3564
19084TIP3   OH278742   2.001   4.372  13.288  0.5315 -0.1671 -0.6427
19084TIP3    H178743   1.943   4.407  13.221  1.0783 -0.5200 -1.2962
19084TIP3    H278744   2.029   4.449  13.339 -0.3830  0.0224 -0.4179
19085TIP3   OH278745   3.656   0.440   2.023  0.0160  0.0268 -0.0898
19085TIP3    H178746   3.614   0.474   2.102  0.6556  1.1022 -0.2173
19085TIP3    H278747   3.729   0.387   2.055 -1.1302 -1.4820  0.1164
19086TIP3   OH278748   2.530   3.520   4.156 -0.6107  0.7659 -0.7237
19086TIP3    H178749   2.528   3.444   4.215 -0.0720  0.8280 -0.6287
19086TIP3    H278750   2.498   3.592   4.210  0.5661  0.9709 -0.2937
19087TIP3   OH278751   1.950   1.542  16.435  0.2502  0.5126 -0.5515
19087TIP3    H178752   1.878   1.603  16.454 -1.1366 -1.8828  2.3592
19087TIP3    H278753   1.909   1.474  16.382  0.7695 -0.0319 -0.2502
19088TIP3   OH278754   3.280   1.682   6.671 -0.5573  0.5016  0.4089
19088TIP3    H178755   3.194   1.716   6.697 -1.2310 -1.3696  0.6524
19088TIP3    H278756   3.342   1.743   6.711 -1.7542  1.7246  0.4514
19089TIP3   OH278757   1.056   6.234   2.544  0.2954 -0.2309  0.2124
19089TIP3    H178758   1.067   6.151   2.591 -1.7555 -0.4812  0.2703
19089TIP3    H278759   0.980   6.275   2.584  0.6290  1.1860 -0.5590
19090TIP3   OH278760   1.478   3.027   0.791  0.3843 -0.2895  0.4439
19090TIP3    H178761   1.421   3.104   0.791 -1.0036 -1.2619  2.2795
19090TIP3    H278762   1.444   2.971   0.722 -0.1688 -0.3603  0.7753
19091TIP3   OH278763   5.654   5.161   5.931 -0.1866 -0.5698 -0.4175
19091TIP3    H178764   5.608   5.210   5.863 -0.3110 -0.2156 -0.0825
19091TIP3    H278765   5.706   5.096   5.884 -0.4014 -0.4354 -0.8396
19092TIP3   OH278766   3.398   1.868   6.107 -0.2468 -0.1300 -0.7549
19092TIP3    H178767   3.427   1.778   6.116 -0.8881 -0.2808 -0.1121
19092TIP3    H278768   3.476   1.917   6.082  0.3469 -0.6664  0.0471
19093TIP3   OH278769   3.951   0.822   3.731  0.7344  0.4530 -0.0601
19093TIP3    H178770   3.909   0.781   3.655  1.9875 -1.3993  0.1955
19093TIP3    H278771   3.893   0.801   3.804  1.1401 -0.5381 -0.0052
19094TIP3   OH278772   0.803   2.883   3.117 -0.7421 -0.4832  0.2658
19094TIP3    H178773   0.760   2.968   3.113  1.6673  0.7475  0.2146
19094TIP3    H278774   0.843   2.880   3.203 -0.7739 -1.5756  0.2544
19095TIP3   OH278775   0.171   4.336  12.410 -0.0612 -0.0319  0.4485
19095TIP3    H178776   0.137   4.252  12.377 -0.6185 -0.3801  1.8687
19095TIP3    H278777   0.093   4.381  12.443  0.6960 -0.4166  2.8480
19096TIP3   OH278778   1.606   3.350   4.039  0.3501  0.3501  0.6587
19096TIP3    H178779   1.525   3.299   4.043  0.7393 -0.3731 -0.4674
19096TIP3    H278780   1.622   3.364   3.945  1.5986  0.3723  0.8614
19097TIP3   OH278781   0.306   0.573   0.098 -0.2661 -0.5958 -0.4738
19097TIP3    H178782   0.385   0.519   0.095  0.4247  0.3772 -0.0817
19097TIP3    H278783   0.324   0.645   0.038 -0.5552  0.0405  0.2000
19098TIP3   OH278784   6.506   1.368   0.225 -0.6627 -0.2571  0.7359
19098TIP3    H178785   6.475   1.458   0.237 -0.7688  0.0457 -1.5658
19098TIP3    H278786   6.428   1.320   0.197  0.0873 -0.3237 -1.3192
19099TIP3   OH278787   5.463   1.385  13.991  0.0442 -0.0702 -0.0916
19099TIP3    H178788   5.517   1.440  13.935  0.6538  0.5755  1.1215
19099TIP3    H278789   5.380   1.377  13.943 -0.2145  2.2656 -0.1027
19100TIP3   OH278790   1.105   5.578  12.928 -0.6396 -0.3594  0.1656
19100TIP3    H178791   1.077   5.503  12.875 -0.1093  1.0087 -2.1067
19100TIP3    H278792   1.089   5.654  12.872  0.0971  1.1275  1.9277
19101TIP3   OH278793   1.739   5.142  13.008 -1.1725 -0.3078  0.0361
19101TIP3    H178794   1.647   5.161  13.025 -0.9392  0.2733  0.6575
19101TIP3    H278795   1.787   5.200  13.067 -0.3985 -0.1684 -0.7131
19102TIP3   OH278796   1.691   0.983  12.797 -0.4740 -0.2489 -0.0911
19102TIP3    H178797   1.677   1.075  12.820 -0.1037 -0.0058 -0.8497
19102TIP3    H278798   1.717   0.942  12.880  0.3339  0.5204  0.0494
19103TIP3   OH278799   3.793   3.472  16.758  0.0089 -0.1187 -0.4869
19103TIP3    H178800   3.875   3.429  16.784  1.3036  1.5436 -1.7060
19103TIP3    H278801   3.785   3.454  16.665  0.5315  2.1683 -1.0101
19104TIP3   OH278802   0.301   6.331   4.019  0.1764  0.1897 -0.4235
19104TIP3    H178803   0.343   6.269   3.958  2.7623 -1.0558  2.4669
19104TIP3    H278804   0.211   6.301   4.026  0.4615 -1.0611 -1.7858
19105TIP3   OH278805   0.594   0.601   4.551 -0.5470 -0.1079 -0.7823
19105TIP3    H178806   0.599   0.519   4.501  1.8898 -0.5774  0.1564
19105TIP3    H278807   0.540   0.580   4.627 -1.0462 -0.4723 -1.2374
19106TIP3   OH278808   1.750   1.481   3.309  0.1988 -0.6909 -0.0016
19106TIP3    H178809   1.723   1.427   3.382  0.3164 -0.5568  0.1421
19106TIP3    H278810   1.677   1.477   3.247 -0.6260  0.5439  0.8569
19107TIP3   OH278811   3.299   3.564   6.134  0.2500  0.1852 -0.3055
19107TIP3    H178812   3.383   3.598   6.103 -0.5565  0.8094 -1.8366
19107TIP3    H278813   3.247   3.642   6.154  0.4016 -0.1970  1.7392
19108TIP3   OH278814   2.172   1.081   2.257 -0.2216 -0.5986 -0.3327
19108TIP3    H178815   2.086   1.080   2.215  0.0619  0.1785 -0.9363
19108TIP3    H278816   2.154   1.090   2.351 -0.7791  0.0448 -0.5058
19109TIP3   OH278817   4.110   1.158  16.693  0.0791 -0.3582  0.0567
19109TIP3    H178818   4.117   1.115  16.607  2.3866  1.1950 -0.5778
19109TIP3    H278819   4.022   1.196  16.693  0.5059  0.7474 -2.1890
19110TIP3   OH278820   5.666   6.357   5.085  0.3698 -0.5154 -0.2183
19110TIP3    H178821   5.599   6.327   5.024 -0.5475 -2.7970  1.7990
19110TIP3    H278822   5.713   6.277   5.110  1.4864  0.5310  1.1280
19111TIP3   OH278823   5.874   5.167   2.731  0.0154 -0.4900 -0.5625
19111TIP3    H178824   5.923   5.215   2.797 -0.8623  1.8595 -1.5779
19111TIP3    H278825   5.799   5.130   2.778  0.5260 -0.6020  0.1698
19112TIP3   OH278826   2.418   2.097   0.696  0.1165 -0.2867 -0.3037
19112TIP3    H178827   2.492   2.088   0.635  0.7141  0.5987  0.2712
19112TIP3    H278828   2.376   2.178   0.669 -0.2532 -0.4466 -0.2029
19113TIP3   OH278829   0.836   1.437   0.749 -0.1992  0.0763 -0.1128
19113TIP3    H178830   0.881   1.384   0.815  0.8001  0.9016 -0.1198
19113TIP3    H278831   0.894   1.434   0.673 -0.7437  0.1565 -0.5310
19114TIP3   OH278832   1.548   6.469  13.906 -0.5412  0.3740 -0.2693
19114TIP3    H178833   1.518   6.493  13.993  1.5567 -0.3076  0.6605
19114TIP3    H278834   1.643   6.469  13.912 -0.4002 -1.5945 -2.0383
19115TIP3   OH278835   3.483   5.798  14.142  0.2577 -1.3090  0.8276
19115TIP3    H178836   3.506   5.705  14.139  0.2058 -1.4294  3.1283
19115TIP3    H278837   3.556   5.843  14.101  0.3030 -2.3633 -0.2584
19116TIP3   OH278838   3.586   6.418   5.501  0.4274  0.4240  0.1112
19116TIP3    H178839   3.617   6.500   5.540 -0.4804  0.1474  1.4495
19116TIP3    H278840   3.491   6.428   5.496  0.2005 -0.9783  1.3092
19117TIP3   OH278841   6.581   3.173   4.635  1.0972 -0.1355  0.2070
19117TIP3    H178842   6.510   3.138   4.689  2.3825 -2.8452  0.2207
19117TIP3    H278843   6.557   3.149   4.546  0.7627  1.1755 -0.0667
19118TIP3   OH278844   2.040   6.518   1.070  0.3362 -0.3149  0.1969
19118TIP3    H178845   1.991   6.449   1.114  1.9183 -0.8961  1.1110
19118TIP3    H278846   2.102   6.549   1.136  1.1389  0.4437 -0.8854
19119TIP3   OH278847   4.398   5.140  16.792 -0.0227  0.8920 -0.6162
19119TIP3    H178848   4.369   5.185  16.872  1.1057 -0.7410  0.7487
19119TIP3    H278849   4.486   5.175  16.777  0.9361 -0.9772  0.5608
19120TIP3   OH278850   5.331   5.283  11.299  0.3490  0.4826  0.6210
19120TIP3    H178851   5.394   5.240  11.241 -0.0446  1.1871 -0.3489
19120TIP3    H278852   5.273   5.332  11.240  0.7222  2.2554  1.6691
19121TIP3   OH278853   3.126   2.206   6.384 -0.2433  0.2877 -0.2304
19121TIP3    H178854   3.088   2.273   6.327 -0.6657 -0.3564 -0.7090
19121TIP3    H278855   3.074   2.128   6.368 -0.1352 -0.0029  0.7778
19122TIP3   OH278856   0.024   2.960   4.770 -0.1241  0.3272  0.0057
19122TIP3    H178857  -0.049   2.955   4.709 -1.0328 -1.0854  1.1834
19122TIP3    H278858   0.087   2.894   4.739 -0.0426  0.4495 -0.0919
19123TIP3   OH278859   3.015   1.454  13.151 -0.0879  0.3905 -0.0199
19123TIP3    H178860   3.032   1.428  13.241 -3.8180  0.3346  0.7671
19123TIP3    H278861   3.028   1.548  13.150  0.3452  0.3341  0.5055
19124TIP3   OH278862   5.167   0.806  15.314 -0.2977 -0.1617 -0.4412
19124TIP3    H178863   5.220   0.798  15.394 -0.4524  1.1484 -0.1911
19124TIP3    H278864   5.230   0.794  15.243  0.0998  0.0322 -0.1299
19125TIP3   OH278865   4.455   1.260  13.786 -0.2739 -0.6830 -0.3803
19125TIP3    H178866   4.509   1.267  13.865 -0.4464 -1.4543 -0.1910
19125TIP3    H278867   4.456   1.167  13.764 -3.3714 -1.0886  0.9554
19126TIP3   OH278868   4.107   1.196   4.155  0.5487 -0.2220 -0.1375
19126TIP3    H178869   4.089   1.230   4.242  2.7037 -0.7483  0.5185
19126TIP3    H278870   4.052   1.249   4.097 -1.4973 -0.3938  1.5921
19127TIP3   OH278871   3.775   4.566  14.095  0.4230 -0.0472  0.6458
19127TIP3    H178872   3.739   4.481  14.070  1.0176 -0.3725  0.8728
19127TIP3    H278873   3.864   4.565  14.062  0.2671  0.7044  0.1929
19128TIP3   OH278874   5.438   5.679  14.214 -0.0053 -0.0461 -0.0061
19128TIP3    H178875   5.453   5.774  14.209 -0.1123 -0.0129  0.2716
19128TIP3    H278876   5.475   5.654  14.299 -0.3482 -0.1847  0.1015
19129TIP3   OH278877   0.972   5.138  16.335 -0.0005 -0.1618  0.2118
19129TIP3    H178878   1.059   5.177  16.320  0.5147 -1.4247 -0.1373
19129TIP3    H278879   0.923   5.158  16.255 -0.2240  1.0323  0.6307
19130TIP3   OH278880   3.965   3.574  10.828 -0.2817 -0.1968  0.0532
19130TIP3    H178881   3.895   3.539  10.772  0.5241 -1.0860 -0.4215
19130TIP3    H278882   4.022   3.622  10.768  0.1391 -0.4573  0.2408
19131TIP3   OH278883   5.529   3.546  12.355 -0.0787  0.2264 -0.3918
19131TIP3    H178884   5.576   3.485  12.412 -2.2706 -1.4014 -0.2574
19131TIP3    H278885   5.592   3.569  12.287  1.3562 -0.7802  0.5641
19132TIP3   OH278886   0.395   4.872  16.494  0.6598  0.1107 -0.0596
19132TIP3    H178887   0.450   4.946  16.469  0.2486  0.9475  1.5160
19132TIP3    H278888   0.323   4.910  16.544 -0.2265 -1.2189 -0.2746
19133TIP3   OH278889   5.213   0.204  14.285 -0.2486  0.5581  0.3502
19133TIP3    H178890   5.146   0.272  14.275  0.0760  0.8257 -0.0483
19133TIP3    H278891   5.212   0.156  14.202  0.1738  0.6789  0.2705
19134TIP3   OH278892   0.644   1.744  12.780  0.5627  0.2296 -0.2704
19134TIP3    H178893   0.707   1.784  12.721  0.8519 -0.5886 -0.5218
19134TIP3    H278894   0.681   1.658  12.801 -0.0258  0.1067  0.2955
19135TIP3   OH278895   4.213   0.162   3.319  0.5085  0.0470  0.0543
19135TIP3    H178896   4.126   0.136   3.289  0.7566 -0.1232 -0.5236
19135TIP3    H278897   4.257   0.078   3.338 -0.0955  0.1680  2.2100
19136TIP3   OH278898   1.316   1.077   3.002  0.1782 -0.5275  0.3614
19136TIP3    H178899   1.344   1.023   2.929  2.2539 -0.3968  1.0136
19136TIP3    H278900   1.222   1.060   3.011  0.6775 -3.5749  0.1873
19137TIP3   OH278901   4.745   5.185   3.274 -0.0244 -0.2760  0.7840
19137TIP3    H178902   4.723   5.205   3.365 -0.8629 -0.6938  0.6787
19137TIP3    H278903   4.660   5.167   3.232  0.2738  0.6549 -0.2561
19138TIP3   OH278904   4.089   1.168  11.264 -0.1080  0.7682  0.0258
19138TIP3    H178905   4.068   1.137  11.175  0.0930 -0.5713  0.4334
19138TIP3    H278906   4.019   1.230  11.284  1.2285  3.0184 -2.0446
19139TIP3   OH278907   6.098   1.220  15.113  0.4307 -0.1358 -0.1050
19139TIP3    H178908   6.052   1.287  15.163 -0.3748  0.0366 -1.0745
19139TIP3    H278909   6.189   1.225  15.144 -0.0675 -0.0735  1.3792
19140TIP3   OH278910   3.008   0.297   4.214  0.0809 -0.3146 -0.0466
19140TIP3    H178911   2.990   0.231   4.147 -1.2328 -0.6955  0.6481
19140TIP3    H278912   3.029   0.376   4.165  0.1628 -0.8568 -0.9023
19141TIP3   OH278913   1.956   2.047   1.193 -0.1233 -0.6921 -0.0100
19141TIP3    H178914   2.000   2.076   1.114  1.2280 -1.8078  0.3182
19141TIP3    H278915   1.880   1.998   1.161 -0.2216 -0.1591 -0.6008
19142TIP3   OH278916   0.247   3.997  12.559 -0.2028  0.2299  0.2549
19142TIP3    H178917   0.302   4.054  12.614  0.8121 -0.0303 -0.4663
19142TIP3    H278918   0.173   3.973  12.615  0.2317  0.8938  1.1264
19143TIP3   OH278919   0.814   5.621  14.046  0.4085 -0.3237  0.1596
19143TIP3    H178920   0.883   5.685  14.027  0.3681 -0.4204 -0.3193
19143TIP3    H278921   0.783   5.594  13.960  0.0593 -0.5922  0.3728
19144TIP3   OH278922   2.351   4.231   0.328 -0.2672 -0.4715 -0.5709
19144TIP3    H178923   2.316   4.242   0.240 -0.4353 -2.6407 -0.7856
19144TIP3    H278924   2.273   4.232   0.385 -0.2469 -0.1368 -0.5489
19145TIP3   OH278925   2.208   1.556  14.382  0.0066  0.1088 -0.9193
19145TIP3    H178926   2.212   1.650  14.362 -0.7766  0.4464  0.4251
19145TIP3    H278927   2.297   1.525  14.367  0.2566  1.0585 -1.4491
19146TIP3   OH278928   4.502   4.421   3.135  0.1033 -0.1581 -0.4995
19146TIP3    H178929   4.505   4.477   3.213  0.9138 -0.3997 -0.3581
19146TIP3    H278930   4.515   4.333   3.169  2.4738 -0.0751 -1.1131
19147TIP3   OH278931   0.449   2.514  12.907  0.0801 -0.4462  0.6143
19147TIP3    H178932   0.524   2.555  12.951  0.6954 -0.5765 -0.2901
19147TIP3    H278933   0.486   2.439  12.860 -0.4467  0.0268 -0.5953
19148TIP3   OH278934   5.692   1.971   5.108 -0.3533 -0.1168  0.3934
19148TIP3    H178935   5.733   2.012   5.031  1.5400 -1.5940  0.5883
19148TIP3    H278936   5.598   1.987   5.096  0.0293  0.8766 -1.5142
19149TIP3   OH278937   0.946   1.250   1.131 -0.1665 -0.1959 -0.5934
19149TIP3    H178938   1.010   1.219   1.195  1.7950 -0.2250 -2.5445
19149TIP3    H278939   0.873   1.188   1.139 -0.3077  0.2633  2.1581
19150TIP3   OH278940   5.090   2.573  13.085  0.3591 -0.1755 -0.6294
19150TIP3    H178941   5.093   2.614  12.999 -0.3779  0.3658 -0.3944
19150TIP3    H278942   5.059   2.484  13.069  2.1439 -0.7315 -1.1612
19151TIP3   OH278943   1.293   3.285  11.198  0.4725  0.1255  0.2979
19151TIP3    H178944   1.205   3.314  11.223  0.4806  0.3855  0.0286
19151TIP3    H278945   1.300   3.307  11.105  1.2951  1.2937  0.6231
19152TIP3   OH278946   1.549   0.587  13.197  0.7027 -0.2115  0.0621
19152TIP3    H178947   1.539   0.641  13.275  1.1198 -1.7606  1.1958
19152TIP3    H278948   1.641   0.599  13.171  0.7423 -0.2245  0.1972
19153TIP3   OH278949   1.141   0.493   0.828 -0.2560 -0.1119  0.4673
19153TIP3    H178950   1.215   0.553   0.819  0.2570 -1.1251 -2.3719
19153TIP3    H278951   1.128   0.457   0.741 -1.1802 -3.3950  1.8867
19154TIP3   OH278952   1.927   5.599  15.784 -0.1729  0.7343 -0.2273
19154TIP3    H178953   1.903   5.670  15.844 -1.1859 -0.3122  0.6186
19154TIP3    H278954   2.005   5.560  15.821 -1.4832 -0.6932  1.1017
19155TIP3   OH278955   1.606   4.788  15.168 -0.3997 -0.4580  0.3576
19155TIP3    H178956   1.700   4.805  15.169 -0.3746 -0.5918  0.1995
19155TIP3    H278957   1.569   4.858  15.222 -0.3583  0.4997 -0.8339
19156TIP3   OH278958   2.394   5.711  10.537  0.2307  0.0794 -0.4704
19156TIP3    H178959   2.334   5.726  10.464  0.3082 -0.5217 -0.6604
19156TIP3    H278960   2.464   5.658  10.499 -0.8620 -2.1579  0.5639
19157TIP3   OH278961   3.945   5.395  15.570  0.1540 -0.2583  0.0813
19157TIP3    H178962   3.943   5.300  15.582  0.1306 -0.1703  0.7940
19157TIP3    H278963   3.860   5.425  15.600 -0.6480 -0.2223 -2.1150
19158TIP3   OH278964   6.015   5.672   4.015  0.1145 -0.9324 -0.1986
19158TIP3    H178965   6.047   5.738   3.954  0.7376 -2.1021 -1.1537
19158TIP3    H278966   6.061   5.690   4.097 -0.0608  0.0842 -0.3140
19159TIP3   OH278967   4.339   2.828   0.941  0.0279 -0.2618 -0.1258
19159TIP3    H178968   4.356   2.818   1.035 -0.3386 -0.4144 -0.0751
19159TIP3    H278969   4.360   2.742   0.905 -1.5747 -0.7514  0.0778
19160TIP3   OH278970   3.227   3.762   4.098 -0.2300 -0.1874 -0.1450
19160TIP3    H178971   3.215   3.733   4.007  0.6823  0.7862 -0.5825
19160TIP3    H278972   3.310   3.810   4.097 -1.1507  1.4516  0.8122
19161TIP3   OH278973   0.762   0.937  13.565 -0.1781 -0.8485 -0.3124
19161TIP3    H178974   0.797   0.877  13.630  2.6959  0.4221 -0.6265
19161TIP3    H278975   0.692   0.984  13.610  0.6192 -1.2187  1.3314
19162TIP3   OH278976   3.979   5.331  17.047 -0.1650 -0.0508  0.1906
19162TIP3    H178977   3.955   5.263  16.984 -0.1884  0.2283 -0.1012
19162TIP3    H278978   3.920   5.403  17.028  0.0347  0.1483  0.3323
19163TIP3   OH278979   0.873   5.131   0.249  0.7859  0.2296 -0.8002
19163TIP3    H178980   0.921   5.071   0.306  0.0108 -0.3918 -0.7962
19163TIP3    H278981   0.917   5.124   0.164  0.3357 -0.7977 -0.9618
19164TIP3   OH278982   4.011   3.971  14.656  0.1342  0.1011 -0.1225
19164TIP3    H178983   4.104   3.969  14.634  0.2890 -1.9678  0.5963
19164TIP3    H278984   3.975   3.891  14.618 -0.7834 -0.5244  1.9837
19165TIP3   OH278985   1.485   1.914   6.216  0.0555  0.0468  0.7347
19165TIP3    H178986   1.573   1.945   6.241 -0.3134  1.5121  0.2562
19165TIP3    H278987   1.468   1.841   6.275  1.7933 -0.5520  0.5372
19166TIP3   OH278988   3.915   6.725   6.349  0.2235 -0.1558  0.3684
19166TIP3    H178989   3.819   6.728   6.354  0.0905 -2.1700 -0.2993
19166TIP3    H278990   3.945   6.775   6.425 -1.3641 -0.1956  1.0450
19167TIP3   OH278991   1.304   6.495   5.234 -0.4502 -0.2170  0.9491
19167TIP3    H178992   1.390   6.537   5.224 -0.7317  0.0027 -0.6813
19167TIP3    H278993   1.323   6.407   5.264  0.4031 -0.4684 -0.3084
19168TIP3   OH278994   4.143   4.543   0.720  0.1487 -0.4211  0.2025
19168TIP3    H178995   4.168   4.489   0.795 -1.5875 -1.2635  0.2005
19168TIP3    H278996   4.072   4.598   0.752 -0.8224 -1.0008 -0.8860
19169TIP3   OH278997   2.007   4.866  12.705 -0.5182 -0.0195  0.4935
19169TIP3    H178998   1.945   4.794  12.716  0.6610 -1.3661 -1.3055
19169TIP3    H278999   2.070   4.855  12.776 -0.7833 -0.3213  0.6826
19170TIP3   OH279000   6.179   2.779  15.286 -0.1780 -0.0076  0.2584
19170TIP3    H179001   6.216   2.788  15.198 -1.2572 -2.5451 -0.5151
19170TIP3    H279002   6.151   2.867  15.310 -0.9037  0.5430 -2.4165
19171TIP3   OH279003   5.461   2.500   2.483  0.2481 -0.1676 -0.1269
19171TIP3    H179004   5.517   2.574   2.505 -0.0997  0.0905 -0.1066
19171TIP3    H279005   5.434   2.517   2.393 -1.5769  0.8433  0.5941
19172TIP3   OH279006   6.090   2.630   6.700 -0.4086  0.1406 -0.0412
19172TIP3    H179007   6.109   2.564   6.766  0.0174  0.6501  0.3490
19172TIP3    H279008   5.995   2.643   6.705 -0.4960 -0.4542 -0.1340
19173TIP3   OH279009   5.670   5.388   2.299 -0.0569  0.3379  0.1486
19173TIP3    H179010   5.679   5.477   2.335  1.8528  0.1079  0.2767
19173TIP3    H279011   5.678   5.331   2.375 -5.0066  0.0846  0.6820
19174TIP3   OH279012   5.197   1.422  15.697  0.5606  0.3984 -0.2002
19174TIP3    H179013   5.283   1.453  15.727  1.7453 -1.0850 -1.9189
19174TIP3    H279014   5.213   1.332  15.668 -1.2032  0.6435 -2.0476
19175TIP3   OH279015   3.585   0.087   2.735  0.0623  0.2890  0.3385
19175TIP3    H179016   3.639   0.101   2.813  0.8801  2.9301 -0.6336
19175TIP3    H279017   3.622   0.148   2.670 -1.8702 -0.4226 -1.4597
19176TIP3   OH279018   3.030   0.996   2.482 -0.5368 -0.1440 -0.2147
19176TIP3    H179019   3.024   1.091   2.471  0.8798 -0.2776 -2.4097
19176TIP3    H279020   3.061   0.983   2.571  0.7385  1.5142 -0.4119
19177TIP3   OH279021   6.589   0.691   1.720  0.3864 -0.1330  0.1707
19177TIP3    H179022   6.625   0.778   1.737 -0.5910  0.5016 -0.9405
19177TIP3    H279023   6.496   0.698   1.742  0.7231 -1.5145  2.1774
19178TIP3   OH279024   4.555   6.015  16.599 -1.0072  0.0432 -0.5029
19178TIP3    H179025   4.478   6.028  16.543 -0.7194  0.4707 -0.8024
19178TIP3    H279026   4.534   6.063  16.679 -0.4875  1.3150 -1.1122
19179TIP3   OH279027   4.463   2.575  14.611  0.2107  0.3683 -0.1042
19179TIP3    H179028   4.420   2.526  14.541 -1.1468  0.9314  0.3004
19179TIP3    H279029   4.463   2.516  14.686  2.4490 -0.5477 -0.8145
19180TIP3   OH279030   6.528   6.586   1.170 -0.3542  0.0995 -0.0691
19180TIP3    H179031   6.616   6.559   1.141 -1.0277 -0.5917 -1.5144
19180TIP3    H279032   6.490   6.506   1.206 -0.5329  0.3167  0.2216
19181TIP3   OH279033   4.922   0.530   6.674  0.7061  0.2621  0.3409
19181TIP3    H179034   4.931   0.520   6.579  0.1019 -0.3275  0.3441
19181TIP3    H279035   4.899   0.622   6.686 -1.6463 -0.2195 -0.2650
19182TIP3   OH279036   6.580   5.152   5.195 -0.3003 -0.0473  0.0187
19182TIP3    H179037   6.663   5.156   5.146 -0.2997 -3.2974 -0.3713
19182TIP3    H279038   6.598   5.198   5.276  1.1163  1.4928 -1.1352
19183TIP3   OH279039   6.550   6.613   3.381 -0.4012 -0.0335 -0.9665
19183TIP3    H179040   6.544   6.571   3.467 -2.0375  1.3494 -0.3957
19183TIP3    H279041   6.643   6.607   3.358  0.0403 -0.4392  0.8776
19184TIP3   OH279042   4.613   6.132  12.794 -0.5442 -0.7727  0.2367
19184TIP3    H179043   4.688   6.170  12.749 -0.5904 -1.4803 -0.4509
19184TIP3    H279044   4.579   6.203  12.849  2.3957 -1.2696  2.8274
19185TIP3   OH279045   2.933   1.510   2.179 -0.1863 -0.0766  0.0460
19185TIP3    H179046   3.015   1.476   2.143 -0.3459 -0.8451  0.3903
19185TIP3    H279047   2.865   1.464   2.130 -0.4120  0.5230 -0.2034
19186TIP3   OH279048   6.716   5.695  12.391 -0.1675  0.2009  0.2051
19186TIP3    H179049   6.737   5.709  12.484  2.0970 -1.4762 -0.0098
19186TIP3    H279050   6.780   5.749  12.344 -1.3128  1.0538 -0.3974
19187TIP3   OH279051   1.522   4.968   4.957 -0.3163 -0.2672  0.3724
19187TIP3    H179052   1.561   4.889   4.919  1.5875  0.6752  0.3101
19187TIP3    H279053   1.428   4.949   4.961  0.0407 -2.2694 -0.2573
19188TIP3   OH279054   6.211   6.456   4.110 -0.4608 -0.2478  0.4122
19188TIP3    H179055   6.208   6.361   4.120 -2.2343 -0.1391  1.0625
19188TIP3    H279056   6.237   6.469   4.019 -1.9026 -1.3890 -0.1886
19189TIP3   OH279057   6.678   0.068   0.454  0.0091  0.3362  0.0704
19189TIP3    H179058   6.631   0.151   0.457  0.7000  0.7063  0.6772
19189TIP3    H279059   6.756   0.085   0.401 -0.9952 -0.5251 -1.7501
19190TIP3   OH279060   6.153   3.072   3.343  0.2010 -0.7383  0.1919
19190TIP3    H179061   6.152   3.167   3.331  0.4497 -0.8049 -0.3977
19190TIP3    H279062   6.201   3.039   3.267  2.0392 -1.1834  1.5274
19191TIP3   OH279063   0.532   1.903   3.851 -0.7713 -0.6432  0.1291
19191TIP3    H179064   0.445   1.922   3.817 -0.9249 -0.3045  0.7020
19191TIP3    H279065   0.517   1.862   3.936 -0.3749 -0.5363  0.2563
19192TIP3   OH279066   5.806   3.011  10.559 -0.6389 -0.0951  0.1346
19192TIP3    H179067   5.896   3.028  10.589  0.0724 -0.5688 -1.6805
19192TIP3    H279068   5.812   2.927  10.512 -1.6286  0.8249 -1.6832
19193TIP3   OH279069   4.820   1.598  13.501 -0.7196  0.2702  0.3122
19193TIP3    H179070   4.749   1.661  13.489 -0.2294  0.8091  0.2564
19193TIP3    H279071   4.791   1.543  13.574 -0.9071  0.8894  0.7030
19194TIP3   OH279072   2.863   1.013   2.762 -0.4834 -0.6489  0.5846
19194TIP3    H179073   2.904   0.927   2.765 -0.5377 -0.6231  3.0896
19194TIP3    H279074   2.927   1.072   2.802 -0.9347  0.2695 -0.0229
19195TIP3   OH279075   5.565   0.945   3.427  0.5331  0.0330 -0.3920
19195TIP3    H179076   5.640   0.909   3.379 -0.0741 -1.3785 -0.3335
19195TIP3    H279077   5.502   0.872   3.430 -0.0778  0.6066  1.1818
19196TIP3   OH279078   6.752   2.778  16.406 -0.1150 -0.5142  0.2801
19196TIP3    H179079   6.663   2.807  16.390 -0.2727 -0.6346  0.9419
19196TIP3    H279080   6.744   2.708  16.471  0.4471 -0.6110  0.2493
19197TIP3   OH279081   3.090   3.861   1.210 -0.2179  0.1118 -0.0999
19197TIP3    H179082   3.018   3.823   1.260  0.6703 -0.2848  0.8930
19197TIP3    H279083   3.099   3.949   1.244  1.0700 -0.5047  1.1854
19198TIP3   OH279084   3.220   2.151   5.209 -0.2601  0.2416 -0.1674
19198TIP3    H179085   3.174   2.091   5.266 -0.9793 -0.1429 -1.1371
19198TIP3    H279086   3.295   2.101   5.176 -1.4241 -0.4662 -1.7698
19199TIP3   OH279087   4.796   2.967   0.220 -0.0158  0.3354 -0.5646
19199TIP3    H179088   4.721   2.991   0.274  0.7408 -1.4350  1.3334
19199TIP3    H279089   4.794   3.030   0.147 -1.1480  2.6710  1.4155
19200TIP3   OH279090   6.689   2.654  16.828  0.1283  0.4627 -0.1008
19200TIP3    H179091   6.633   2.692  16.760 -0.3620  0.0902  0.0959
19200TIP3    H279092   6.629   2.606  16.885  0.6602 -0.0480  0.0359
19201TIP3   OH279093   5.273   2.422  16.353 -0.2853  0.5092  0.2232
19201TIP3    H179094   5.367   2.405  16.353 -0.2795  0.5337 -0.4422
19201TIP3    H279095   5.253   2.445  16.262 -0.6755  1.8837  0.6432
19202TIP3   OH279096   4.066   1.073  14.554  0.1878  0.0223 -0.1041
19202TIP3    H179097   4.007   1.107  14.486  0.1809 -0.4143 -0.3182
19202TIP3    H279098   4.063   1.138  14.624  1.2154  1.1425 -1.0814
19203TIP3   OH279099   4.082   0.071   4.152 -0.2838 -0.7966 -0.1015
19203TIP3    H179100   4.135   0.016   4.212 -1.9032  1.0593  3.1832
19203TIP3    H279101   4.145   0.133   4.116  0.6324 -1.5600  0.1450
19204TIP3   OH279102   1.779   0.676   2.012 -0.3323 -0.3556  0.6895
19204TIP3    H179103   1.857   0.651   1.962  0.1218 -2.3462  2.3567
19204TIP3    H279104   1.722   0.718   1.947  1.6600  0.1572 -0.7716
19205TIP3   OH279105   1.506   4.212   3.189 -0.0359 -0.4823  0.6038
19205TIP3    H179106   1.478   4.145   3.250 -0.2727 -0.6936  0.2640
19205TIP3    H279107   1.545   4.164   3.116 -0.5325 -0.2648  0.1937
19206TIP3   OH279108   3.159   4.747   3.038  0.2815  0.3298 -0.7874
19206TIP3    H179109   3.247   4.718   3.062 -0.9478 -0.9183  2.4800
19206TIP3    H279110   3.171   4.837   3.006  3.0234 -0.6878 -2.7674
19207TIP3   OH279111   4.766   1.652   3.275  0.1396 -0.0942 -0.0812
19207TIP3    H179112   4.674   1.667   3.253  0.2438  1.5931  0.5472
19207TIP3    H279113   4.777   1.557   3.273 -1.3904 -0.2545 -1.0717
19208TIP3   OH279114   4.315   4.486  12.107  0.5316  0.3899  0.2954
19208TIP3    H179115   4.236   4.436  12.126  0.7991  0.0092  0.4289
19208TIP3    H279116   4.289   4.578  12.117 -0.8800  0.4890 -3.4402
19209TIP3   OH279117   0.545   5.325  17.292 -0.1518 -0.1709  0.4761
19209TIP3    H179118   0.575   5.401  17.341 -0.8061 -0.3017  1.0972
19209TIP3    H279119   0.597   5.325  17.212  0.3624  0.5078  0.8098
19210TIP3   OH279120   0.060   3.808   2.260  0.0419  0.3234 -0.0862
19210TIP3    H179121   0.115   3.819   2.337 -0.1624  1.5576 -0.1119
19210TIP3    H279122   0.021   3.721   2.270  0.9867 -0.0259  0.5707
19211TIP3   OH279123   1.058   4.314  16.164  0.5228 -0.0561  0.3032
19211TIP3    H179124   1.144   4.357  16.161 -0.6803  2.4763  0.5062
19211TIP3    H279125   0.996   4.385  16.148 -1.5669 -1.7603  0.6880
19212TIP3   OH279126   6.450   1.401   6.236 -0.1687 -0.4727 -0.2329
19212TIP3    H179127   6.390   1.342   6.282  0.3312 -0.0826  0.9507
19212TIP3    H279128   6.529   1.401   6.291  0.3493  0.1936 -0.9786
19213TIP3   OH279129   5.063   3.900   2.842  0.0429  0.8530  0.3142
19213TIP3    H179130   5.104   3.986   2.854  0.1780  0.9812 -0.9617
19213TIP3    H279131   5.067   3.885   2.747  2.0192 -1.5369  0.7309
19214TIP3   OH279132   3.885   1.171  15.513 -0.4230  0.6510 -0.5414
19214TIP3    H179133   3.938   1.121  15.574 -0.5787  0.5962 -0.4523
19214TIP3    H279134   3.894   1.262  15.542 -0.7863  0.5858 -0.2182
19215TIP3   OH279135   3.235   5.795   0.754 -0.9504  0.5390 -0.0523
19215TIP3    H179136   3.212   5.787   0.661  1.5879  0.3268 -0.6936
19215TIP3    H279137   3.306   5.860   0.755  0.7644 -1.3081  1.4375
19216TIP3   OH279138   4.598   0.896  12.208  0.2104  0.0997  0.3021
19216TIP3    H179139   4.678   0.936  12.175  0.8697 -1.9938 -0.7198
19216TIP3    H279140   4.543   0.883  12.131 -1.1091  1.4869  0.9931
19217TIP3   OH279141   1.656   5.253  11.580 -0.0719 -0.5667 -0.0146
19217TIP3    H179142   1.730   5.308  11.606 -0.9737  0.5977  0.1547
19217TIP3    H279143   1.673   5.168  11.621  1.8702 -0.7487 -1.1338
19218TIP3   OH279144   2.028   4.226   1.874 -0.2081 -0.7373  0.1720
19218TIP3    H179145   2.096   4.260   1.815  1.3579  0.3091  2.5125
19218TIP3    H279146   1.951   4.280   1.855  1.3047  1.9994  1.5015
19219TIP3   OH279147   4.603   5.525   3.487  0.4819 -0.5233 -0.0334
19219TIP3    H179148   4.651   5.442   3.489  1.6199  0.1074 -0.9785
19219TIP3    H279149   4.601   5.553   3.578  0.9190 -1.1148  0.1659
19220TIP3   OH279150   0.195   1.267   5.533  0.4440  0.0309 -0.1946
19220TIP3    H179151   0.259   1.319   5.485  0.3220  0.6331  0.2785
19220TIP3    H279152   0.219   1.279   5.625  1.3758 -2.0275 -0.1565
19221TIP3   OH279153   0.936   6.282  10.436 -0.5177 -0.1025 -0.5629
19221TIP3    H179154   0.998   6.216  10.407 -1.4197 -1.3477  0.2679
19221TIP3    H279155   0.987   6.362  10.442  0.3877 -0.5167 -2.4513
19222TIP3   OH279156   0.532   0.113   6.139 -0.4320  0.2372 -0.5619
19222TIP3    H179157   0.441   0.107   6.167 -0.0428 -0.5197  0.5892
19222TIP3    H279158   0.578   0.150   6.214  0.0056  1.8831 -1.6126
19223TIP3   OH279159   3.274   0.985  14.955 -0.4487 -0.5057  0.0524
19223TIP3    H179160   3.356   1.026  14.982 -0.4484  1.2102 -2.3994
19223TIP3    H279161   3.301   0.921  14.888 -0.9118 -1.4164  0.7227
19224TIP3   OH279162   3.418   5.083   0.074  0.0663 -0.1396  0.4580
19224TIP3    H179163   3.413   5.010   0.135  0.6607 -0.3684  0.2422
19224TIP3    H279164   3.503   5.071   0.030 -0.4719 -0.1295 -0.5990
19225TIP3   OH279165   6.791   5.412   4.224 -0.4893  0.2840 -0.0800
19225TIP3    H179166   6.725   5.461   4.273 -1.3298  0.1439 -1.0660
19225TIP3    H279167   6.874   5.449   4.253 -0.9895  0.4531  1.1782
19226TIP3   OH279168   5.926   1.883   2.659 -0.3872 -0.2543  0.6002
19226TIP3    H179169   5.993   1.827   2.699 -1.0519 -0.6402  1.1808
19226TIP3    H279170   5.900   1.942   2.729  2.1052  2.5069 -0.6632
19227TIP3   OH279171   5.453   2.827  11.002  1.1203 -0.3419 -0.7193
19227TIP3    H179172   5.386   2.823  10.934  2.1785 -2.6289 -1.6798
19227TIP3    H279173   5.516   2.759  10.977  2.5680  0.1654  1.4521
19228TIP3   OH279174   4.382   5.140   2.125  0.1835 -0.5394  0.0083
19228TIP3    H179175   4.315   5.196   2.166 -2.5884 -1.1372 -3.4683
19228TIP3    H279176   4.435   5.200   2.073  0.0717 -0.5175 -0.0820
19229TIP3   OH279177   3.424   4.932  12.483 -0.2817 -0.3032 -0.3403
19229TIP3    H179178   3.479   4.907  12.557 -0.9507  0.7438  0.5288
19229TIP3    H279179   3.334   4.924  12.515 -0.6427 -1.5236 -1.5931
19230TIP3   OH279180   2.502   3.046   3.108  0.7158 -0.0804 -0.3107
19230TIP3    H179181   2.587   3.009   3.132  0.4107 -0.4634  0.1800
19230TIP3    H279182   2.459   2.978   3.057  1.1356  0.5211 -1.4870
19231TIP3   OH279183   1.553   2.437  13.872 -0.3335 -0.1631 -0.4317
19231TIP3    H179184   1.498   2.505  13.832 -0.0014 -0.7600 -1.9350
19231TIP3    H279185   1.495   2.361  13.879  0.4529 -0.9922 -2.6134
19232TIP3   OH279186   2.300   4.259  17.114  0.9360 -0.4195 -0.3641
19232TIP3    H179187   2.232   4.296  17.058 -0.1742 -2.2785 -0.2944
19232TIP3    H279188   2.351   4.202  17.057 -0.2008 -2.3250  0.4574
19233TIP3   OH279189   0.036   3.255   0.582  0.1306 -0.3347 -0.1162
19233TIP3    H179190  -0.023   3.187   0.614  2.1130 -2.2915 -0.5545
19233TIP3    H279191   0.060   3.305   0.661  1.9306 -2.7435  0.9212
19234TIP3   OH279192   6.350   4.338  15.730 -0.0232  0.5130  0.0741
19234TIP3    H179193   6.299   4.325  15.650  0.6958 -2.7879  0.0631
19234TIP3    H279194   6.297   4.397  15.783 -2.3833 -0.3833 -1.2076
19235TIP3   OH279195   3.993   1.065   1.218 -0.0858 -0.8600 -0.0424
19235TIP3    H179196   4.018   0.976   1.193 -1.5292 -0.7287 -2.0905
19235TIP3    H279197   3.903   1.057   1.248 -0.7917  0.1243 -1.7895
19236TIP3   OH279198   0.394   4.958  14.349 -0.0981 -0.4946  0.3533
19236TIP3    H179199   0.303   4.959  14.380  0.1063  1.2148  0.9763
19236TIP3    H279200   0.445   4.926  14.422 -0.0849 -0.3831  0.3948
19237TIP3   OH279201   6.176   4.758   2.549 -0.0082  0.7520 -0.2801
19237TIP3    H179202   6.168   4.791   2.460 -0.2446  1.7897  0.1164
19237TIP3    H279203   6.241   4.816   2.590 -0.3414  0.6554  0.3856
19238TIP3   OH279204   6.534   6.614  11.787  0.1154  0.1633  0.4085
19238TIP3    H179205   6.580   6.641  11.708  0.4722  1.7673  1.1354
19238TIP3    H279206   6.603   6.605  11.853 -0.0973 -1.7933  0.3969
19239TIP3   OH279207   2.786   5.530  11.810 -0.1192  0.2949 -0.4316
19239TIP3    H179208   2.845   5.522  11.885  1.1110  0.4125 -1.3766
19239TIP3    H279209   2.841   5.567  11.740 -0.9771 -0.8324 -1.7147
19240TIP3   OH279210   1.839   4.815  16.530  0.0477 -0.2921  0.2782
19240TIP3    H179211   1.812   4.809  16.621 -0.7568  1.4208  0.1586
19240TIP3    H279212   1.810   4.732  16.491 -1.5570 -0.0959  1.0530
19241TIP3   OH279213   1.759   5.505  16.140 -0.1009 -0.2347  0.1220
19241TIP3    H179214   1.813   5.545  16.208 -0.1759 -0.0268  0.0618
19241TIP3    H279215   1.679   5.557  16.140 -0.3025 -0.5448  0.2151
19242TIP3   OH279216   0.280   1.819   2.180 -0.4326 -0.1897 -0.4008
19242TIP3    H179217   0.264   1.872   2.101 -3.5467 -0.2633  0.1192
19242TIP3    H279218   0.341   1.751   2.151  0.7113  1.4535 -2.0050
19243TIP3   OH279219   5.935   0.957   2.147 -0.2083  0.4024  0.3609
19243TIP3    H179220   5.892   0.875   2.173 -0.2163  0.6739  1.2323
19243TIP3    H279221   5.916   0.965   2.054 -0.3539 -0.5022  0.3021
19244TIP3   OH279222   6.491   3.529  12.224  0.0265 -0.0573  0.2711
19244TIP3    H179223   6.515   3.443  12.258  1.1194  0.1333  0.0125
19244TIP3    H279224   6.574   3.565  12.190 -0.5152  0.8865 -0.0620
19245TIP3   OH279225   3.032   5.039  12.946  0.1178 -0.0922 -0.0852
19245TIP3    H179226   2.967   5.109  12.941  0.1835  0.0426  0.8175
19245TIP3    H279227   3.106   5.078  12.994 -0.1262 -0.9796  1.0463
19246TIP3   OH279228   3.477   4.763   1.233  0.2904  0.3116 -0.0179
19246TIP3    H179229   3.549   4.799   1.181 -0.8328  0.9954 -1.1230
19246TIP3    H279230   3.401   4.769   1.175 -1.0202  1.2827  1.7781
19247TIP3   OH279231   1.536   1.088  16.993  0.2746 -0.4313  0.2165
19247TIP3    H179232   1.558   1.117  16.905 -0.9543  0.7601  0.2824
19247TIP3    H279233   1.582   1.149  17.051 -0.4568 -0.0278  0.3785
19248TIP3   OH279234   1.919   1.659  12.662  0.8242  0.2564 -0.1975
19248TIP3    H179235   1.929   1.716  12.586 -0.0325  1.4766  0.5789
19248TIP3    H279236   1.825   1.660  12.680  1.2605  1.9142  2.2976
19249TIP3   OH279237   1.839   1.364   0.685  0.3391 -0.1573  0.0553
19249TIP3    H179238   1.771   1.415   0.640 -0.3102 -0.8502  0.2436
19249TIP3    H279239   1.867   1.299   0.621 -1.2727 -1.7694  0.9564
19250TIP3   OH279240   1.880   2.399  15.867  0.2402  1.0629  0.0925
19250TIP3    H179241   1.791   2.403  15.833  0.5644 -0.2656 -0.9128
19250TIP3    H279242   1.936   2.407  15.790  0.9822 -0.0765  0.5013
19251TIP3   OH279243   1.622   4.733   2.937  0.2196 -0.1458  0.2036
19251TIP3    H179244   1.645   4.799   3.002  2.8912  0.6266 -1.4140
19251TIP3    H279245   1.605   4.654   2.987 -0.1367  1.0275  1.9724
19252TIP3   OH279246   4.316   0.596  16.826 -0.5600  0.6195  0.9817
19252TIP3    H179247   4.302   0.652  16.750 -0.3026  0.4542  0.8096
19252TIP3    H279248   4.241   0.612  16.883 -1.5814 -0.4534 -0.0387
19253TIP3   OH279249   1.191   5.869  11.338 -0.5708  0.2095 -0.1002
19253TIP3    H179250   1.246   5.793  11.318 -1.3267 -0.3483 -0.0996
19253TIP3    H279251   1.213   5.891  11.429 -2.7424 -2.1108  1.0662
19254TIP3   OH279252   3.064   2.733   2.502  0.4586  0.0118  0.0748
19254TIP3    H179253   3.104   2.673   2.440  0.5359  0.6532 -0.5039
19254TIP3    H279254   2.990   2.771   2.455 -1.4150 -1.8646  1.4560
19255TIP3   OH279255   0.906   5.331  10.417  0.3915 -0.4867 -0.1275
19255TIP3    H179256   0.966   5.263  10.387 -0.4648  0.0672 -3.3149
19255TIP3    H279257   0.819   5.291  10.411  0.0328  0.3180 -0.3406
19256TIP3   OH279258   5.236   2.876  15.558 -0.3570  0.2789  0.1096
19256TIP3    H179259   5.143   2.892  15.569 -0.4365  1.1493 -1.5350
19256TIP3    H279260   5.266   2.948  15.502  0.7255 -1.4882 -1.6866
19257TIP3   OH279261   3.396   2.622   2.444 -0.2435  0.1387  0.3594
19257TIP3    H179262   3.418   2.595   2.355 -1.2689 -0.9721  0.4237
19257TIP3    H279263   3.427   2.550   2.499  0.5937  0.9269  0.9245
19258TIP3   OH279264   3.089   1.706  12.053  0.5122  0.5294 -0.6882
19258TIP3    H179265   3.124   1.761  12.122  0.4889  0.5040 -0.6570
19258TIP3    H279266   2.996   1.728  12.048  0.5970  0.8207 -0.9850
19259TIP3   OH279267   6.686   6.789   5.537  0.0340  0.0515  0.3522
19259TIP3    H179268   6.673   6.703   5.496  0.2946  0.1705  0.0257
19259TIP3    H279269   6.696   6.769   5.630  0.0539 -0.2710  0.2806
19260TIP3   OH279270   2.092   6.316   0.679  0.4519  0.2872 -0.3300
19260TIP3    H179271   2.016   6.305   0.736  0.8038  1.1215  0.3048
19260TIP3    H279272   2.142   6.387   0.719  1.1209  0.3276 -1.2281
19261TIP3   OH279273   6.780   1.774   6.737  0.9899  0.1232  0.4341
19261TIP3    H179274   6.765   1.838   6.806  0.1838  1.7503 -1.2203
19261TIP3    H279275   6.875   1.772   6.725  1.0286  0.8235  0.6531
19262TIP3   OH279276   2.908   2.283  12.381 -0.2029  0.7582  0.3653
19262TIP3    H179277   2.986   2.227  12.378  0.9489  2.3599 -1.7555
19262TIP3    H279278   2.910   2.329  12.297 -1.0774  4.0042  2.0623
19263TIP3   OH279279   1.927   6.136  12.960 -0.1923 -0.3259  0.1220
19263TIP3    H179280   2.018   6.164  12.970 -0.4250 -0.1809  1.9976
19263TIP3    H279281   1.931   6.040  12.964 -0.1138 -0.3207  0.1641
19264TIP3   OH279282   5.861   5.076  12.774 -0.1897  0.3726 -0.6489
19264TIP3    H179283   5.816   5.078  12.859  2.0163 -0.7772  0.5859
19264TIP3    H279284   5.869   4.983  12.754  1.2715  0.5828 -1.0530
19265TIP3   OH279285   5.825   4.568   1.087 -0.1286 -0.0625 -0.0874
19265TIP3    H179286   5.773   4.645   1.110  0.2903  0.2078 -0.0391
19265TIP3    H279287   5.794   4.542   1.000 -0.1042  0.3032 -0.2043
19266TIP3   OH279288   4.872   5.728  16.972 -0.2177  0.0793 -0.0098
19266TIP3    H179289   4.856   5.654  16.913  1.3744 -0.4761  0.2136
19266TIP3    H279290   4.828   5.802  16.930 -2.0637 -1.0480 -0.0907
19267TIP3   OH279291   2.853   4.986  16.222 -0.1257  0.5756  0.9021
19267TIP3    H179292   2.887   4.940  16.145  2.1525  1.1398  1.5588
19267TIP3    H279293   2.814   5.066  16.187 -0.8496 -0.0912  0.1470
19268TIP3   OH279294   1.351   2.596   3.382  0.5873 -0.1935 -0.4258
19268TIP3    H179295   1.276   2.618   3.436  1.0186  0.9672 -0.2799
19268TIP3    H279296   1.388   2.518   3.423  1.4186  1.1673  1.4898
19269TIP3   OH279297   1.873   6.013  14.706 -0.7131  0.5996 -0.1515
19269TIP3    H179298   1.805   6.013  14.639 -0.9069 -0.6345  0.0243
19269TIP3    H279299   1.843   5.949  14.770  1.4182 -1.2148 -0.9028
19270TIP3   OH279300   3.648   1.620  14.943  0.3371  0.2759  0.6686
19270TIP3    H179301   3.637   1.628  14.848  1.9299 -1.0008  0.3523
19270TIP3    H279302   3.580   1.676  14.980 -0.5236  0.5099 -1.2218
19271TIP3   OH279303   1.694   6.577   5.409 -0.1270 -0.3346  0.2428
19271TIP3    H179304   1.748   6.525   5.350  0.6597 -1.0469  1.5626
19271TIP3    H279305   1.679   6.659   5.362  0.4469 -0.8992 -0.9535
19272TIP3   OH279306   2.014   1.805  15.429 -0.3990  0.1821  0.0030
19272TIP3    H179307   1.954   1.868  15.387  0.5791  0.9040 -0.3386
19272TIP3    H279308   1.986   1.720  15.397 -1.6407  0.4547  0.3354
19273TIP3   OH279309   3.692   5.763   1.179 -0.1652  0.0493  0.2131
19273TIP3    H179310   3.684   5.856   1.201  0.0119  0.4117 -1.1721
19273TIP3    H279311   3.602   5.734   1.166 -0.2744 -0.1951  1.5151
19274TIP3   OH279312   2.453   1.071   0.842  0.3812  0.1717  0.1727
19274TIP3    H179313   2.411   0.995   0.882  1.5146 -1.1109 -0.9867
19274TIP3    H279314   2.544   1.067   0.873  0.6643  0.5416 -0.5948
19275TIP3   OH279315   4.623   0.944  14.090 -0.5110 -0.2349 -0.1266
19275TIP3    H179316   4.561   0.990  14.146 -1.1107 -0.0779 -0.9111
19275TIP3    H279317   4.622   0.854  14.121  0.9604  0.3354  1.6836
19276TIP3   OH279318   3.894   3.244  17.282  0.3561 -0.6529 -0.3625
19276TIP3    H179319   3.816   3.233  17.228  1.0462  1.2128 -1.7689
19276TIP3    H279320   3.860   3.255  17.371 -1.2622  3.5357 -1.3909
19277TIP3   OH279321   5.537   2.700   4.585 -0.7077  0.2652 -0.2076
19277TIP3    H179322   5.512   2.645   4.660  1.3540  0.4971  0.6921
19277TIP3    H279323   5.471   2.769   4.582 -0.4628  0.6136  1.8143
19278TIP3   OH279324   6.709   0.546   2.576 -0.1583 -0.4041 -0.4657
19278TIP3    H179325   6.740   0.455   2.577 -0.9243 -0.6869 -1.1660
19278TIP3    H279326   6.671   0.559   2.663  0.8267 -0.4400 -0.0263
19279TIP3   OH279327   0.061   6.806  12.545  0.0160  0.2037  0.1096
19279TIP3    H179328   0.084   6.754  12.468  0.5657  1.1758 -0.4018
19279TIP3    H279329  -0.029   6.833  12.529  0.0245  0.1397 -0.0517
19280TIP3   OH279330   6.046   2.234   3.452  1.0183 -0.2597  0.1151
19280TIP3    H179331   6.003   2.149   3.441  0.5938 -0.0587  0.1786
19280TIP3    H279332   6.036   2.277   3.367  0.5426  0.0347  0.3190
19281TIP3   OH279333   1.508   0.068   6.187  0.1280  0.6337  0.4020
19281TIP3    H179334   1.589   0.102   6.226 -0.5828  0.2839  2.2289
19281TIP3    H279335   1.450   0.054   6.261 -0.8435 -1.2154 -0.6643
19282TIP3   OH279336   4.819   1.940  12.074 -0.4807 -0.0533 -0.0822
19282TIP3    H179337   4.786   1.998  12.006 -0.4512  0.1565  0.0832
19282TIP3    H279338   4.911   1.965  12.085 -1.0113  1.2863  1.4666
19283TIP3   OH279339   0.361   6.384   5.209  0.6411  0.9359  0.0607
19283TIP3    H179340   0.383   6.293   5.229 -0.5369  0.9857  1.7432
19283TIP3    H279341   0.369   6.429   5.294 -1.2244  1.8797 -0.2388
19284TIP3   OH279342   1.850   1.484   1.237 -0.6277  0.0479  0.5543
19284TIP3    H179343   1.862   1.492   1.332 -0.9950 -0.0112  0.6052
19284TIP3    H279344   1.755   1.492   1.224 -0.7884 -1.8818  0.3722
19285TIP3   OH279345   5.894   6.325  12.977  0.4186 -0.2515 -0.2020
19285TIP3    H179346   5.898   6.319  12.882 -0.1051 -1.2121 -0.1742
19285TIP3    H279347   5.901   6.234  13.007 -1.9298 -0.2373  0.5546
19286TIP3   OH279348   3.629   6.714   3.384 -0.1133  0.3284 -0.4171
19286TIP3    H179349   3.717   6.688   3.355  0.0631 -0.1070  0.5083
19286TIP3    H279350   3.572   6.643   3.353 -0.4897  1.6735 -2.9726
19287TIP3   OH279351   5.899   3.201  16.554 -0.0243  0.0890 -0.0318
19287TIP3    H179352   5.905   3.250  16.472 -0.5162 -0.6974 -0.5463
19287TIP3    H279353   5.982   3.217  16.598  0.2614  0.4781 -0.7026
19288TIP3   OH279354   2.863   3.303  10.546 -0.2001  0.6935  0.3228
19288TIP3    H179355   2.920   3.250  10.601  0.7590  1.7795  0.4049
19288TIP3    H279356   2.902   3.298  10.459 -0.4704  0.7425  0.1976
19289TIP3   OH279357   0.863   0.147   1.724  0.5304 -0.8426  0.5703
19289TIP3    H179358   0.868   0.150   1.820 -0.0314 -0.8768  0.6007
19289TIP3    H279359   0.784   0.196   1.703  0.7082 -0.7535  0.1159
19290TIP3   OH279360   1.495   4.811  14.312  0.2415  0.2157  0.2518
19290TIP3    H179361   1.549   4.751  14.261  1.9198  0.1954  1.9849
19290TIP3    H279362   1.432   4.754  14.357  0.6884 -0.0694  0.5179
19291TIP3   OH279363   1.825   5.292   6.139  0.0117 -0.6679 -0.5072
19291TIP3    H179364   1.873   5.257   6.215 -0.2418 -0.7599 -0.3891
19291TIP3    H279365   1.886   5.283   6.066  0.5196  0.0686 -0.1817
19292TIP3   OH279366   1.252   4.750   1.925 -0.4649  0.0296  0.1835
19292TIP3    H179367   1.323   4.757   1.861 -0.9244  0.1096 -0.3095
19292TIP3    H279368   1.227   4.657   1.923 -2.2699  0.5340 -1.6616
19293TIP3   OH279369   1.071   5.043   3.724 -0.1874 -0.0743 -0.3614
19293TIP3    H179370   1.052   5.135   3.742  0.9629  0.2290 -0.6707
19293TIP3    H279371   1.058   4.999   3.808  0.3458  0.5474  0.0501
19294TIP3   OH279372   3.816   1.946   1.842  1.0032 -0.2323 -0.5852
19294TIP3    H179373   3.749   1.979   1.782 -0.2826 -0.4977  0.6664
19294TIP3    H279374   3.895   1.994   1.819 -0.3648  2.3462 -0.0607
19295TIP3   OH279375   3.870   1.641  13.027 -0.2180  0.0943  0.2763
19295TIP3    H179376   3.952   1.592  13.016 -0.0105  0.5096 -0.0669
19295TIP3    H279377   3.872   1.707  12.958 -1.6123 -0.9208 -0.7575
19296TIP3   OH279378   6.349   0.333   2.029 -0.0078  0.0182  0.3163
19296TIP3    H179379   6.319   0.396   1.964 -3.8940  0.0255  1.9242
19296TIP3    H279380   6.389   0.386   2.097 -1.1937  0.5799  0.5969
19297TIP3   OH279381   5.417   0.105   3.449 -0.3953  0.1744 -0.3311
19297TIP3    H179382   5.474   0.155   3.506 -0.1621  0.1796 -0.5662
19297TIP3    H279383   5.457   0.018   3.446 -0.6311  0.0605 -0.1638
19298TIP3   OH279384   2.555   6.000  14.866  0.2781 -0.4222  0.0992
19298TIP3    H179385   2.594   6.059  14.801 -2.4204  3.1332  1.5139
19298TIP3    H279386   2.625   5.988  14.931  1.2499  0.2896 -0.7908
19299TIP3   OH279387   4.911   3.132   1.142 -0.3985 -0.7555  0.2358
19299TIP3    H179388   4.952   3.178   1.215 -1.0817 -1.1194  0.8619
19299TIP3    H279389   4.975   3.066   1.114  0.6708  0.7027 -0.8058
19300TIP3   OH279390   2.932   3.231   6.456  0.0060  0.1568 -0.3207
19300TIP3    H179391   2.915   3.309   6.401 -0.1001  0.6880  0.4612
19300TIP3    H279392   3.003   3.258   6.514 -0.5582 -0.0709  0.4827
19301TIP3   OH279393   5.837   1.259  10.387 -0.4164  0.4259  0.9153
19301TIP3    H179394   5.911   1.272  10.447  0.2342  0.5454  0.0872
19301TIP3    H279395   5.765   1.307  10.428 -0.4293 -0.8970  2.4673
19302TIP3   OH279396   1.081   2.225   0.976 -0.0828  0.5245  0.3863
19302TIP3    H179397   1.145   2.194   0.912 -0.3043  1.1909 -0.1563
19302TIP3    H279398   1.067   2.150   1.034  0.5647  0.1134  0.0120
19303TIP3   OH279399   4.976   4.498  14.015 -0.0027 -0.3305 -0.1094
19303TIP3    H179400   4.944   4.504  13.925  1.4062  1.1760 -0.5386
19303TIP3    H279401   5.064   4.461  14.007 -0.3728 -1.4223  0.7682
19304TIP3   OH279402   6.211   0.644   0.280 -0.5425 -0.3326  0.1614
19304TIP3    H179403   6.161   0.726   0.288  0.1511  0.2814 -1.5422
19304TIP3    H279404   6.209   0.625   0.186 -2.9622 -3.7072  0.7890
19305TIP3   OH279405   1.484   6.159   5.974 -1.0943  0.1520 -0.4159
19305TIP3    H179406   1.399   6.197   5.950 -1.0639  1.2500  1.0846
19305TIP3    H279407   1.475   6.140   6.068  0.3097  0.2999 -0.2380
19306TIP3   OH279408   6.303   5.243  14.205 -0.4682  0.4644 -0.3069
19306TIP3    H179409   6.307   5.224  14.299  2.3732 -0.3555 -0.5627
19306TIP3    H279410   6.371   5.308  14.190 -1.1261  0.8394 -1.7536
19307TIP3   OH279411   2.843   1.884   5.878  0.1726 -0.1707 -0.0311
19307TIP3    H179412   2.812   1.795   5.859 -0.4826  0.0780 -0.1345
19307TIP3    H279413   2.812   1.903   5.966  1.5239 -0.5702  0.5515
19308TIP3   OH279414   5.275   2.727   2.526 -0.4508  0.7205  0.1297
19308TIP3    H179415   5.292   2.734   2.432 -1.8666  1.4859 -0.0845
19308TIP3    H279416   5.313   2.643   2.551  0.1333  0.6112 -1.0845
19309TIP3   OH279417   5.242   6.301  13.660  0.0576  0.2517  0.2335
19309TIP3    H179418   5.227   6.395  13.669 -2.8589 -0.0970 -0.5347
19309TIP3    H279419   5.253   6.289  13.565  0.2657 -0.1922  0.3189
19310TIP3   OH279420   3.084   3.355   5.507  0.4538  0.0188 -0.0464
19310TIP3    H179421   3.132   3.300   5.444  0.8158 -0.9716  1.0777
19310TIP3    H279422   3.152   3.387   5.566 -0.0654 -0.1720  0.6571
19311TIP3   OH279423   6.049   4.344  14.490  0.1609 -0.2211  0.1172
19311TIP3    H179424   6.110   4.418  14.494  0.7565 -0.7178  0.2924
19311TIP3    H279425   5.963   4.385  14.477  0.6565  0.4407 -1.2588
19312TIP3   OH279426   3.222   0.404   1.426  0.0277  0.0559 -0.2997
19312TIP3    H179427   3.211   0.312   1.452 -0.3471  0.3260  0.5076
19312TIP3    H279428   3.190   0.454   1.501  0.7864  0.8512 -0.5091
19313TIP3   OH279429   4.763   6.223  11.783  0.3458  0.4552  0.1371
19313TIP3    H179430   4.687   6.273  11.752  1.3895  0.7539 -2.0086
19313TIP3    H279431   4.737   6.132  11.775  0.5749  0.5277 -1.6411
19314TIP3   OH279432   5.568   4.882  16.556 -0.2086 -0.1573  0.2507
19314TIP3    H179433   5.583   4.961  16.505  0.5854 -0.5489 -0.1299
19314TIP3    H279434   5.506   4.831  16.504 -0.9679  0.3489  0.6474
19315TIP3   OH279435   2.168   5.426   2.632  0.2149 -0.3097 -0.6529
19315TIP3    H179436   2.236   5.463   2.688 -1.2317  2.4535 -0.6540
19315TIP3    H279437   2.214   5.400   2.552  1.4557  0.4650 -0.2101
19316TIP3   OH279438   0.067   0.581   1.888 -0.6175 -0.0022  0.2563
19316TIP3    H179439   0.074   0.599   1.794  0.0956  0.8601  0.4668
19316TIP3    H279440   0.148   0.536   1.910 -1.0169 -0.6720  0.3577
19317TIP3   OH279441   5.013   4.606   0.856  0.4177  0.3540 -0.3159
19317TIP3    H179442   5.036   4.698   0.848  1.2130  0.3700  1.6804
19317TIP3    H279443   4.990   4.578   0.768 -2.4157  3.1137 -0.5268
19318TIP3   OH279444   2.124   0.061   3.695 -0.3692 -0.6058 -0.1841
19318TIP3    H179445   2.111   0.121   3.622  0.0674 -0.4109 -0.1017
19318TIP3    H279446   2.156  -0.020   3.654  0.1304 -0.4102 -0.1879
19319TIP3   OH279447   5.631   5.003  13.712  0.1897 -0.1159  0.2420
19319TIP3    H179448   5.695   4.934  13.726  1.0057  0.4289 -0.7265
19319TIP3    H279449   5.664   5.051  13.636 -1.4193  0.1050 -0.3353
19320TIP3   OH279450   3.493   2.622   5.148  0.0662 -0.3924  0.2022
19320TIP3    H179451   3.525   2.543   5.191  0.1678 -1.1291 -1.1792
19320TIP3    H279452   3.471   2.682   5.219 -1.2782 -2.1632  1.3173
19321TIP3   OH279453   4.374   2.932   5.620  0.2452 -0.1361 -0.4293
19321TIP3    H179454   4.342   2.925   5.710  1.1217 -0.0060 -0.1004
19321TIP3    H279455   4.347   3.020   5.592 -2.2613 -1.1033 -1.1957
19322TIP3   OH279456   5.260   3.171   1.396 -0.2846 -0.6446 -0.4329
19322TIP3    H179457   5.338   3.225   1.413 -0.6996 -0.0879 -0.2920
19322TIP3    H279458   5.242   3.185   1.303 -0.5448 -0.3333 -0.3373
19323TIP3   OH279459   1.630   4.380   0.561  0.1641  0.3009  0.3654
19323TIP3    H179460   1.610   4.344   0.475  0.2504 -1.4257  1.0327
19323TIP3    H279461   1.725   4.384   0.564  0.1261  1.6466 -0.1186
19324TIP3   OH279462   2.396   1.487  13.659 -0.0373 -0.1811  0.0307
19324TIP3    H179463   2.432   1.567  13.698  1.1128 -0.5601 -0.2411
19324TIP3    H279464   2.385   1.427  13.733 -0.7312  0.1636  0.2098
19325TIP3   OH279465   2.126   3.174   5.934  0.6466 -0.1920 -0.5323
19325TIP3    H179466   2.084   3.258   5.915 -0.8597 -0.6495  0.7006
19325TIP3    H279467   2.207   3.197   5.979  0.2702  0.6117 -0.2558
19326TIP3   OH279468   6.511   4.956   0.154 -0.0666 -0.2045 -0.4467
19326TIP3    H179469   6.491   4.915   0.238 -0.3525  0.1641 -0.3326
19326TIP3    H279470   6.599   4.993   0.165  0.3165 -1.0411 -0.6489
19327TIP3   OH279471   2.654   5.384   4.986 -0.3891  0.3526  0.4652
19327TIP3    H179472   2.585   5.395   5.051  0.5641  1.1836  1.3543
19327TIP3    H279473   2.670   5.472   4.952 -0.5659 -0.0065 -0.5691
19328TIP3   OH279474   4.453   1.051   0.142 -0.6702  0.2753 -0.3579
19328TIP3    H179475   4.386   0.998   0.185 -2.1041  3.4339  1.4527
19328TIP3    H279476   4.407   1.098   0.073  0.2241  0.4444 -0.8460
19329TIP3   OH279477   6.575   4.761   5.560  0.2362  0.3474  0.4401
19329TIP3    H179478   6.533   4.839   5.526 -0.5681 -0.1661  0.2321
19329TIP3    H279479   6.504   4.711   5.600  1.1275  0.8196  2.6694
19330TIP3   OH279480   4.559   2.205  16.143 -0.1309  0.9506 -0.1495
19330TIP3    H179481   4.556   2.196  16.238 -1.4595  0.6767 -0.2028
19330TIP3    H279482   4.590   2.294  16.128  3.6052 -0.1531  0.4871
19331TIP3   OH279483   6.703   6.281  16.840 -0.5811  0.0749  0.0649
19331TIP3    H179484   6.611   6.299  16.861  0.4248  2.6990  2.4415
19331TIP3    H279485   6.752   6.312  16.916  2.4749  1.1601 -2.2457
19332TIP3   OH279486   4.084   2.374  14.009  1.1116 -0.1920 -0.2366
19332TIP3    H179487   4.070   2.468  14.013  0.2703 -0.2909 -0.6048
19332TIP3    H279488   4.038   2.339  14.086 -0.4966 -0.5011 -1.3136
19333TIP3   OH279489   2.935   1.600  10.914  0.1532  0.0123 -0.3925
19333TIP3    H179490   2.841   1.582  10.912  0.3851 -1.3019  0.2804
19333TIP3    H279491   2.972   1.542  10.848  0.6910 -0.7145  0.5338
19334TIP3   OH279492   6.194   1.365  12.276  0.0992 -0.2306 -0.2069
19334TIP3    H179493   6.201   1.296  12.211 -2.9934  0.5207 -1.4437
19334TIP3    H279494   6.154   1.323  12.352 -2.3440  0.2673 -1.1736
19335TIP3   OH279495   6.364   2.780  14.642 -0.3165  0.0546 -0.1141
19335TIP3    H179496   6.274   2.787  14.611 -1.7814 -4.5703  2.6818
19335TIP3    H279497   6.383   2.866  14.680 -3.6919  0.9387 -0.2854
19336TIP3   OH279498   3.179   5.005   2.944 -0.3481 -0.9982 -0.5184
19336TIP3    H179499   3.135   5.084   2.914 -0.5081 -0.7966  0.2323
19336TIP3    H279500   3.215   5.029   3.030 -1.5721 -2.1582  0.3402
19337TIP3   OH279501   4.199   3.635  10.567 -0.1726  0.0816  0.4030
19337TIP3    H179502   4.235   3.547  10.583 -0.0488  0.0477 -0.0516
19337TIP3    H279503   4.258   3.694  10.614  0.6796  0.0515 -0.6057
19338TIP3   OH279504   0.405   5.894   2.981  0.4639 -0.3875 -0.4768
19338TIP3    H179505   0.411   5.799   2.991 -0.2906 -0.4203 -0.2758
19338TIP3    H279506   0.326   5.907   2.928  1.2327  0.0708 -1.5209
19339TIP3   OH279507   4.224   2.824   3.715  0.2930 -0.0955  0.2133
19339TIP3    H179508   4.254   2.763   3.648  0.3476  0.4925 -0.3068
19339TIP3    H279509   4.283   2.899   3.707 -1.2527  1.0728 -0.8202
19340TIP3   OH279510   1.392   5.637  11.281  0.3684  0.5063 -0.3340
19340TIP3    H179511   1.468   5.627  11.338  0.4632  0.3681 -0.4862
19340TIP3    H279512   1.328   5.575  11.315  0.4318  0.4106 -0.3901
19341TIP3   OH279513   0.877   0.570  15.513  0.0933 -0.3793 -0.0094
19341TIP3    H179514   0.875   0.474  15.519  3.3444 -0.4833  0.6311
19341TIP3    H279515   0.912   0.598  15.598  0.4502  1.2867 -0.6964
19342TIP3   OH279516   5.048   1.218   6.536 -0.8009 -0.2241 -0.1582
19342TIP3    H179517   4.981   1.230   6.469  0.0823 -0.5493 -1.1169
19342TIP3    H279518   5.016   1.267   6.611 -0.9980  1.5548 -1.3770
19343TIP3   OH279519   1.879   2.967   0.456 -0.2252  0.1666  0.8568
19343TIP3    H179520   1.789   2.987   0.430 -0.0539 -0.2324 -0.0839
19343TIP3    H279521   1.914   3.050   0.490 -0.6560  0.5547  0.3629
19344TIP3   OH279522   6.672   5.082  13.150 -0.5643  0.3088  0.0618
19344TIP3    H179523   6.657   5.095  13.056 -0.1718  1.0586  0.0925
19344TIP3    H279524   6.767   5.080  13.159 -0.5776  1.6439  0.6103
19345TIP3   OH279525   1.516   5.511  16.429 -0.4207  0.1689 -0.6616
19345TIP3    H179526   1.518   5.546  16.340  0.0224 -0.1695 -0.7886
19345TIP3    H279527   1.435   5.461  16.434 -0.0644 -0.4667 -1.1309
19346TIP3   OH279528   5.296   4.904  14.520  0.4163  0.5446  0.7491
19346TIP3    H179529   5.375   4.944  14.558  0.0932 -0.0052  2.0353
19346TIP3    H279530   5.229   4.972  14.528  0.0730  0.0505  2.1864
19347TIP3   OH279531   1.476   2.422   1.656 -0.1742  0.2765 -0.6611
19347TIP3    H179532   1.475   2.481   1.580  2.0896 -0.0279 -0.9652
19347TIP3    H279533   1.496   2.478   1.730  1.1090  0.0300 -0.8189
19348TIP3   OH279534   2.004   2.902  16.915 -0.2995  0.4260 -0.0809
19348TIP3    H179535   2.028   2.938  16.829  2.1639 -0.1633  0.3227
19348TIP3    H279536   1.976   2.977  16.966  0.2396  1.0879 -0.7552
19349TIP3   OH279537   5.466   6.802  16.852 -0.3673  0.5881  0.2463
19349TIP3    H179538   5.472   6.783  16.945  1.0124  1.5873  0.3694
19349TIP3    H279539   5.554   6.830  16.827 -0.7271  0.3601 -1.3489
19350TIP3   OH279540   2.393   4.073   2.256 -0.0112 -0.0547 -0.5573
19350TIP3    H179541   2.385   4.131   2.180  0.1522  0.8554  0.1031
19350TIP3    H279542   2.321   4.098   2.313  1.7077  1.5225  1.0309
19351TIP3   OH279543   6.747   5.453  12.622 -0.3050  0.1293  0.2027
19351TIP3    H179544   6.804   5.466  12.547 -2.7474 -0.9191 -1.9096
19351TIP3    H279545   6.803   5.467  12.698  2.0567  1.8999 -1.8024
19352TIP3   OH279546   0.748   3.554   2.897 -0.6272  0.1600 -0.5614
19352TIP3    H179547   0.819   3.591   2.844 -0.0814 -0.6280 -0.3911
19352TIP3    H279548   0.773   3.574   2.987 -2.1218  2.5067 -0.6204
19353TIP3   OH279549   0.026   0.654  12.076 -0.4893  0.1732 -0.0317
19353TIP3    H179550   0.052   0.679  11.987 -0.3972  0.6433  0.1239
19353TIP3    H279551  -0.004   0.736  12.116 -1.0948 -0.1450  0.1791
19354TIP3   OH279552   0.037   2.009   5.428  0.6730  0.5045 -0.1406
19354TIP3    H179553  -0.020   2.040   5.358 -1.4667 -1.0524  0.8563
19354TIP3    H279554   0.066   2.089   5.473 -0.0761  1.3609 -1.1628
19355TIP3   OH279555   4.766   3.391   1.956  0.1864 -0.2624  0.2224
19355TIP3    H179556   4.700   3.454   1.927 -1.2970 -1.2424  1.3934
19355TIP3    H279557   4.774   3.330   1.883  1.9416  1.4708 -1.0976
19356TIP3   OH279558   4.038   3.958  12.234 -0.2782  0.1051  0.3305
19356TIP3    H179559   4.008   3.996  12.316  2.0389 -3.2968  2.9066
19356TIP3    H279560   3.977   3.886  12.217  0.4861 -0.5262  0.2309
19357TIP3   OH279561   6.562   5.929  16.656 -0.2002 -0.4680 -1.0039
19357TIP3    H179562   6.604   5.844  16.664 -0.0863 -0.4268 -1.1609
19357TIP3    H279563   6.506   5.922  16.578  0.7642 -0.0030 -1.7513
19358TIP3   OH279564   5.890   3.947  11.089  0.0630 -0.6564 -0.1255
19358TIP3    H179565   5.956   3.944  11.158  0.8278  1.3227 -0.7347
19358TIP3    H279566   5.879   3.856  11.062  1.6394 -1.1481  0.8404
19359TIP3   OH279567   4.655   1.518  16.308 -0.2575  0.3098  0.1458
19359TIP3    H179568   4.739   1.479  16.333 -0.1673  0.9810  0.9251
19359TIP3    H279569   4.678   1.600  16.265 -0.5204  0.8657  1.0350
19360TIP3   OH279570   2.484   1.610  17.118 -0.1588 -0.7547 -0.3371
19360TIP3    H179571   2.449   1.521  17.113 -2.6320  0.0849  1.2440
19360TIP3    H279572   2.407   1.666  17.122  1.3748  1.3831  0.0913
19361TIP3   OH279573   3.302   3.915  13.447 -0.0689  0.1035 -0.1886
19361TIP3    H179574   3.259   3.937  13.364 -1.3996 -1.4618  0.0612
19361TIP3    H279575   3.243   3.951  13.514  0.5907  0.6547  0.0994
19362TIP3   OH279576   5.051   5.534  15.356 -0.2129  0.1243 -0.1897
19362TIP3    H179577   5.030   5.478  15.431 -2.1801 -1.2098 -1.6832
19362TIP3    H279578   5.143   5.515  15.338 -0.1465 -0.7202  0.9200
19363TIP3   OH279579   1.769   2.680   2.842  0.0711  0.9762 -0.7149
19363TIP3    H179580   1.759   2.585   2.846  0.8018  0.8018 -2.5961
19363TIP3    H279581   1.710   2.707   2.771 -0.9984  2.0821  0.5595
19364TIP3   OH279582   6.634   3.754   4.537  0.0458 -0.3625 -0.4071
19364TIP3    H179583   6.649   3.805   4.617 -0.8427 -2.6543  1.2975
19364TIP3    H279584   6.722   3.741   4.500  0.5504  0.0780  0.6099
19365TIP3   OH279585   6.745   4.140   1.904 -0.3420 -0.4589 -0.6017
19365TIP3    H179586   6.752   4.105   1.993  2.2517 -1.6345 -1.2314
19365TIP3    H279587   6.759   4.234   1.915  4.2736 -1.0650 -0.1502
19366TIP3   OH279588   6.532   3.741   3.730 -0.0086 -0.5405 -0.1335
19366TIP3    H179589   6.470   3.753   3.658  0.0679  1.3518  0.0765
19366TIP3    H279590   6.478   3.735   3.808  0.0536  1.5089  0.0959
19367TIP3   OH279591   2.913   1.583  11.353 -0.2419 -0.0210  0.0341
19367TIP3    H179592   2.990   1.605  11.404 -1.1195  1.9431  0.5574
19367TIP3    H279593   2.928   1.625  11.268 -0.4722 -0.1170 -0.0541
19368TIP3   OH279594   0.445   6.311  15.921  0.1026 -0.4803 -0.3172
19368TIP3    H179595   0.403   6.391  15.953  0.8128 -0.5178  0.7268
19368TIP3    H279596   0.392   6.285  15.846 -0.1546  0.9473 -0.6392
19369TIP3   OH279597   2.898   0.665  13.428  0.0580 -0.4423  0.0075
19369TIP3    H179598   2.978   0.715  13.439  1.1097 -1.8215 -1.0958
19369TIP3    H279599   2.880   0.669  13.334 -1.2413 -0.0272  0.2678
19370TIP3   OH279600   4.040   3.869  14.053  0.2768 -0.0836  0.6506
19370TIP3    H179601   4.029   3.845  13.961  0.9166  0.5914  0.3918
19370TIP3    H279602   4.135   3.877  14.065  0.2311 -0.7078  1.5074
19371TIP3   OH279603   1.333   1.052   5.940  0.3345  0.7479  0.1024
19371TIP3    H179604   1.411   1.080   5.988  0.4275  0.7437 -0.0466
19371TIP3    H279605   1.262   1.104   5.978  0.5439  1.3644 -0.3312
19372TIP3   OH279606   6.166   0.801  16.390 -0.0227 -0.5102  0.0177
19372TIP3    H179607   6.081   0.844  16.386 -0.0752 -0.6447 -0.3085
19372TIP3    H279608   6.222   0.863  16.437  0.5471  0.9403 -2.5141
19373TIP3   OH279609   1.978   4.446   2.501 -0.3189 -0.1782 -0.4175
19373TIP3    H179610   1.890   4.482   2.506 -0.2260  0.0342 -0.2866
19373TIP3    H279611   2.021   4.498   2.432 -0.7524 -1.2687 -1.5302
19374TIP3   OH279612   2.746   5.999   2.015  0.0817 -0.3867  0.3534
19374TIP3    H179613   2.791   5.974   2.095 -0.3289 -3.5180 -0.3220
19374TIP3    H279614   2.811   5.988   1.945 -0.2092  0.1082 -0.0019
19375TIP3   OH279615   6.121   3.331   1.016 -0.0045  0.2803 -0.0432
19375TIP3    H179616   6.057   3.382   1.066 -2.1933 -2.3187 -0.1236
19375TIP3    H279617   6.175   3.397   0.972 -2.2920  2.5289  0.4209
19376TIP3   OH279618   3.256   4.148   1.202  0.5756  0.2637 -0.3635
19376TIP3    H179619   3.332   4.160   1.144  1.7946 -2.6754  0.5144
19376TIP3    H279620   3.294   4.129   1.288 -1.2046  0.9327  0.6049
19377TIP3   OH279621   3.143   4.980  17.267 -0.4776 -0.1830  1.0404
19377TIP3    H179622   3.228   5.025  17.271  0.0703 -0.9683 -0.9687
19377TIP3    H279623   3.081   5.047  17.241 -0.0713 -0.0886  0.3093
19378TIP3   OH279624   3.356   2.262   0.017  0.6011  0.1231 -0.0400
19378TIP3    H179625   3.300   2.270  -0.061  0.1286 -1.7341  0.0709
19378TIP3    H279626   3.421   2.196  -0.007 -0.1066 -1.1569  1.4138
19379TIP3   OH279627   1.424   3.015  17.054  0.5220 -0.4636 -0.7824
19379TIP3    H179628   1.435   2.958  17.130  0.3018  0.8214  0.2386
19379TIP3    H279629   1.503   3.069  17.053 -0.9371  1.7748  0.4980
19380TIP3   OH279630   2.181   4.538   1.041  0.4784 -0.7822 -0.1691
19380TIP3    H179631   2.161   4.551   0.948  3.0041 -2.0484 -0.9458
19380TIP3    H279632   2.260   4.592   1.055  0.9659 -1.7547  0.8536
19381TIP3   OH279633   1.815   5.641   2.798  0.2131  0.0048  0.0690
19381TIP3    H179634   1.787   5.589   2.723 -1.1147  0.1995  0.4181
19381TIP3    H279635   1.904   5.669   2.776  0.0015 -0.3128 -1.2291
19382TIP3   OH279636   4.755   1.400  11.052 -0.2723  0.4395 -0.1720
19382TIP3    H179637   4.796   1.433  11.132 -0.5074 -0.5241  0.3512
19382TIP3    H279638   4.695   1.332  11.082  2.5941 -2.8024 -1.4917
19383TIP3   OH279639   6.042   0.127   3.792  0.0323  0.0181 -0.3160
19383TIP3    H179640   5.959   0.152   3.753  0.3278  1.4125 -0.0964
19383TIP3    H279641   6.019   0.092   3.878 -0.3837 -0.3254 -0.5664
19384TIP3   OH279642   0.061   2.671   5.369 -0.1874  0.2536 -0.0708
19384TIP3    H179643   0.147   2.662   5.330  0.1733  0.5190  0.6576
19384TIP3    H279644   0.078   2.695   5.460 -1.0286  0.5230  0.0198
19385TIP3   OH279645   1.322   5.531   4.630 -0.0954 -0.2409  0.2798
19385TIP3    H179646   1.358   5.533   4.541 -1.0146 -2.0910 -0.1640
19385TIP3    H279647   1.355   5.611   4.671  3.9313 -1.4544 -0.3513
19386TIP3   OH279648   2.002   4.987   2.791  0.3987  0.1205 -0.0972
19386TIP3    H179649   2.013   5.043   2.714 -1.4559  1.2680  0.4487
19386TIP3    H279650   2.009   5.047   2.865 -0.7836 -0.4904  0.5231
19387TIP3   OH279651   2.453   2.770  12.138  0.3086  0.2054  0.3167
19387TIP3    H179652   2.362   2.765  12.108  1.0009 -0.6162 -1.7404
19387TIP3    H279653   2.465   2.690  12.189  0.0678 -0.0338  0.0043
19388TIP3   OH279654   4.222   1.457  14.946  0.7568  0.9302  0.2078
19388TIP3    H179655   4.128   1.452  14.928  0.4949  0.2533  1.6326
19388TIP3    H279656   4.244   1.550  14.940 -0.0516  1.1140  0.0989
19389TIP3   OH279657   0.546   6.597   1.988 -0.2276  0.0892 -0.1206
19389TIP3    H179658   0.562   6.624   2.079 -2.7088  0.0592  0.3773
19389TIP3    H279659   0.484   6.662   1.955 -2.1374 -1.9288 -0.6120
19390TIP3   OH279660   0.593   1.693  12.132  0.2000  0.2687  0.0069
19390TIP3    H179661   0.639   1.745  12.065  1.1293  0.0125  0.4362
19390TIP3    H279662   0.506   1.732  12.137  1.0441  2.1122  0.6785
19391TIP3   OH279663   0.260   2.625   4.975 -0.5993 -0.1685  0.0139
19391TIP3    H179664   0.332   2.572   4.941 -0.1607  1.6176 -1.9011
19391TIP3    H279665   0.215   2.567   5.036  0.7332 -2.2548 -0.9355
19392TIP3   OH279666   3.824   1.320   0.072 -0.1118 -0.1887  0.3450
19392TIP3    H179667   3.907   1.350   0.109 -0.4747  0.7865  0.3781
19392TIP3    H279668   3.758   1.378   0.111 -0.7912 -0.8359  0.1780
19393TIP3   OH279669   2.242   1.740   2.351 -0.5842 -0.0138  0.2744
19393TIP3    H179670   2.186   1.723   2.276 -1.8408 -1.0085  1.4271
19393TIP3    H279671   2.257   1.835   2.348 -1.0398  0.0269 -0.9265
19394TIP3   OH279672   5.985   2.361   3.197  0.1438  0.0992  0.2555
19394TIP3    H179673   5.991   2.415   3.276  0.2150  0.7473 -0.1838
19394TIP3    H279674   6.002   2.422   3.125 -0.3399 -0.3915 -0.2880
19395TIP3   OH279675   4.142   3.371   2.081  0.2252 -0.4488 -0.7044
19395TIP3    H179676   4.150   3.386   1.987  1.8954 -0.3849 -0.5713
19395TIP3    H279677   4.217   3.417   2.119 -2.0139  1.9848  0.9498
19396TIP3   OH279678   0.588   2.236  13.350  0.2846  0.4648  1.2168
19396TIP3    H179679   0.568   2.192  13.268  0.9482 -0.6239  1.6286
19396TIP3    H279680   0.656   2.300  13.327 -1.8248  2.4552  0.3049
19397TIP3   OH279681   6.484   0.583   3.557  0.5714  0.7182 -0.2912
19397TIP3    H179682   6.524   0.662   3.596 -0.3628  1.0482  0.0041
19397TIP3    H279683   6.552   0.516   3.565 -0.1068  0.3526  3.3072
19398TIP3   OH279684   5.193   4.453   1.653  0.0789  0.0239 -0.5391
19398TIP3    H179685   5.145   4.460   1.571 -0.0718  1.8726 -0.3125
19398TIP3    H279686   5.129   4.473   1.721 -0.1752 -2.9930  0.1752
19399TIP3   OH279687   6.463   2.634   0.529  0.0120  0.2513  0.2336
19399TIP3    H179688   6.492   2.702   0.469  1.3568  0.2544  0.8613
19399TIP3    H279689   6.422   2.681   0.602 -0.4435  0.3157 -0.0674
19400TIP3   OH279690   2.999   3.271   4.377  0.2427 -0.2804 -0.1108
19400TIP3    H179691   2.995   3.227   4.462 -0.8441  0.0871  0.0293
19400TIP3    H279692   3.092   3.287   4.363  0.4223 -0.2546  1.0633
19401TIP3   OH279693   4.600   3.055   3.338  0.7936  0.4297 -0.4329
19401TIP3    H179694   4.570   3.138   3.303 -0.1864  0.1426 -0.2864
19401TIP3    H279695   4.691   3.071   3.364  1.1161  1.0005 -1.8954
19402TIP3   OH279696   5.637   1.502  13.829 -0.2721  0.5140  0.3420
19402TIP3    H179697   5.645   1.503  13.734 -1.5031  0.3912  0.2296
19402TIP3    H279698   5.645   1.593  13.855  0.4648  0.5012  0.1530
19403TIP3   OH279699   3.129   4.013   2.804 -0.0256  0.1387  0.2368
19403TIP3    H179700   3.051   4.070   2.804  1.0568  1.6919 -1.8893
19403TIP3    H279701   3.186   4.051   2.871 -0.0574  0.5185  0.0535
19404TIP3   OH279702   1.864   3.819   4.776 -0.1691  0.3102  0.3382
19404TIP3    H179703   1.830   3.757   4.841 -0.2990 -0.3824 -0.3821
19404TIP3    H279704   1.799   3.890   4.774 -0.9573 -0.4213 -0.1600
19405TIP3   OH279705   3.980   0.190   6.932  0.6784  0.2023  0.0201
19405TIP3    H179706   3.966   0.096   6.918  0.1882  0.1413  0.8875
19405TIP3    H279707   3.935   0.232   6.859  0.7902 -0.2359 -0.3010
19406TIP3   OH279708   2.883   3.578   4.209 -0.1116 -0.3416 -1.1572
19406TIP3    H179709   2.977   3.571   4.221 -0.2561  0.4748  0.6110
19406TIP3    H279710   2.866   3.672   4.203 -0.8379 -0.4663 -1.1515
19407TIP3   OH279711   1.842   2.182  14.746 -0.7328 -0.7428  0.2265
19407TIP3    H179712   1.784   2.151  14.816 -0.5178 -1.9299 -0.1185
19407TIP3    H279713   1.859   2.105  14.693  0.0428 -0.0910 -0.4781
19408TIP3   OH279714   3.048   1.793   3.918  0.3179 -0.1593 -0.4067
19408TIP3    H179715   2.964   1.783   3.962 -0.2245  0.6174 -1.2392
19408TIP3    H279716   3.036   1.750   3.833  0.7438  0.0043 -0.5522
19409TIP3   OH279717   5.250   5.457  14.062 -0.5805 -0.3392  0.4905
19409TIP3    H179718   5.282   5.503  14.139 -1.2792 -0.6652  0.9867
19409TIP3    H279719   5.205   5.523  14.011  1.6576  0.3223 -0.6732
19410TIP3   OH279720   2.650   2.154   1.073 -0.1184  0.2419  0.4870
19410TIP3    H179721   2.569   2.106   1.089 -0.0915 -0.7850 -2.2302
19410TIP3    H279722   2.700   2.097   1.015  2.2632  1.1858  1.5489
19411TIP3   OH279723   1.735   5.285   4.518 -0.0166 -0.1775 -0.6113
19411TIP3    H179724   1.706   5.231   4.592 -0.8154 -0.4380 -1.1112
19411TIP3    H279725   1.769   5.222   4.454  0.8854  0.0639 -0.3751
19412TIP3   OH279726   1.802   2.175  15.990 -0.0892 -0.0279  0.1093
19412TIP3    H179727   1.817   2.264  15.957  0.2619  0.2613  1.0335
19412TIP3    H279728   1.795   2.185  16.085  0.9220 -1.1034  0.3207
19413TIP3   OH279729   3.776   1.056  15.826  0.0267 -0.3922  0.1219
19413TIP3    H179730   3.758   1.147  15.801 -1.6046 -1.2031 -1.7532
19413TIP3    H279731   3.871   1.048  15.816  0.0733  0.8442 -0.6073
19414TIP3   OH279732   1.924   5.417  15.358  0.0831 -0.4869  0.1466
19414TIP3    H179733   1.943   5.510  15.374 -0.1271 -0.5212  0.6118
19414TIP3    H279734   1.852   5.418  15.294 -0.5379 -0.3149  0.8422
19415TIP3   OH279735   1.160   1.518   0.210 -0.0740  0.0357  0.1804
19415TIP3    H179736   1.235   1.520   0.271  2.3513 -1.3634 -2.6246
19415TIP3    H279737   1.139   1.609   0.195  0.9291  0.4549  1.2018
19416TIP3   OH279738   0.986   1.338  15.608  0.0986 -0.8361 -0.2349
19416TIP3    H179739   1.043   1.326  15.532  1.0872 -0.8172  0.4941
19416TIP3    H279740   1.040   1.386  15.671 -1.1657  0.3293 -0.0314
19417TIP3   OH279741   2.323   4.574  12.433  0.9957 -0.2514  0.1079
19417TIP3    H179742   2.376   4.502  12.398  0.8677 -0.7566  0.9338
19417TIP3    H279743   2.324   4.560  12.528  0.7081  0.6592  0.2434
19418TIP3   OH279744   6.816   0.314   2.036  0.4279  0.1617  0.8317
19418TIP3    H179745   6.757   0.374   1.990  2.2613  1.2813 -0.0743
19418TIP3    H279746   6.829   0.241   1.976 -0.6342 -0.4707  1.3495
19419TIP3   OH279747   4.185   6.253   3.840  0.6506 -0.4179  0.0289
19419TIP3    H179748   4.139   6.288   3.916  0.0739 -0.1749 -0.4253
19419TIP3    H279749   4.117   6.211   3.788  1.0515 -0.6458 -0.3186
19420TIP3   OH279750   4.304   5.316  11.945 -0.2448 -0.4858 -0.1191
19420TIP3    H179751   4.276   5.407  11.938 -1.2157 -0.7266  0.4177
19420TIP3    H279752   4.363   5.314  12.020 -0.1281 -0.2735 -0.2072
19421TIP3   OH279753   1.004   5.197   5.755  0.4569 -0.5152  0.1771
19421TIP3    H179754   0.926   5.181   5.701  1.0879 -0.0133 -0.8902
19421TIP3    H279755   1.013   5.292   5.757  0.3826 -0.5224  1.2666
19422TIP3   OH279756   2.215   2.486  13.293 -0.4452 -0.6989 -0.2393
19422TIP3    H179757   2.170   2.415  13.248 -1.1909  0.2659 -1.0513
19422TIP3    H279758   2.270   2.526  13.225 -0.2154 -0.3494  0.1501
19423TIP3   OH279759   6.186   6.167   0.212 -0.0520 -0.2870  0.3123
19423TIP3    H179760   6.092   6.178   0.197 -0.0158  0.6386  0.7284
19423TIP3    H279761   6.191   6.110   0.289 -0.2642 -0.1828  0.4022
19424TIP3   OH279762   0.637   3.431   1.897 -0.2095 -0.1756 -0.4334
19424TIP3    H179763   0.686   3.349   1.903  0.0253 -0.1640 -1.9190
19424TIP3    H279764   0.621   3.457   1.988  0.8857 -1.1662  0.0470
19425TIP3   OH279765   4.885   0.900   3.847  0.3674  0.3548  0.2546
19425TIP3    H179766   4.795   0.909   3.815 -0.0227 -0.3715  1.1401
19425TIP3    H279767   4.932   0.860   3.774  0.1827  1.5508 -0.5397
19426TIP3   OH279768   2.247   2.909  17.048 -0.1032 -0.4397 -0.0354
19426TIP3    H179769   2.155   2.935  17.035 -0.7261 -1.0780  2.7460
19426TIP3    H279770   2.242   2.818  17.077  1.1209  0.5290  3.4824
19427TIP3   OH279771   2.064   3.285   1.843  0.1800  0.3858 -0.0558
19427TIP3    H179772   2.116   3.206   1.832  0.0779  0.2365  0.5343
19427TIP3    H279773   2.111   3.352   1.793 -0.1088 -0.2076 -1.1425
19428TIP3   OH279774   0.590   4.280  11.836 -0.0205 -0.1851 -0.5619
19428TIP3    H179775   0.663   4.225  11.864  1.6722  2.3683  0.2258
19428TIP3    H279776   0.527   4.275  11.908  1.2562  0.8786  0.6623
19429TIP3   OH279777   0.649   2.712  11.022  0.0599  0.1817 -0.3188
19429TIP3    H179778   0.589   2.786  11.036 -0.0772  0.1432 -0.6773
19429TIP3    H279779   0.644   2.661  11.102  0.2852  0.6526  0.0010
19430TIP3   OH279780   0.818   1.518   2.196 -0.2407  0.3690  0.1873
19430TIP3    H179781   0.876   1.595   2.198  0.4230 -0.0559 -1.6296
19430TIP3    H279782   0.861   1.454   2.253  2.1245 -0.6196 -2.5706
19431TIP3   OH279783   5.650   2.458  14.631 -0.4590 -0.5262 -0.7954
19431TIP3    H179784   5.714   2.459  14.559 -1.8665 -0.4938 -2.0659
19431TIP3    H279785   5.682   2.524  14.692  0.1223  0.2770 -1.9490
19432TIP3   OH279786   0.063   0.476  17.238  0.6074  0.2996 -0.4508
19432TIP3    H179787   0.035   0.423  17.312 -0.5358  0.1684 -0.9624
19432TIP3    H279788   0.152   0.504  17.260  1.3649 -2.1133 -0.3476
19433TIP3   OH279789   0.631   6.261   5.047  0.4051  0.2241  0.4925
19433TIP3    H179790   0.600   6.280   4.958 -0.4394  1.8471  1.1050
19433TIP3    H279791   0.632   6.165   5.052  1.2144  0.1104 -1.5127
19434TIP3   OH279792   5.330   3.122   3.459  0.0588  0.0550  0.0670
19434TIP3    H179793   5.361   3.120   3.549  0.8680 -2.5341 -0.2283
19434TIP3    H279794   5.346   3.212   3.429  0.7442  0.6377  2.1458
19435TIP3   OH279795   6.401   6.606  11.295 -0.1397 -0.4601  1.0644
19435TIP3    H179796   6.433   6.620  11.206  0.3321 -0.8319  1.1729
19435TIP3    H279797   6.306   6.600  11.285 -0.2825  1.8267  0.9081
19436TIP3   OH279798   0.357   2.406  12.041  0.3867  0.0245 -0.3972
19436TIP3    H179799   0.391   2.319  12.021  1.0144  0.3990 -0.9771
19436TIP3    H279800   0.320   2.437  11.958 -1.1146 -0.2678  0.1578
19437TIP3   OH279801   2.831   6.018   5.710 -0.2327  0.4272  0.4491
19437TIP3    H179802   2.768   6.054   5.772 -0.6854 -1.3643  1.0780
19437TIP3    H279803   2.788   6.026   5.625 -0.5693  0.8269  0.6576
19438TIP3   OH279804   3.068   4.863  11.463 -0.6263  0.1594 -0.1684
19438TIP3    H179805   3.009   4.835  11.533 -1.9295  1.0126 -0.9119
19438TIP3    H279806   3.132   4.920  11.506 -0.8628 -0.0591  0.4747
19439TIP3   OH279807   2.516   5.750  16.909 -0.0427 -0.8278  0.3607
19439TIP3    H179808   2.559   5.806  16.974  1.1721 -1.5590  0.1980
19439TIP3    H279809   2.588   5.706  16.864 -0.7791  0.8175 -2.5450
19440TIP3   OH279810   5.969   5.737  13.369  0.0317  0.3068  0.3235
19440TIP3    H179811   5.918   5.689  13.304  0.5632  0.1640  0.0121
19440TIP3    H279812   6.053   5.692  13.371 -0.2567 -0.2232  1.7200
19441TIP3   OH279813   5.613   6.115  14.375 -0.0580  0.1216  0.0651
19441TIP3    H179814   5.700   6.126  14.414  0.5459 -1.8436 -0.7150
19441TIP3    H279815   5.562   6.073  14.444 -0.0743  0.1918  0.0971
19442TIP3   OH279816   5.606   1.152   2.705 -0.1476 -0.1941  0.3231
19442TIP3    H179817   5.610   1.063   2.740 -2.0348  0.2177  1.6820
19442TIP3    H279818   5.557   1.143   2.623  2.1489 -0.8024 -1.0163
19443TIP3   OH279819   5.743   6.160  16.081 -0.6751 -0.2190 -0.1977
19443TIP3    H179820   5.749   6.134  15.989  0.3419  2.1430 -0.8487
19443TIP3    H279821   5.684   6.235  16.082 -1.7722 -1.0726  1.2850
19444TIP3   OH279822   5.463   2.312   2.682  0.0295  0.0348 -0.5134
19444TIP3    H179823   5.424   2.238   2.635 -0.8824  0.0914  0.1389
19444TIP3    H279824   5.479   2.378   2.615  1.6229 -1.0464 -1.2550
19445TIP3   OH279825   0.288   5.669  13.177 -0.1399 -0.1539  0.0485
19445TIP3    H179826   0.238   5.624  13.245 -0.1217  1.0788  0.8967
19445TIP3    H279827   0.223   5.713  13.123 -0.0625  0.3838  0.3825
19446TIP3   OH279828   4.345   5.314  16.985 -0.0335 -0.3156 -0.4574
19446TIP3    H179829   4.385   5.399  16.964 -0.7289  0.0233 -0.4275
19446TIP3    H279830   4.339   5.314  17.081  0.8209 -0.7957 -0.3941
19447TIP3   OH279831   1.380   4.977   4.721 -0.1457  0.6817  0.4260
19447TIP3    H179832   1.354   4.888   4.700  1.4167 -0.0147  1.3132
19447TIP3    H279833   1.470   4.985   4.687 -0.9702  2.5862 -1.4531
19448TIP3   OH279834   0.022   4.865   5.747  0.3435  0.1667  0.0879
19448TIP3    H179835  -0.063   4.824   5.761 -0.8655  1.4318 -3.0706
19448TIP3    H279836   0.032   4.926   5.820 -1.9356  0.7343 -0.0488
19449TIP3   OH279837   2.631   2.614  15.545  0.6647 -0.1925  0.4828
19449TIP3    H179838   2.542   2.640  15.570  1.3006  2.9164 -0.4084
19449TIP3    H279839   2.685   2.637  15.621  0.9691 -0.6060  0.3933
19450TIP3   OH279840   0.326   1.968  11.025 -1.1992  0.3556  0.2138
19450TIP3    H179841   0.244   1.999  10.987 -1.1001 -0.9721 -1.1083
19450TIP3    H279842   0.320   1.873  11.021  1.0173  0.2512 -1.2347
19451TIP3   OH279843   6.594   6.175  16.489 -0.3153  0.0083  0.2376
19451TIP3    H179844   6.621   6.101  16.543  2.2763  0.8811  0.2016
19451TIP3    H279845   6.599   6.250  16.548 -1.3807  0.3903 -0.1527
19452TIP3   OH279846   6.421   1.609   0.270  0.4288 -0.5348  0.0579
19452TIP3    H179847   6.388   1.663   0.342  1.9233 -2.2169  2.0737
19452TIP3    H279848   6.505   1.649   0.247 -0.1475  0.1315 -0.9352
19453TIP3   OH279849   5.037   0.868   1.257  0.0716  0.0741  0.2513
19453TIP3    H179850   5.015   0.897   1.169  1.4749  1.5274  0.3507
19453TIP3    H279851   4.954   0.868   1.304 -0.1872  2.6844 -0.1425
19454TIP3   OH279852   6.329   1.210   6.431 -0.0260 -0.8058  0.2143
19454TIP3    H179853   6.254   1.240   6.483  0.2603  1.1253 -0.4266
19454TIP3    H279854   6.295   1.138   6.379 -1.4496 -0.0116  0.0089
19455TIP3   OH279855   1.587   0.475  15.316  0.1632  0.0308 -0.4992
19455TIP3    H179856   1.574   0.502  15.225 -0.1662 -0.8142 -0.7046
19455TIP3    H279857   1.519   0.410  15.332  1.2307 -1.0310 -0.1558
19456TIP3   OH279858   5.690   3.962   2.365  0.0265 -0.0695 -0.1070
19456TIP3    H179859   5.755   3.921   2.422 -0.0234 -0.6752 -0.4821
19456TIP3    H279860   5.611   3.968   2.420  0.2148  0.0933  0.1469
19457TIP3   OH279861   2.654   4.651  12.014  0.0846 -0.2888  0.5319
19457TIP3    H179862   2.574   4.642  11.962  0.7660 -0.4562 -0.5014
19457TIP3    H279863   2.634   4.606  12.097  0.3061 -3.4491 -1.0689
19458TIP3   OH279864   0.034   0.294  16.420 -0.8848  0.3677 -0.0122
19458TIP3    H179865  -0.023   0.264  16.491 -0.6583  1.2441  0.5561
19458TIP3    H279866  -0.007   0.261  16.341 -1.1931 -0.5515  0.5199
19459TIP3   OH279867   5.480   2.671   2.872  0.2645 -0.1080  0.9648
19459TIP3    H179868   5.406   2.690   2.930  1.6455  0.1399  2.6962
19459TIP3    H279869   5.448   2.602   2.815 -0.6506 -1.4817  3.0717
19460TIP3   OH279870   0.291   5.190   0.038 -0.0621 -0.3185  0.1067
19460TIP3    H179871   0.360   5.253   0.015 -1.7814  1.3278 -0.6872
19460TIP3    H279872   0.249   5.170  -0.045 -0.9360 -0.8483  0.6742
19461TIP3   OH279873   4.395   4.302  16.552  0.9578  0.2635  0.2295
19461TIP3    H179874   4.479   4.333  16.587  1.2528  0.7689 -0.8835
19461TIP3    H279875   4.403   4.314  16.458 -0.5495  0.7332  0.1503
19462TIP3   OH279876   2.592   2.484  14.455  0.6904  0.3243 -0.1360
19462TIP3    H179877   2.659   2.461  14.391  0.3522 -0.6526 -0.1532
19462TIP3    H279878   2.513   2.439  14.424  0.3396  0.4560  0.5585
19463TIP3   OH279879   2.090   3.025   0.859  0.4734  0.2283  0.2141
19463TIP3    H179880   2.176   3.002   0.895 -0.5998  1.0497  3.4963
19463TIP3    H279881   2.110   3.075   0.780  3.0185  0.2244  0.8030
19464TIP3   OH279882   1.818   4.050  11.290  0.4080  0.2201  0.5142
19464TIP3    H179883   1.891   4.010  11.244  1.0834  1.6382  0.3394
19464TIP3    H279884   1.812   4.002  11.373  0.3936 -1.0668 -0.2158
19465TIP3   OH279885   2.152   5.442  15.799 -0.3657 -0.5274  0.2227
19465TIP3    H179886   2.153   5.394  15.882  0.7691 -1.1905 -0.1674
19465TIP3    H279887   2.106   5.384  15.739 -1.3695  0.0414  0.4283
19466TIP3   OH279888   0.684   4.154  17.263  0.2564  0.2381 -0.3058
19466TIP3    H179889   0.630   4.224  17.227  1.1537  0.9669 -0.2563
19466TIP3    H279890   0.678   4.167  17.358 -0.6748 -0.5968 -0.2402
19467TIP3   OH279891   4.604   3.700   6.117 -0.5989  0.7554  0.3881
19467TIP3    H179892   4.683   3.746   6.090 -0.0795  0.7910  1.8962
19467TIP3    H279893   4.548   3.768   6.154 -0.9469  0.5807  0.1859
19468TIP3   OH279894   5.177   6.606  17.234  0.3508  0.3895 -0.1591
19468TIP3    H179895   5.260   6.645  17.207  0.4980  0.6895  0.7119
19468TIP3    H279896   5.199   6.556  17.313 -0.7008  2.3319  1.4351
19469TIP3   OH279897   5.161   1.182   2.389 -0.7643  0.0508 -0.2155
19469TIP3    H179898   5.142   1.197   2.297 -1.5753 -2.4332 -0.4922
19469TIP3    H279899   5.086   1.219   2.435  0.1815  2.3345 -0.4354
19470TIP3   OH279900   4.559   0.105  12.412  0.2518 -0.2122 -0.2491
19470TIP3    H179901   4.534   0.184  12.364 -1.1460 -0.6103 -0.1912
19470TIP3    H279902   4.492   0.041  12.390  1.4571 -1.4387 -0.4035
19471TIP3   OH279903   3.370   4.680  11.797 -0.3632 -0.4108  0.6969
19471TIP3    H179904   3.337   4.672  11.886 -2.0984 -1.1655  0.0068
19471TIP3    H279905   3.339   4.601  11.753 -1.3816  0.9667 -1.1382
19472TIP3   OH279906   6.047   6.246   4.641  0.0589 -0.2655 -0.0120
19472TIP3    H179907   6.065   6.154   4.660  2.7210 -0.1034 -1.5412
19472TIP3    H279908   6.020   6.248   4.550  2.0289  0.6696 -0.6102
19473TIP3   OH279909   1.191   2.493   6.366 -0.5440 -0.1501 -0.6218
19473TIP3    H179910   1.189   2.565   6.303  0.3892  0.6797  0.2699
19473TIP3    H279911   1.283   2.485   6.390 -0.7468 -1.1455 -0.1475
19474TIP3   OH279912   3.857   0.414  13.870  0.4199 -0.2901 -0.3733
19474TIP3    H179913   3.803   0.449  13.942  1.0804 -1.4110  0.6959
19474TIP3    H279914   3.929   0.370  13.915  0.6081 -1.3812 -1.7333
19475TIP3   OH279915   5.987   6.598   4.126 -0.0790  0.1074 -0.2342
19475TIP3    H179916   5.949   6.581   4.213  1.0153  0.8383  0.3938
19475TIP3    H279917   6.072   6.554   4.128  0.1591  0.5372 -0.7584
19476TIP3   OH279918   4.414   1.856  11.516  0.3415  0.5062 -0.0903
19476TIP3    H179919   4.432   1.769  11.551  0.7240  0.6520  0.0788
19476TIP3    H279920   4.320   1.856  11.499  0.2913  0.1541  0.1723
19477TIP3   OH279921   4.132   3.134  11.773 -0.0788 -0.3997 -0.0520
19477TIP3    H179922   4.211   3.154  11.723 -1.2680 -0.1775 -1.9057
19477TIP3    H279923   4.065   3.119  11.706 -1.1186 -2.6463  1.4261
19478TIP3   OH279924   4.039   3.008  10.740 -0.3959 -0.6304  0.4113
19478TIP3    H179925   4.115   2.972  10.786 -1.0871 -2.0363  0.4666
19478TIP3    H279926   4.035   3.099  10.769  1.1423 -0.5918  0.5601
19479TIP3   OH279927   6.355   3.579   4.186  0.2057  0.1384 -0.8900
19479TIP3    H179928   6.275   3.527   4.173 -0.5104  1.1552 -0.6169
19479TIP3    H279929   6.421   3.515   4.214 -0.8632 -0.5151  0.1751
19480TIP3   OH279930   0.482   0.752   3.968  0.2660  0.7202  0.0679
19480TIP3    H179931   0.394   0.754   4.006  0.5668  0.0979  0.7960
19480TIP3    H279932   0.520   0.670   3.999  0.3921  0.0204 -1.8395
19481TIP3   OH279933   3.768   0.399   0.879  0.0107  0.0382 -0.4520
19481TIP3    H179934   3.783   0.337   0.951  1.0494 -0.3100 -0.9518
19481TIP3    H279935   3.674   0.416   0.882  0.3005  1.4977  2.1707
19482TIP3   OH279936   3.587   4.085  14.771  0.1515 -0.0853  0.3679
19482TIP3    H179937   3.593   4.162  14.828 -1.9760  0.7706 -0.4910
19482TIP3    H279938   3.552   4.016  14.828 -0.7287  0.4049  0.4355
19483TIP3   OH279939   2.708   1.009   6.144 -0.3447  0.2404  0.1681
19483TIP3    H179940   2.639   0.947   6.164 -0.3928 -0.0363 -0.8299
19483TIP3    H279941   2.667   1.095   6.151 -0.7275  0.0857 -0.1973
19484TIP3   OH279942   3.420   2.505   3.696 -0.0929  0.1017 -0.1291
19484TIP3    H179943   3.406   2.597   3.674  2.6926  0.9252  1.2550
19484TIP3    H279944   3.481   2.473   3.630 -1.4230 -0.8951 -0.8820
19485TIP3   OH279945   0.276   5.997   2.087  0.0967  0.1648  0.2362
19485TIP3    H179946   0.246   6.063   2.024  0.8982 -0.8634 -1.2350
19485TIP3    H279947   0.356   5.961   2.048  1.0620  0.0708  2.2277
19486TIP3   OH279948   0.759   5.567  11.961 -0.1660  0.2230 -0.7715
19486TIP3    H179949   0.751   5.508  12.036  0.2907  0.0860 -0.8305
19486TIP3    H279950   0.670   5.576  11.929 -0.6260  1.6353  0.8257
19487TIP3   OH279951   3.059   3.054  11.662  0.3320 -0.6531  0.0210
19487TIP3    H179952   3.001   2.980  11.679 -0.4659  0.4628  2.4096
19487TIP3    H279953   3.001   3.122  11.626  0.8291 -0.7755 -1.0080
19488TIP3   OH279954   3.165   5.595   5.890  0.4922  0.3966  0.3671
19488TIP3    H179955   3.103   5.654   5.933 -1.4048 -0.4337 -1.1118
19488TIP3    H279956   3.161   5.515   5.942  2.1527  1.1289  1.6629
19489TIP3   OH279957   4.764   6.448   5.679  0.8408  0.2026 -0.0499
19489TIP3    H179958   4.806   6.378   5.628  0.9228  0.4169 -0.2769
19489TIP3    H279959   4.695   6.482   5.622  2.5103  2.0956 -1.0201
19490TIP3   OH279960   5.084   5.375  16.527 -0.0746  0.5639  0.1447
19490TIP3    H179961   5.118   5.446  16.473 -1.4713  1.2624  0.1471
19490TIP3    H279962   5.013   5.337  16.475  1.9592 -2.1711 -0.7415
19491TIP3   OH279963   6.245   5.378   4.480  0.1362 -0.4898  0.8159
19491TIP3    H179964   6.272   5.324   4.406  0.3783  1.0028 -0.1951
19491TIP3    H279965   6.151   5.391   4.467 -0.0430 -1.1324  1.3845
19492TIP3   OH279966   1.919   3.362   4.302  0.4705  0.6870 -0.1481
19492TIP3    H179967   1.859   3.421   4.347  0.3458  0.7439 -0.3844
19492TIP3    H279968   1.864   3.288   4.276  1.1256 -0.6714  2.2592
19493TIP3   OH279969   3.294   4.558  15.734 -0.1254 -0.0550 -0.1633
19493TIP3    H179970   3.247   4.488  15.778  0.4165  0.9901  2.1570
19493TIP3    H279971   3.299   4.628  15.799  1.3550  1.2628 -1.6484
19494TIP3   OH279972   0.514   2.687  16.201 -0.3641 -0.0774  0.1842
19494TIP3    H179973   0.571   2.689  16.125  0.1631 -1.0966  0.5472
19494TIP3    H279974   0.455   2.613  16.185 -1.3524  0.7334 -0.0129
19495TIP3   OH279975   1.619   2.712  12.187  0.6637  0.3681 -0.0671
19495TIP3    H179976   1.708   2.721  12.221  0.4869  1.6269  0.0758
19495TIP3    H279977   1.562   2.736  12.260  0.1127 -2.6758  0.5837
19496TIP3   OH279978   2.427   1.105  15.213  0.5643 -0.3023  0.4362
19496TIP3    H179979   2.405   1.043  15.283  0.1511 -0.6092  0.0398
19496TIP3    H279980   2.522   1.117  15.220  0.7311 -1.4025  0.1901
19497TIP3   OH279981   5.247   4.014   4.232 -0.2542 -0.1527 -0.1979
19497TIP3    H179982   5.262   3.935   4.180 -0.4088  0.2218 -0.8222
19497TIP3    H279983   5.152   4.022   4.235 -0.2386 -0.0146 -0.0949
19498TIP3   OH279984   3.867   2.016  12.729  0.4386 -0.1765 -0.4582
19498TIP3    H179985   3.809   1.976  12.665  2.3499 -0.0444 -2.3353
19498TIP3    H279986   3.867   2.109  12.708  2.4194 -0.3619 -1.4300
19499TIP3   OH279987   2.714   5.299   3.107  0.4128  0.0748  0.4020
19499TIP3    H179988   2.730   5.272   3.017 -2.7207 -0.8677  0.0605
19499TIP3    H279989   2.650   5.236   3.140 -0.0834  1.6694  2.6068
19500TIP3   OH279990   5.106   3.307   4.179  0.8137 -0.0038  0.6331
19500TIP3    H179991   5.092   3.390   4.225  0.3774  0.4578 -0.3146
19500TIP3    H279992   5.141   3.333   4.094 -1.4385 -0.6442 -0.5329
19501TIP3   OH279993   1.182   5.392  17.236 -0.2019 -0.0481  0.2410
19501TIP3    H179994   1.096   5.357  17.262 -0.9222  1.9756  0.6757
19501TIP3    H279995   1.174   5.408  17.142 -0.7679  1.4069  0.5310
19502TIP3   OH279996   4.254   1.640  12.517  0.5246 -0.4274  0.5554
19502TIP3    H179997   4.262   1.626  12.611  0.1345 -0.6954  0.5502
19502TIP3    H279998   4.318   1.708  12.497 -0.7528  1.0447  1.3402
19503TIP3   OH279999   1.901   6.137   2.620  0.6533  0.2775 -0.6685
19503TIP3    H180000   1.872   6.076   2.552 -0.6549  1.1106 -0.8709
19503TIP3    H280001   1.893   6.223   2.580  0.5551  0.7227  0.2987
19504TIP3   OH280002   2.534   4.351  12.847 -0.1121 -0.1126 -0.3424
19504TIP3    H180003   2.620   4.392  12.856 -0.7534  1.2676 -0.3815
19504TIP3    H280004   2.513   4.318  12.934 -0.3120  1.0974  0.0636
19505TIP3   OH280005   5.862   3.569  14.341  0.8944  0.3147  0.2440
19505TIP3    H180006   5.942   3.614  14.315 -0.3227  1.5901 -1.3707
19505TIP3    H280007   5.819   3.629  14.402  1.1220 -0.3443  1.0667
19506TIP3   OH280008   2.917   5.952  13.476 -0.4554  0.5868 -0.6930
19506TIP3    H180009   2.966   6.012  13.419  1.2841  0.1988  0.3571
19506TIP3    H280010   2.958   5.961  13.561  0.1450 -2.4196 -0.6059
19507TIP3   OH280011   2.194   6.654   3.508 -0.3193  0.0593  0.2298
19507TIP3    H180012   2.259   6.584   3.503  1.4632  1.6378  0.8068
19507TIP3    H280013   2.115   6.611   3.539 -0.1314 -2.2561 -2.2998
19508TIP3   OH280014   2.702   1.490   0.482 -0.0374  0.0654  0.1123
19508TIP3    H180015   2.698   1.551   0.556 -1.7642  1.4937 -1.1145
19508TIP3    H280016   2.648   1.416   0.508  0.7287 -0.1983  0.9562
19509TIP3   OH280017   3.595   0.827   3.209 -0.6800 -0.2584  0.4036
19509TIP3    H180018   3.610   0.737   3.182 -1.2844 -0.4830  0.8140
19509TIP3    H280019   3.682   0.865   3.218 -0.4326 -0.2092 -1.7601
19510TIP3   OH280020   3.516   5.160  12.157  0.2178 -0.6765 -0.0668
19510TIP3    H180021   3.498   5.103  12.082 -1.8464 -2.2324  1.5576
19510TIP3    H280022   3.439   5.151  12.213  1.4387  0.9680  1.9439
19511TIP3   OH280023   5.034   1.848   1.879 -0.2855  0.3710 -0.5714
19511TIP3    H180024   5.022   1.823   1.788 -1.9891  0.8118 -0.4883
19511TIP3    H280025   5.025   1.943   1.879 -1.3962  0.2786  0.1985
19512TIP3   OH280026   5.511   3.072  16.060  0.1832 -0.5155  0.0772
19512TIP3    H180027   5.605   3.063  16.043  0.5422  1.0565  1.1471
19512TIP3    H280028   5.498   3.032  16.145  0.3527  1.5526  1.0999
19513TIP3   OH280029   2.471   4.249   3.152  0.4711 -0.0877 -0.4196
19513TIP3    H180030   2.460   4.166   3.199 -1.7119 -0.3499 -1.3538
19513TIP3    H280031   2.469   4.224   3.060 -0.0965  0.9874 -0.7028
19514TIP3   OH280032   0.440   3.358   5.159 -0.5719 -0.5739 -0.8082
19514TIP3    H180033   0.460   3.404   5.078 -0.1525 -0.4278 -0.6236
19514TIP3    H280034   0.346   3.373   5.173 -0.3193  0.7348 -0.4318
19515TIP3   OH280035   4.771   0.030   0.106  0.2354 -0.5342 -0.0285
19515TIP3    H180036   4.756   0.007   0.014 -0.6057  0.1168 -0.0594
19515TIP3    H280037   4.748  -0.049   0.154  3.4694 -1.8780 -0.5491
19516TIP3   OH280038   5.888   6.205  12.732 -0.3437  0.2344  0.8922
19516TIP3    H180039   5.880   6.110  12.738  0.1598  0.1523  0.3337
19516TIP3    H280040   5.844   6.228  12.650 -0.5730  0.5010  1.0875
19517TIP3   OH280041   0.614   1.965   0.741 -0.3845  0.1105 -0.1079
19517TIP3    H180042   0.667   2.038   0.772 -1.0476  0.3623  0.4522
19517TIP3    H280043   0.545   2.005   0.689 -1.8546  0.0682  1.7380
19518TIP3   OH280044   6.550   3.783   5.883 -0.7497 -0.1767 -0.1460
19518TIP3    H180045   6.575   3.715   5.821 -1.6612 -2.0435  1.4592
19518TIP3    H280046   6.633   3.813   5.921 -0.3619 -0.6794 -0.5917
19519TIP3   OH280047   4.933   3.553   2.212 -0.0348  0.9495 -0.2652
19519TIP3    H180048   4.879   3.479   2.184  0.9489  0.4482 -0.8500
19519TIP3    H280049   4.975   3.584   2.131  0.4213  1.4337  0.1551
19520TIP3   OH280050   5.955   5.384  12.411 -0.2525  0.0311  0.3203
19520TIP3    H180051   6.041   5.424  12.425 -0.2177  0.2783 -0.6327
19520TIP3    H280052   5.920   5.374  12.500  1.2153 -1.0917  0.8011
19521TIP3   OH280053   0.271   4.997   2.155  0.0035  0.2437 -0.0623
19521TIP3    H180054   0.256   4.907   2.183  1.6058  0.0566  0.2131
19521TIP3    H280055   0.184   5.037   2.157 -0.6307 -1.1288  0.3856
19522TIP3   OH280056   4.931   5.493  12.646  0.2744  0.0134 -0.1804
19522TIP3    H180057   4.863   5.553  12.676 -0.2405  0.0474 -1.3820
19522TIP3    H280058   4.970   5.538  12.571 -0.1419 -1.1699 -1.1186
19523TIP3   OH280059   1.236   5.154  15.750 -0.1828  0.1281  0.6270
19523TIP3    H180060   1.305   5.209  15.785  2.9314 -2.6052 -0.9519
19523TIP3    H280061   1.229   5.081  15.812  0.0467 -0.8432 -0.4721
19524TIP3   OH280062   1.956   2.386   2.058 -0.2321  0.2962 -0.5032
19524TIP3    H180063   1.862   2.405   2.062 -0.3342 -0.4603  1.7700
19524TIP3    H280064   1.998   2.462   2.100  0.0831  0.1611 -0.5706
19525TIP3   OH280065   3.441   0.722   5.824 -0.4312  0.0691  0.2787
19525TIP3    H180066   3.453   0.817   5.833  0.4666  0.0256 -0.3599
19525TIP3    H280067   3.352   0.712   5.792  0.3206  0.8720 -2.2358
19526TIP3   OH280068   3.787   3.231  15.389  0.6521 -0.2201 -0.2206
19526TIP3    H180069   3.711   3.268  15.342  0.3015 -0.7907 -0.1042
19526TIP3    H280070   3.810   3.299  15.453 -1.9712 -1.4626  2.1475
19527TIP3   OH280071   3.729   4.228  12.546  0.1012 -0.3004 -0.0531
19527TIP3    H180072   3.758   4.310  12.505  1.5773  0.0024  1.4844
19527TIP3    H280073   3.797   4.165  12.523 -1.5216 -1.3734 -2.0251
19528TIP3   OH280074   1.748   0.582   2.990 -0.2855 -0.1039  0.2626
19528TIP3    H180075   1.815   0.649   3.000  0.3197 -0.2655 -2.2977
19528TIP3    H280076   1.669   0.621   3.028  0.6139  1.1193  0.9114
19529TIP3   OH280077   4.270   6.425  15.181 -0.1714  0.3027  0.1212
19529TIP3    H180078   4.220   6.389  15.107  1.3054 -0.6478 -0.4316
19529TIP3    H280079   4.256   6.362  15.252  0.0278  0.1740  0.0464
19530TIP3   OH280080   0.540   3.408  11.766  0.1927 -0.0750 -0.2655
19530TIP3    H180081   0.544   3.345  11.838 -2.3328  0.0952  0.0686
19530TIP3    H280082   0.577   3.489  11.802 -2.1110  0.3526  1.2677
19531TIP3   OH280083   5.074   2.139   5.807 -0.5182  0.6101  0.0215
19531TIP3    H180084   4.987   2.100   5.804  0.4026 -1.2846 -3.8014
19531TIP3    H280085   5.057   2.234   5.807 -2.5529  0.3053  1.6587
19532TIP3   OH280086   2.256   4.370   5.631 -0.3524 -0.0089  0.2645
19532TIP3    H180087   2.241   4.454   5.675 -2.2942 -1.9574  3.4705
19532TIP3    H280088   2.169   4.340   5.606  0.2514 -1.4114 -0.1758
19533TIP3   OH280089   6.699   2.349  11.214 -0.0937 -0.2002 -0.5744
19533TIP3    H180090   6.780   2.318  11.255  0.4323  3.2601  1.2032
19533TIP3    H280091   6.722   2.435  11.178 -3.7040  2.4128  2.9112
19534TIP3   OH280092   6.058   1.149  15.975 -0.0736 -0.0127 -0.0011
19534TIP3    H180093   6.110   1.088  16.028 -0.2039  0.6307  0.8894
19534TIP3    H280094   6.068   1.233  16.020 -2.5262 -0.0195  0.6316
19535TIP3   OH280095   0.316   6.699  15.757  0.0453 -0.6055 -0.4955
19535TIP3    H180096   0.377   6.747  15.700  1.1232 -0.8146  0.4533
19535TIP3    H280097   0.240   6.681  15.702  0.3320  0.7202 -1.3618
19536TIP3   OH280098   6.578   6.495   3.639  0.0973 -0.2456 -0.1520
19536TIP3    H180099   6.535   6.410   3.646 -1.4720  0.6644  1.9817
19536TIP3    H280100   6.656   6.487   3.693  0.4081 -0.5838 -0.6447
19537TIP3   OH280101   0.024   2.769  15.203  0.5014 -0.4158 -0.3397
19537TIP3    H180102  -0.021   2.853  15.194 -0.7536 -0.6908  2.5149
19537TIP3    H280103  -0.047   2.704  15.206  1.3259 -1.3292 -0.2671
19538TIP3   OH280104   2.271   0.556  11.226  0.0653 -0.4857  0.1209
19538TIP3    H180105   2.293   0.467  11.253  1.5211  0.1219  0.9887
19538TIP3    H280106   2.326   0.572  11.149 -0.2679 -0.3636 -0.0962
19539TIP3   OH280107   5.448   5.021   2.776 -0.0185  0.5759 -0.1659
19539TIP3    H180108   5.525   5.059   2.819 -1.3789  0.1601  2.7787
19539TIP3    H280109   5.420   4.951   2.835 -0.5413 -1.7239 -3.0024
19540TIP3   OH280110   3.942   2.332   6.304 -0.1583  0.4513  0.1463
19540TIP3    H180111   3.941   2.403   6.368  1.5744 -1.2528  2.1943
19540TIP3    H280112   3.932   2.253   6.357 -0.0359 -0.9452 -1.8550
19541TIP3   OH280113   2.553   0.864   3.395  0.0139 -0.0656  0.4679
19541TIP3    H180114   2.512   0.839   3.478 -1.7087  0.5413 -0.1847
19541TIP3    H280115   2.488   0.841   3.328  0.9140  0.5225 -0.6218
19542TIP3   OH280116   4.286   6.167   3.560 -0.0869  0.0867 -0.1554
19542TIP3    H180117   4.355   6.116   3.603  0.2995  0.2035 -0.6230
19542TIP3    H280118   4.208   6.153   3.614  0.6148  1.0101  1.1275
19543TIP3   OH280119   5.495   0.872  17.071 -0.2246  0.0044  0.2556
19543TIP3    H180120   5.550   0.949  17.063 -0.3687 -0.1532 -3.1852
19543TIP3    H280121   5.422   0.900  17.126  1.2455  1.3708  1.5672
19544TIP3   OH280122   1.768   4.271   6.925 -0.3287 -0.7356 -0.0386
19544TIP3    H180123   1.814   4.234   6.850  1.2066 -0.6849  0.8674
19544TIP3    H280124   1.675   4.257   6.905  0.1354 -2.6068 -0.9626
19545TIP3   OH280125   1.977   0.354  14.090 -0.2622  0.3410 -0.1540
19545TIP3    H180126   1.908   0.392  14.144  0.2003  1.1559 -0.1182
19545TIP3    H280127   1.992   0.268  14.128  0.0545  0.9021  1.0489
19546TIP3   OH280128   6.287   1.680  15.713  0.1491  0.3811  0.4644
19546TIP3    H180129   6.234   1.643  15.783 -1.0146  0.6593 -0.2515
19546TIP3    H280130   6.299   1.607  15.652  0.2073  0.4403  0.4066
19547TIP3   OH280131   6.227   2.422  11.195 -0.7178 -0.3980  0.3056
19547TIP3    H180132   6.250   2.514  11.182 -0.2539 -0.7647 -1.6767
19547TIP3    H280133   6.261   2.400  11.281 -0.6171  1.2150  0.6908
19548TIP3   OH280134   3.712   1.710   4.177 -0.1504 -0.1824  0.6472
19548TIP3    H180135   3.737   1.743   4.263 -0.3400 -0.0016  0.6335
19548TIP3    H280136   3.755   1.625   4.170 -1.4312 -0.9220  1.5830
19549TIP3   OH280137   5.432   3.654   5.965  0.0242 -0.1821 -0.0587
19549TIP3    H180138   5.490   3.675   6.038 -0.2326 -0.9057  0.3608
19549TIP3    H280139   5.344   3.655   6.004 -0.0119 -1.8218 -0.0730
19550TIP3   OH280140   4.060   0.604   6.015 -0.6193 -0.4850 -0.5528
19550TIP3    H180141   4.143   0.592   6.061 -0.3511 -1.8398 -1.3776
19550TIP3    H280142   4.023   0.516   6.009 -1.6784 -0.0138 -1.0141
19551TIP3   OH280143   2.743   5.578  16.806 -0.7116  0.3343 -0.3166
19551TIP3    H180144   2.746   5.527  16.725 -0.0050  0.5439 -0.4256
19551TIP3    H280145   2.823   5.630  16.805 -0.5917  0.1837  0.6176
19552TIP3   OH280146   4.477   1.050  11.561  0.0655 -0.2189 -0.3738
19552TIP3    H180147   4.489   0.956  11.547 -0.1601 -0.2695 -0.2250
19552TIP3    H280148   4.416   1.076  11.492  0.5502 -0.0774 -0.7492
19553TIP3   OH280149   5.544   6.686  14.543 -0.2699  0.1690  0.1210
19553TIP3    H180150   5.589   6.748  14.486 -2.1706  1.6365  0.1538
19553TIP3    H280151   5.522   6.613  14.486 -0.0219  0.5590 -0.4773
19554TIP3   OH280152   0.905   0.427   6.228  0.2815 -0.7167  0.6881
19554TIP3    H180153   0.942   0.340   6.241  0.3524 -0.5711  1.5535
19554TIP3    H280154   0.917   0.470   6.313  0.7137  0.3071  0.1181
19555TIP3   OH280155   5.722   1.709  14.174  0.4022 -0.0048  0.4377
19555TIP3    H180156   5.628   1.727  14.167  0.4353  0.3473  0.8831
19555TIP3    H280157   5.731   1.618  14.145 -0.0204  0.0823  0.0117
19556TIP3   OH280158   3.817   6.708  13.798 -0.3892  0.5244 -0.4037
19556TIP3    H180159   3.726   6.684  13.819  0.2243 -1.8733 -0.3140
19556TIP3    H280160   3.833   6.666  13.713  0.9135  0.1704  0.0102
19557TIP3   OH280161   2.746   6.129  13.639 -0.5366 -0.7296 -0.1342
19557TIP3    H180162   2.722   6.194  13.705  0.0817 -0.8861  0.2576
19557TIP3    H280163   2.842   6.126  13.643 -0.4479 -0.1299 -1.6293
19558TIP3   OH280164   5.175   2.306  13.813 -0.0790 -0.2171  0.2360
19558TIP3    H180165   5.184   2.401  13.819 -1.3846 -0.0088 -0.9573
19558TIP3    H280166   5.092   2.292  13.769 -0.9039 -1.9621  2.2652
19559TIP3   OH280167   0.062   6.254  14.979  0.2595 -0.0688  0.0909
19559TIP3    H180168   0.090   6.170  14.943  0.1291  0.0994 -0.3950
19559TIP3    H280169  -0.033   6.254  14.970  0.3225  0.4506 -0.6014
19560TIP3   OH280170   0.121   4.857   5.022  0.4962 -0.1538 -0.1903
19560TIP3    H180171   0.158   4.843   5.110  0.8954 -0.3058 -0.3788
19560TIP3    H280172   0.086   4.771   4.998  1.1590 -0.3381 -0.5292
19561TIP3   OH280173   1.206   6.567   0.290 -0.0656  0.3344 -0.2970
19561TIP3    H180174   1.133   6.518   0.252 -0.3767  0.2655  0.3899
19561TIP3    H280175   1.243   6.616   0.216 -0.0440 -0.5677 -0.8870
19562TIP3   OH280176   5.780   1.823   3.825  0.1909  0.5762  0.2579
19562TIP3    H180177   5.737   1.797   3.906  2.1120 -0.6534  0.9276
19562TIP3    H280178   5.849   1.884   3.853  1.1543 -0.1988 -0.3676
19563TIP3   OH280179   2.514   0.612  14.186 -0.2045  0.5330 -0.4096
19563TIP3    H180180   2.489   0.529  14.226 -0.3667  1.0890  0.6720
19563TIP3    H280181   2.604   0.598  14.157  1.0588  1.0785  2.9863
19564TIP3   OH280182   3.423   4.579  12.548  0.5952  0.1569  0.0249
19564TIP3    H180183   3.505   4.618  12.579  0.4616  0.2090  0.3133
19564TIP3    H280184   3.451   4.508  12.490  0.8434  1.2274 -1.1897
19565TIP3   OH280185   1.244   3.313   1.772 -0.5678 -0.0688 -0.3558
19565TIP3    H180186   1.198   3.356   1.843 -1.5582  0.6702 -1.4227
19565TIP3    H280187   1.184   3.244   1.743  0.0355 -0.6808 -0.1594
19566TIP3   OH280188   0.115   0.651  11.594 -0.2157 -0.0186  0.0753
19566TIP3    H180189   0.123   0.678  11.503  1.0683  0.6655  0.3719
19566TIP3    H280190   0.087   0.560  11.590 -1.9166  0.5223 -0.9673
19567TIP3   OH280191   5.035   6.363   0.973 -0.3104  0.9659  0.0772
19567TIP3    H180192   5.033   6.405   0.887 -0.1526 -0.4322 -0.6264
19567TIP3    H280193   5.116   6.313   0.973  0.7634  2.6309  1.8741
19568TIP3   OH280194   3.778   1.389  16.767  0.0643 -0.4789 -0.4766
19568TIP3    H180195   3.728   1.402  16.686  1.5633 -0.0307 -1.3567
19568TIP3    H280196   3.799   1.295  16.767  0.6680 -0.3523 -0.9918
19569TIP3   OH280197   5.842   4.585   5.236 -0.1784  0.1733  0.2303
19569TIP3    H180198   5.865   4.593   5.328  0.4733 -0.5028  0.1282
19569TIP3    H280199   5.867   4.496   5.212 -1.4574 -0.0538 -0.2902
19570TIP3   OH280200   3.725   6.330   0.839  0.5204  0.1180 -0.3782
19570TIP3    H180201   3.679   6.333   0.923  1.4643  1.4764  0.1169
19570TIP3    H280202   3.811   6.295   0.861  0.0536 -1.5548 -1.1521
19571TIP3   OH280203   1.169   4.625   4.441 -0.3480  0.0523  0.2497
19571TIP3    H180204   1.128   4.616   4.355  0.8813  0.6295 -0.4143
19571TIP3    H280205   1.144   4.713   4.471  1.1838  0.7989 -0.5973
19572TIP3   OH280206   6.537   1.199  11.995 -0.2251 -0.3467 -0.0039
19572TIP3    H180207   6.517   1.222  12.086 -2.1567  1.2037 -0.7861
19572TIP3    H280208   6.631   1.182  11.995 -0.1312 -0.0030  2.1959
19573TIP3   OH280209   6.482   1.855   1.465  0.3117  0.5108  0.2436
19573TIP3    H180210   6.448   1.822   1.548 -0.5619 -0.0157 -0.3106
19573TIP3    H280211   6.468   1.950   1.469 -0.2497  0.4221  0.4690
19574TIP3   OH280212   0.791   6.660  14.369  0.0487 -0.4360 -0.3912
19574TIP3    H180213   0.709   6.669  14.321  0.4653 -1.4649 -1.3165
19574TIP3    H280214   0.828   6.749  14.369 -2.3405  0.6238  2.4131
19575TIP3   OH280215   5.729   4.535   2.950 -0.4203  0.5125 -0.6247
19575TIP3    H180216   5.790   4.556   3.020 -1.9410  1.5691  0.4177
19575TIP3    H280217   5.782   4.535   2.871  1.6115 -2.0307  0.6558
19576TIP3   OH280218   2.174   0.623  14.317 -0.5973  0.3353  0.0692
19576TIP3    H180219   2.261   0.620  14.279 -0.6129 -0.5149  0.0995
19576TIP3    H280220   2.146   0.532  14.321 -1.3200  0.5690  0.4472
19577TIP3   OH280221   2.043   6.092  14.929 -0.8193  0.0667 -0.1703
19577TIP3    H180222   1.990   6.086  14.850 -0.2903 -1.3099 -0.4508
19577TIP3    H280223   2.130   6.062  14.901 -0.5986 -0.3073  0.8921
19578TIP3   OH280224   0.533   2.294  11.104  0.4313  0.2178  0.5919
19578TIP3    H180225   0.448   2.275  11.064  1.3029  1.6272 -2.0406
19578TIP3    H280226   0.582   2.212  11.097  1.4691  1.1006 -3.7128
19579TIP3   OH280227   3.310   6.128   0.546  0.0625 -0.3874 -0.0301
19579TIP3    H180228   3.252   6.168   0.609  0.5732 -1.2425  0.9993
19579TIP3    H280229   3.307   6.034   0.566 -0.9791 -0.8836 -2.2707
19580TIP3   OH280230   3.670   0.007  16.643 -0.6418 -0.6915  0.2446
19580TIP3    H180231   3.590  -0.017  16.597  0.9857 -1.7200 -2.1167
19580TIP3    H280232   3.728   0.040  16.575  1.2695 -0.7765  1.8015
19581TIP3   OH280233   4.086   6.195  10.744  0.1982 -0.2298 -0.0711
19581TIP3    H180234   3.994   6.170  10.750  0.2462 -0.3654  0.0976
19581TIP3    H280235   4.095   6.232  10.656  0.0002 -0.2838 -0.1141
19582TIP3   OH280236   5.671   1.972  16.098 -0.5243  0.0102 -0.2711
19582TIP3    H180237   5.583   1.934  16.100 -0.7213  0.5242  1.9249
19582TIP3    H280238   5.717   1.921  16.032 -2.3046 -0.6181 -1.0816
19583TIP3   OH280239   6.076   4.968   6.003 -0.2797  0.7807 -0.3295
19583TIP3    H180240   6.144   4.912   5.966 -0.6598 -1.3052  1.9985
19583TIP3    H280241   6.000   4.955   5.945  0.2730  0.5234 -1.0025
19584TIP3   OH280242   5.928   6.201  13.675 -0.1705  0.0446 -0.2440
19584TIP3    H180243   5.875   6.128  13.643 -0.9899  0.6063 -0.1890
19584TIP3    H280244   5.966   6.239  13.596  0.4043 -0.5499 -0.2586
19585TIP3   OH280245   1.456   2.916  13.501 -0.2559 -0.0669  0.3548
19585TIP3    H180246   1.551   2.916  13.514 -0.2130  2.4389  0.2148
19585TIP3    H280247   1.422   2.965  13.576 -1.3027  0.3652 -0.3868
19586TIP3   OH280248   1.072   6.274  15.562 -0.2577 -0.0720  0.4504
19586TIP3    H180249   0.996   6.257  15.507  0.0502  0.0199 -0.0029
19586TIP3    H280250   1.067   6.368  15.580  1.2461  0.4686 -1.8197
19587TIP3   OH280251   6.109   2.373   6.355 -0.3229  0.1745 -0.2518
19587TIP3    H180252   6.066   2.451   6.390  0.5236  0.2303  0.7039
19587TIP3    H280253   6.038   2.312   6.338 -0.8467  0.4786  0.7700
19588TIP3   OH280254   4.790   0.967   3.254  0.4734 -0.6371 -0.0836
19588TIP3    H180255   4.870   0.920   3.233  0.6946  0.7984 -2.6629
19588TIP3    H280256   4.805   1.000   3.343  3.2567  0.6167 -0.9495
19589TIP3   OH280257   6.703   0.445  11.762  0.6147  0.1515  0.1121
19589TIP3    H180258   6.794   0.451  11.792  0.7940  1.6471 -0.6803
19589TIP3    H280259   6.697   0.358  11.722  1.6726  0.0101  0.2445
19590TIP3   OH280260   4.051   1.799  16.890 -0.1837  0.8356 -0.5889
19590TIP3    H180261   4.000   1.836  16.962  0.2034  0.4401 -0.1044
19590TIP3    H280262   4.018   1.710  16.881  0.7639  0.4030  0.0731
19591TIP3   OH280263   3.285   2.082   3.392  0.1214 -0.0859 -0.1441
19591TIP3    H180264   3.287   2.039   3.478 -2.5322 -1.5913 -0.7815
19591TIP3    H280265   3.306   2.012   3.330 -2.2287 -0.0249 -1.0402
19592TIP3   OH280266   4.718   3.127  14.535  0.1313 -0.7154 -0.0547
19592TIP3    H180267   4.660   3.201  14.518  0.8644 -0.2762 -0.6519
19592TIP3    H280268   4.754   3.144  14.622  0.3828 -0.3122 -0.2359
19593TIP3   OH280269   6.276   1.558   4.029 -0.0176  0.3416 -0.0047
19593TIP3    H180270   6.265   1.584   4.121  0.1857 -0.4982  0.2556
19593TIP3    H280271   6.189   1.526   4.003 -0.6157  2.4433 -0.7049
19594TIP3   OH280272   5.841   2.443   5.629 -0.1456  0.3728 -0.3523
19594TIP3    H180273   5.882   2.396   5.702 -0.3782  0.1082 -0.3931
19594TIP3    H280274   5.877   2.531   5.635 -1.0392  0.6797  0.8012
19595TIP3   OH280275   1.653   2.550  13.522  0.1976  0.0592 -0.3284
19595TIP3    H180276   1.747   2.536  13.536  0.0478 -0.1649  0.4860
19595TIP3    H280277   1.616   2.554  13.610 -0.4221  1.1086 -0.6330
19596TIP3   OH280278   6.276   0.452   1.134 -0.3032 -0.2614 -0.3102
19596TIP3    H180279   6.332   0.402   1.074  0.2870  0.0256  0.0089
19596TIP3    H280280   6.192   0.405   1.132  0.3017 -1.3691  0.1185
19597TIP3   OH280281   5.994   5.630  14.504 -0.3878 -0.1851 -0.0733
19597TIP3    H180282   5.943   5.695  14.553 -1.1314 -0.2956 -0.6816
19597TIP3    H280283   6.082   5.666  14.501 -0.9190  1.1183 -0.9180
19598TIP3   OH280284   1.358   2.057  12.894 -0.2035 -0.6558  0.5961
19598TIP3    H180285   1.407   2.137  12.912  0.6644 -0.4499 -2.3869
19598TIP3    H280286   1.326   2.028  12.979  0.1850  2.4061  1.8258
19599TIP3   OH280287   0.764   5.600   6.654 -1.2626  0.0658  0.2822
19599TIP3    H180288   0.830   5.532   6.643 -1.7366 -0.3629  0.0338
19599TIP3    H280289   0.787   5.667   6.589 -0.0729  0.7318  1.3690
19600TIP3   OH280290   2.477   4.752  13.613  0.1170 -0.6433  0.4057
19600TIP3    H180291   2.452   4.664  13.644  0.8355 -0.8396  0.4307
19600TIP3    H280292   2.406   4.776  13.553  0.7980 -1.9936 -0.9831
19601TIP3   OH280293   4.643   1.976  13.203 -0.3591  0.3159 -0.5224
19601TIP3    H180294   4.697   2.040  13.249 -1.3662  0.5866  0.2969
19601TIP3    H280295   4.690   1.959  13.122  1.4125 -0.1391  0.5957
19602TIP3   OH280296   6.517   0.719   4.534 -0.1547 -0.0365 -0.1282
19602TIP3    H180297   6.574   0.693   4.606 -1.3650 -1.8774  0.1885
19602TIP3    H280298   6.428   0.704   4.566 -0.6924 -2.3606 -2.5053
19603TIP3   OH280299   3.439   3.108   0.848 -0.5348  0.2385  0.1876
19603TIP3    H180300   3.428   3.014   0.863 -0.3517  0.0783 -0.6544
19603TIP3    H280301   3.496   3.137   0.919  1.1049 -0.6893 -0.7065
19604TIP3   OH280302   0.561   5.749   4.424 -0.1550 -0.6634  0.6279
19604TIP3    H180303   0.609   5.826   4.456 -0.1333 -0.9169  1.2010
19604TIP3    H280304   0.575   5.751   4.329 -1.2387  0.7768  0.4795
19605TIP3   OH280305   0.984   3.599  12.673 -0.5139 -0.3832 -0.1709
19605TIP3    H180306   0.909   3.645  12.712  0.1603  0.4731  0.1281
19605TIP3    H280307   1.027   3.556  12.747 -0.5745 -0.6985 -0.3145
19606TIP3   OH280308   4.160   5.429  16.794  0.1076 -0.0419 -0.9685
19606TIP3    H180309   4.119   5.482  16.863  1.1261 -0.0061 -0.3794
19606TIP3    H280310   4.220   5.371  16.841 -0.5200 -1.2748 -1.6722
19607TIP3   OH280311   1.920   2.444  14.653 -0.0737  0.4098 -0.5780
19607TIP3    H180312   1.896   2.374  14.714  4.5929 -0.3527  0.6209
19607TIP3    H280313   1.919   2.401  14.567 -1.9888  0.1888 -0.4530
19608TIP3   OH280314   4.663   6.196   4.265  0.0863 -0.1912  0.1066
19608TIP3    H180315   4.588   6.222   4.319 -0.7089 -2.2145  0.0221
19608TIP3    H280316   4.629   6.193   4.176  0.1575 -1.4356  0.1058
19609TIP3   OH280317   5.025   0.642  12.468 -0.3430  0.1275 -0.5778
19609TIP3    H180318   4.944   0.639  12.416  0.0554  2.0377 -1.3452
19609TIP3    H280319   5.092   0.673  12.407  0.4342  1.0600  0.7198
19610TIP3   OH280320   5.737   2.137   2.616 -0.1015 -0.0376  0.1724
19610TIP3    H180321   5.828   2.163   2.631  0.1041 -0.7968  0.2536
19610TIP3    H280322   5.720   2.070   2.682  0.6173 -2.9983 -2.5425
19611TIP3   OH280323   6.798   3.285   3.980  0.6513  0.2896  0.0542
19611TIP3    H180324   6.858   3.326   4.042  1.0664  0.5969 -0.5483
19611TIP3    H280325   6.845   3.287   3.896  0.5696 -1.1483 -0.0395
19612TIP3   OH280326   3.158   2.080  12.080 -0.2573  0.1299 -0.1738
19612TIP3    H180327   3.177   2.022  12.154 -1.2326  0.7317  0.5642
19612TIP3    H280328   3.171   2.168  12.115 -2.5346  0.4857 -0.1819
19613TIP3   OH280329   5.812   0.265  17.284  0.1021 -0.3248 -0.5462
19613TIP3    H180330   5.896   0.307  17.263 -0.2264  0.4081 -0.4171
19613TIP3    H280331   5.799   0.284  17.377 -1.2041  1.3387 -1.0520
19614TIP3   OH280332   6.817   4.473  15.437 -0.3837  0.3139  0.3496
19614TIP3    H180333   6.731   4.431  15.430 -0.3750  0.5195 -1.1800
19614TIP3    H280334   6.860   4.428  15.509 -1.4452 -0.3987  0.5447
19615TIP3   OH280335   2.913   5.118  15.694  0.3847 -0.6817 -0.7489
19615TIP3    H180336   2.830   5.124  15.647 -0.7105  0.6796  1.2940
19615TIP3    H280337   2.969   5.064  15.638 -0.6386  1.4404 -3.9062
19616TIP3   OH280338   3.268   1.883  16.886 -0.3110 -0.9640  0.1005
19616TIP3    H180339   3.195   1.932  16.926  0.6114 -0.1459  0.8055
19616TIP3    H280340   3.244   1.875  16.794  0.1380  1.9672 -0.3077
19617TIP3   OH280341   4.068   1.806  13.369  0.1619 -0.2267 -0.2242
19617TIP3    H180342   4.054   1.900  13.373  2.3180  0.0696  1.2985
19617TIP3    H280343   4.148   1.792  13.419  0.3527 -2.7719 -1.1993
19618TIP3   OH280344   0.510   0.135   4.322 -0.3947  0.1329  0.7731
19618TIP3    H180345   0.463   0.159   4.402 -0.7629 -2.7460  1.4781
19618TIP3    H280346   0.442   0.110   4.260 -0.0070  0.3084  0.2680
19619TIP3   OH280347   1.665   0.258   4.849 -0.2212 -0.7030  0.2146
19619TIP3    H180348   1.601   0.314   4.892 -0.7557  0.1634 -1.6671
19619TIP3    H280349   1.632   0.169   4.863  0.5770 -0.5961  3.1173
19620TIP3   OH280350   6.597   2.849   6.345 -0.0492 -0.3354 -0.3380
19620TIP3    H180351   6.674   2.792   6.339  0.2605  0.0869 -0.4230
19620TIP3    H280352   6.545   2.812   6.417  0.5894 -0.1995  0.2039
19621TIP3   OH280353   3.709   5.160   2.581 -0.3114  0.2131 -0.1787
19621TIP3    H180354   3.727   5.251   2.605 -0.0476  0.0595  0.1980
19621TIP3    H280355   3.615   5.149   2.598 -0.0722  0.0184  1.0697
19622TIP3   OH280356   6.385   2.207  10.936  0.5922  0.0313 -0.2962
19622TIP3    H180357   6.374   2.183  10.844  0.3986 -0.7792 -0.0721
19622TIP3    H280358   6.464   2.161  10.963  0.5251  0.0897 -0.0036
19623TIP3   OH280359   6.201   4.931   1.118  0.0739 -0.2949  0.1855
19623TIP3    H180360   6.164   5.019   1.121  0.2587 -0.2526  2.9580
19623TIP3    H280361   6.129   4.874   1.144  0.8366 -0.6049  1.7005
19624TIP3   OH280362   3.794   5.552   4.289  0.4252 -0.8439  0.3808
19624TIP3    H180363   3.765   5.575   4.378  2.9740 -4.1096  2.1711
19624TIP3    H280364   3.850   5.625   4.263 -1.3348  0.7475  0.9063
19625TIP3   OH280365   3.251   0.920  13.657  0.2844 -0.1742  0.4367
19625TIP3    H180366   3.268   0.990  13.720 -1.0734 -1.3511  2.1753
19625TIP3    H280367   3.207   0.852  13.708 -0.7995 -1.2072 -1.7758
19626TIP3   OH280368   1.806   3.375   2.003 -0.3504  0.8395  0.2388
19626TIP3    H180369   1.814   3.466   1.973  1.4933  0.2784 -1.1062
19626TIP3    H280370   1.851   3.373   2.087 -0.4275  1.1860  0.2893
19627TIP3   OH280371   3.486   5.687   2.026  0.7102  0.4886 -0.2342
19627TIP3    H180372   3.480   5.751   1.955  2.3524 -0.3121 -1.1388
19627TIP3    H280373   3.418   5.624   2.008  0.1966  1.0557 -0.2961
19628TIP3   OH280374   2.780   4.374  13.873  0.2524  0.4833 -0.6671
19628TIP3    H180375   2.865   4.332  13.866  1.1434  1.9604  0.9857
19628TIP3    H280376   2.783   4.447  13.811 -1.2256 -1.7118 -3.3972
19629TIP3   OH280377   5.056   1.339   1.521 -0.2884 -0.2431 -0.0946
19629TIP3    H180378   5.110   1.400   1.571 -0.1480  1.1110 -1.8509
19629TIP3    H280379   5.118   1.287   1.470 -0.4457 -1.3710  0.8588
19630TIP3   OH280380   0.791   0.661  16.488  0.2244 -0.5718 -0.4809
19630TIP3    H180381   0.854   0.733  16.485  0.2147 -0.5612 -0.4243
19630TIP3    H280382   0.807   0.618  16.571 -1.4506  0.8929  0.6547
19631TIP3   OH280383   0.048   4.278  10.927 -0.6940  0.1843  0.3596
19631TIP3    H180384   0.015   4.354  10.878  0.6513  0.9217  0.5744
19631TIP3    H280385   0.101   4.316  10.997  0.0911 -0.9625  0.3979
19632TIP3   OH280386   5.781   4.883   0.974 -0.8861 -0.1684  0.1390
19632TIP3    H180387   5.754   4.954   1.032 -2.1199 -0.1821 -0.3980
19632TIP3    H280388   5.739   4.904   0.890  1.1656  0.0574 -0.8555
19633TIP3   OH280389   2.066   5.435  16.916 -0.3546 -0.8730  0.2805
19633TIP3    H180390   2.148   5.477  16.892 -0.5973  0.6636  2.0231
19633TIP3    H280391   2.078   5.342  16.893  0.9914 -0.2584 -1.5870
19634TIP3   OH280392   6.482   4.963  17.153 -0.6773 -0.0417  0.2197
19634TIP3    H180393   6.427   4.892  17.119  0.5772 -0.6633 -0.5238
19634TIP3    H280394   6.489   4.945  17.247  0.3653 -1.4185 -0.1092
19635TIP3   OH280395   1.112   2.151   2.877 -0.3187  0.1623  0.0493
19635TIP3    H180396   1.059   2.073   2.860 -1.2767  1.0405 -0.9900
19635TIP3    H280397   1.065   2.223   2.835  1.9527  0.8766 -1.3980
19636TIP3   OH280398   6.460   1.207  12.588 -0.7363  0.2846 -0.9216
19636TIP3    H180399   6.496   1.293  12.612  1.0597 -0.6784 -0.0402
19636TIP3    H280400   6.472   1.154  12.667 -3.6024 -0.2549 -0.8129
19637TIP3   OH280401   0.818   2.414  13.290  0.3611 -0.6083  0.3725
19637TIP3    H180402   0.841   2.495  13.335  0.3424  0.7774 -2.0584
19637TIP3    H280403   0.863   2.419  13.206 -0.3917 -2.6837 -0.1883
19638TIP3   OH280404   3.231   0.427  11.677 -0.3526 -0.2666  0.7473
19638TIP3    H180405   3.227   0.470  11.762 -1.0119  2.1489 -0.4760
19638TIP3    H280406   3.143   0.436  11.640 -0.2471 -1.8344  0.0404
19639TIP3   OH280407   4.310   3.634  16.228 -0.8009  0.5177  0.2916
19639TIP3    H180408   4.397   3.674  16.232 -0.4795 -0.2096  0.8357
19639TIP3    H280409   4.260   3.690  16.168 -0.1752  1.3468  0.5347
19640TIP3   OH280410   3.776   4.237   4.323  0.0405  0.2560 -0.0663
19640TIP3    H180411   3.687   4.267   4.302 -0.4717 -1.0382  0.1970
19640TIP3    H280412   3.788   4.158   4.271  0.8530  0.1345  0.2949
19641TIP3   OH280413   0.173   6.044  15.842  0.4714 -0.3311  0.5930
19641TIP3    H180414   0.219   6.042  15.926  0.3970  1.7191  0.6955
19641TIP3    H280415   0.194   5.960  15.802  3.0534 -0.0855  1.3233
19642TIP3   OH280416   5.875   3.771  14.767 -0.2445  0.3825  0.0912
19642TIP3    H180417   5.964   3.800  14.751  0.2352  0.2124  2.2512
19642TIP3    H280418   5.868   3.688  14.719  0.5594  0.6939 -0.5776
19643TIP3   OH280419   2.990   5.209  11.720  0.1765  0.4627 -0.2714
19643TIP3    H180420   3.049   5.133  11.720 -0.9590 -0.4692  2.2632
19643TIP3    H280421   2.960   5.216  11.630  0.6393 -1.8590 -0.6324
19644TIP3   OH280422   2.484   3.425   0.593  0.2297 -0.4747  0.2241
19644TIP3    H180423   2.508   3.502   0.542  1.4355 -0.5768  0.6234
19644TIP3    H280424   2.418   3.381   0.540  2.4702 -1.3405 -1.9624
19645TIP3   OH280425   0.719   4.665   2.503  0.4327  0.6579 -0.2907
19645TIP3    H180426   0.734   4.674   2.409 -2.2909  1.2935 -0.7144
19645TIP3    H280427   0.669   4.742   2.527 -1.8896 -1.1642  0.9574
19646TIP3   OH280428   4.974   0.479  12.672 -0.2211 -0.8202  0.0740
19646TIP3    H180429   4.900   0.529  12.709  0.4325 -0.7172  1.2492
19646TIP3    H280430   5.011   0.538  12.606 -0.1172 -0.1777  0.6989
19647TIP3   OH280431   1.736   2.440  11.245  0.2660 -0.1956 -0.0754
19647TIP3    H180432   1.742   2.469  11.336 -0.6851 -0.9802  0.2483
19647TIP3    H280433   1.758   2.347  11.248 -1.3274 -0.6069 -0.3919
19648TIP3   OH280434   6.581   5.433   4.020 -0.1175  0.3934 -0.1903
19648TIP3    H180435   6.616   5.403   4.104  1.9679  0.5378 -0.9802
19648TIP3    H280436   6.590   5.357   3.962 -0.0509  0.7840 -0.7001
19649TIP3   OH280437   6.201   3.328  11.668  0.3200  0.3953 -0.1157
19649TIP3    H180438   6.151   3.399  11.628 -0.4391 -0.1838 -0.1879
19649TIP3    H280439   6.143   3.292  11.736  0.4951 -0.4997 -0.4342
19650TIP3   OH280440   2.873   4.330   2.032 -0.6222 -0.2761  0.3115
19650TIP3    H180441   2.880   4.348   2.126  0.4638 -1.0618  0.3898
19650TIP3    H280442   2.811   4.257   2.027 -1.2548  0.2588  0.3632
19651TIP3   OH280443   5.823   5.860  14.619  0.5813  0.7336  0.1624
19651TIP3    H180444   5.733   5.881  14.595  1.1020  2.0176 -0.7431
19651TIP3    H280445   5.825   5.868  14.714 -0.8836 -1.8577  0.4605
19652TIP3   OH280446   2.353   5.298  16.776 -0.1581  1.2880 -0.4565
19652TIP3    H180447   2.409   5.300  16.698 -0.9405  1.1202 -1.0276
19652TIP3    H280448   2.359   5.387  16.812  0.7438  1.1804 -0.3071
19653TIP3   OH280449   2.890   0.436  11.346  0.2264 -0.1382 -0.5660
19653TIP3    H180450   2.870   0.492  11.271 -1.4936  1.2600  0.8837
19653TIP3    H280451   2.984   0.450  11.361  0.6977 -0.7771 -2.6898
19654TIP3   OH280452   2.713   1.579   2.367  0.3431 -0.8650  0.0319
19654TIP3    H180453   2.685   1.608   2.454  0.1357  1.6434 -0.8260
19654TIP3    H280454   2.799   1.617   2.355 -0.0910 -0.2727 -1.2960
19655TIP3   OH280455   4.428   0.066   1.160 -0.2155  0.4250  0.0043
19655TIP3    H180456   4.432   0.025   1.247  0.4222 -0.9150 -0.6505
19655TIP3    H280457   4.457   0.156   1.175 -0.2062  0.2340  1.2008
19656TIP3   OH280458   1.642   6.573   3.155 -0.0343  0.0125 -0.0145
19656TIP3    H180459   1.554   6.582   3.120  0.3435  2.3495 -0.4619
19656TIP3    H280460   1.654   6.650   3.210  1.4355 -0.7081  0.7132
19657TIP3   OH280461   0.344   5.603   1.262 -0.3718  0.2670  0.0215
19657TIP3    H180462   0.427   5.635   1.225 -0.6429 -1.1145 -1.8409
19657TIP3    H280463   0.315   5.536   1.201 -1.7599 -0.8356  1.8420
19658TIP3   OH280464   1.899   5.586   0.233  0.9267  0.4307 -0.0095
19658TIP3    H180465   1.823   5.583   0.175  0.5531  0.3934  0.4787
19658TIP3    H280466   1.971   5.614   0.177  0.8613 -0.9672 -0.8066
19659TIP3   OH280467   2.157   1.705   4.603  0.4291 -0.2411 -0.1228
19659TIP3    H180468   2.227   1.710   4.667 -0.2716 -1.0670  0.7171
19659TIP3    H280469   2.199   1.727   4.519  1.6127 -0.4470  0.4148
19660TIP3   OH280470   1.164   2.583  14.260  0.0011 -0.5729  0.2396
19660TIP3    H180471   1.228   2.516  14.236 -0.9816 -1.6904  0.7098
19660TIP3    H280472   1.115   2.599  14.179  1.0443  0.4928 -0.1990
19661TIP3   OH280473   4.280   2.938   1.229 -0.7163 -0.7060 -0.3927
19661TIP3    H180474   4.284   3.032   1.209 -1.3239 -0.3985  0.8151
19661TIP3    H280475   4.368   2.916   1.259 -1.3944  0.2760  2.5034
19662TIP3   OH280476   1.220   0.573  16.084 -0.0570 -0.4278 -0.6945
19662TIP3    H180477   1.271   0.498  16.115  0.3423  0.4333  0.8080
19662TIP3    H280478   1.251   0.588  15.995  2.4690  0.1729  0.2432
19663TIP3   OH280479   5.300   2.257  14.064  0.5965  0.6694 -0.1509
19663TIP3    H180480   5.290   2.343  14.106 -0.7621  0.5120 -0.1541
19663TIP3    H280481   5.270   2.271  13.974 -0.0567  0.0731 -0.0215
19664TIP3   OH280482   0.830   2.888  12.467 -0.2666  0.7224 -0.2175
19664TIP3    H180483   0.907   2.842  12.501 -0.3076  1.2211  0.5575
19664TIP3    H280484   0.768   2.819  12.446 -0.3280  0.4200  0.9462
19665TIP3   OH280485   0.783   2.642  10.580 -0.8459 -0.3392 -0.3117
19665TIP3    H180486   0.714   2.700  10.611 -1.6968 -1.8708  0.7460
19665TIP3    H280487   0.864   2.679  10.617 -1.2664  0.6496 -0.3609
19666TIP3   OH280488   5.370   5.684  16.960 -0.0652  0.2931  0.3039
19666TIP3    H180489   5.330   5.597  16.965 -0.9046  0.6712  0.3607
19666TIP3    H280490   5.357   5.712  16.869 -1.6920  1.2232  0.7997
19667TIP3   OH280491   4.076   4.975  14.414 -0.1500  0.1432 -0.2986
19667TIP3    H180492   4.095   4.978  14.321 -0.2824  0.6485 -0.3114
19667TIP3    H280493   4.031   4.892  14.427 -0.5150  0.2701 -0.7546
19668TIP3   OH280494   0.469   6.372   3.177 -0.7224 -0.2741 -0.4086
19668TIP3    H180495   0.393   6.326   3.143 -1.4769  0.3480  0.4121
19668TIP3    H280496   0.540   6.308   3.172 -1.3580 -0.9544 -0.8953
19669TIP3   OH280497   0.262   1.676   3.158  0.3616 -0.2006 -0.3007
19669TIP3    H180498   0.231   1.658   3.247  1.4823  3.1733  0.8419
19669TIP3    H280499   0.351   1.640   3.156  0.5980  0.3526  0.1818
19670TIP3   OH280500   5.451   0.031  14.200 -0.5179  0.3947 -0.9736
19670TIP3    H180501   5.459   0.071  14.114  1.7595 -0.4621 -1.2030
19670TIP3    H280502   5.371  -0.021  14.196 -1.0766  1.3286 -2.1562
19671TIP3   OH280503   5.512   5.892   2.178 -0.0450  0.2997 -0.2906
19671TIP3    H180504   5.538   5.878   2.269  1.9794 -0.2359 -0.9248
19671TIP3    H280505   5.534   5.984   2.160 -1.3558  0.6892  0.0347
19672TIP3   OH280506   3.327   6.744   4.987 -0.4939  0.6306 -0.3451
19672TIP3    H180507   3.412   6.741   4.943 -0.7536 -1.2576 -0.7607
19672TIP3    H280508   3.302   6.836   4.986  2.9289  1.7063  2.4762
19673TIP3   OH280509   0.804   1.105   1.582  0.2860  0.1731 -0.3585
19673TIP3    H180510   0.844   1.018   1.586 -0.3470 -0.1036  0.1778
19673TIP3    H280511   0.710   1.087   1.581  0.1647  0.8141 -1.3683
19674TIP3   OH280512   4.926   6.236  13.663  0.2822 -0.1763  0.4494
19674TIP3    H180513   4.858   6.188  13.711 -1.7921 -0.5156 -2.7056
19674TIP3    H280514   4.991   6.170  13.641 -1.1749 -1.0597 -1.3856
19675TIP3   OH280515   1.916   3.181  16.497  0.0262  0.6160  0.1772
19675TIP3    H180516   1.853   3.248  16.523 -0.0131  0.5783  0.1801
19675TIP3    H280517   1.931   3.198  16.404 -0.7081  0.0449 -0.0565
19676TIP3   OH280518   1.210   6.650   3.235 -0.5054 -0.0585 -0.0939
19676TIP3    H180519   1.293   6.694   3.251 -0.8045  0.1625  0.9003
19676TIP3    H280520   1.148   6.692   3.295 -1.6111  0.5781 -1.6361
19677TIP3   OH280521   1.422   5.596  12.007  0.2301  0.5337  0.0845
19677TIP3    H180522   1.507   5.607  12.051 -0.2536  0.7463  0.9893
19677TIP3    H280523   1.444   5.573  11.917  1.2679 -1.3346  0.7730
19678TIP3   OH280524   1.375   1.407  14.041  0.6340 -0.3301  0.0482
19678TIP3    H180525   1.391   1.501  14.033 -0.5461 -0.0978  0.2327
19678TIP3    H280526   1.457   1.370  14.074  1.3296  0.5373 -0.7057
19679TIP3   OH280527   2.914   3.683  13.212  0.0069 -0.2142  0.6908
19679TIP3    H180528   2.939   3.634  13.291 -0.1379  0.9647  1.4730
19679TIP3    H280529   2.896   3.772  13.243 -1.6014 -0.1247 -0.4222
19680TIP3   OH280530   0.892   5.774   4.055 -0.1201 -0.2310 -0.0019
19680TIP3    H180531   0.893   5.680   4.036 -0.4907 -0.0283 -1.0363
19680TIP3    H280532   0.876   5.815   3.970  0.2192  0.7758  0.4212
19681TIP3   OH280533   4.596   6.671   3.807 -0.6138  0.8081  0.3996
19681TIP3    H180534   4.548   6.642   3.730 -1.8775  2.6524  0.4632
19681TIP3    H280535   4.528   6.681   3.875  0.3540  0.0843  1.4895
19682TIP3   OH280536   0.938   4.631  17.207 -0.1456  0.0586 -0.3565
19682TIP3    H180537   0.927   4.536  17.196 -2.3407  0.3507 -1.0801
19682TIP3    H280538   0.922   4.666  17.119 -3.8684  1.4024  0.7749
19683TIP3   OH280539   0.004   4.751  12.403 -0.2505  0.0509 -0.0678
19683TIP3    H180540   0.064   4.794  12.464  0.3859 -0.0084 -0.6549
19683TIP3    H280541   0.059   4.693  12.351 -1.0730 -1.3155  0.5572
19684TIP3   OH280542   4.690   5.168   6.037 -0.0074  0.4370  0.2512
19684TIP3    H180543   4.657   5.112   6.108 -2.5199 -0.1483 -1.3018
19684TIP3    H280544   4.696   5.255   6.077 -1.8275  0.2029  1.1146
19685TIP3   OH280545   4.534   2.698  17.131 -0.3952  0.5478  0.0446
19685TIP3    H180546   4.596   2.744  17.187  0.6204 -0.9042  0.1372
19685TIP3    H280547   4.569   2.710  17.042 -0.7397  0.9015 -0.0416
19686TIP3   OH280548   4.695   3.332  15.447  0.1222  0.0980 -0.2237
19686TIP3    H180549   4.736   3.392  15.510  0.2645 -0.4727  0.2231
19686TIP3    H280550   4.716   3.370  15.361  0.2513  0.6653  0.0572
19687TIP3   OH280551   6.048   5.374  13.455 -0.3963 -0.4320 -0.0654
19687TIP3    H180552   6.027   5.281  13.449 -0.9157 -0.3908  1.1643
19687TIP3    H280553   6.144   5.376  13.461 -0.4543 -0.9535  1.1546
19688TIP3   OH280554   6.646   5.932   1.633 -0.3775 -0.0487 -0.3050
19688TIP3    H180555   6.581   5.988   1.676  2.1880  1.9839  1.0294
19688TIP3    H280556   6.689   5.989   1.570  2.4324 -0.3789  1.2279
19689TIP3   OH280557   5.577   6.213   5.467 -0.8424 -0.1688  0.3374
19689TIP3    H180558   5.536   6.173   5.390  1.0308 -1.7542  0.1348
19689TIP3    H280559   5.524   6.182   5.541 -0.2599 -1.9187  0.0493
19690TIP3   OH280560   2.331   6.745   5.759 -0.1174 -0.2658 -0.0087
19690TIP3    H180561   2.339   6.744   5.855 -2.0742  0.0591  0.1744
19690TIP3    H280562   2.362   6.831   5.733 -0.0293 -0.1778  0.3879
19691TIP3   OH280563   0.389   5.542   5.475  0.3884  0.5019 -0.2888
19691TIP3    H180564   0.466   5.485   5.473  0.0628  0.0828 -0.8779
19691TIP3    H280565   0.422   5.628   5.449  0.4945  0.1364 -1.3466
19692TIP3   OH280566   1.992   6.599  13.213 -0.2951  0.1270 -0.2571
19692TIP3    H180567   1.973   6.655  13.138  0.9582 -0.4866 -1.0448
19692TIP3    H280568   1.907   6.588  13.256 -0.6938  1.9889 -0.5185
19693TIP3   OH280569   5.144   3.727  11.688  0.4428  0.8133  0.5946
19693TIP3    H180570   5.062   3.759  11.726 -0.1843  0.1352 -0.1715
19693TIP3    H280571   5.194   3.694  11.763 -1.1405 -1.3049  0.7379
19694TIP3   OH280572   1.611   4.845   3.196 -0.1867  0.6687 -1.0413
19694TIP3    H180573   1.572   4.781   3.256 -0.4316  1.6357 -0.1691
19694TIP3    H280574   1.706   4.832   3.207 -0.2363 -0.7728 -2.1929
19695TIP3   OH280575   6.164   3.624   2.026  0.2030 -0.0178  0.6193
19695TIP3    H180576   6.199   3.580   1.949  0.3715  0.8573  0.1833
19695TIP3    H280577   6.199   3.713   2.020  1.8746 -0.4852  2.7829
19696TIP3   OH280578   0.527   5.374  13.857 -0.1919 -0.3819 -1.0048
19696TIP3    H180579   0.459   5.423  13.812 -0.1573  1.1657  0.5995
19696TIP3    H280580   0.506   5.282  13.838 -2.6788  0.0712 -0.5682
19697TIP3   OH280581   3.188   4.838  11.204  0.5418  0.0225  0.1340
19697TIP3    H180582   3.116   4.788  11.166 -1.0935  3.7661 -2.0088
19697TIP3    H280583   3.167   4.842  11.297 -0.2648 -1.7137  0.0460
19698TIP3   OH280584   4.631   0.117  11.486 -0.3306  0.0799  0.2863
19698TIP3    H180585   4.612   0.200  11.529 -0.2282 -0.0927  0.6675
19698TIP3    H280586   4.584   0.121  11.403  1.4103  1.4211 -0.6628
19699TIP3   OH280587   1.141   0.879  15.956  0.2025  0.3143 -0.1257
19699TIP3    H180588   1.164   0.870  16.049  0.1063 -0.5417 -0.1820
19699TIP3    H280589   1.224   0.869  15.909 -0.1045 -1.7441 -0.2684
19700TIP3   OH280590   3.119   5.460   2.398 -0.3857 -0.2485  0.2719
19700TIP3    H180591   3.089   5.526   2.335 -2.9062 -0.8122  0.8511
19700TIP3    H280592   3.085   5.491   2.483  2.7068  0.3514  1.3773
19701TIP3   OH280593   5.276   1.723   0.499  0.0714 -0.0169 -0.1289
19701TIP3    H180594   5.259   1.702   0.408  1.4076  1.3226 -0.7063
19701TIP3    H280595   5.189   1.732   0.538 -0.5080 -1.0530 -1.1365
19702TIP3   OH280596   4.071   0.937  16.500  0.2276 -0.1095  0.1994
19702TIP3    H180597   4.101   0.869  16.440 -0.7163 -1.3739  1.1238
19702TIP3    H280598   3.994   0.975  16.457  0.2755 -0.1827  0.0510
19703TIP3   OH280599   2.299   6.198  11.566 -0.2184 -0.2761  0.0608
19703TIP3    H180600   2.348   6.269  11.608 -0.9581  0.7533 -0.7682
19703TIP3    H280601   2.240   6.167  11.634 -1.0275  1.0095 -0.0302
19704TIP3   OH280602   1.145   0.688   3.067 -0.0419 -0.7951 -0.1371
19704TIP3    H180603   1.093   0.608   3.057 -0.7187 -0.2292 -1.3274
19704TIP3    H280604   1.209   0.683   2.996 -0.0342 -0.3136 -0.1615
19705TIP3   OH280605   0.145   1.408  16.444  0.7466  0.8249  0.4151
19705TIP3    H180606   0.074   1.427  16.505 -0.0816 -0.7727 -0.0164
19705TIP3    H280607   0.103   1.364  16.370  2.3066 -1.2423  0.6921
19706TIP3   OH280608   0.627   4.553  13.126 -0.2816  0.3828 -0.0791
19706TIP3    H180609   0.626   4.494  13.201  1.3243 -0.3695 -0.6246
19706TIP3    H280610   0.592   4.635  13.160 -1.4220 -0.5210  0.9897
19707TIP3   OH280611   4.863   0.288  12.480  0.1702 -0.2002  0.3681
19707TIP3    H180612   4.896   0.304  12.569  0.8927 -1.1334  0.2761
19707TIP3    H280613   4.871   0.193  12.469 -0.3561 -0.1386 -0.5264
19708TIP3   OH280614   6.020   0.102   0.269 -0.3308  0.6049 -0.1023
19708TIP3    H180615   5.967   0.058   0.336  0.6640  0.1899  0.4285
19708TIP3    H280616   6.022   0.194   0.297 -1.4069  0.7718 -0.5486
19709TIP3   OH280617   6.150   5.770   2.635 -0.5521 -0.2866  0.3216
19709TIP3    H180618   6.163   5.753   2.728  1.0976 -0.9782 -0.0185
19709TIP3    H280619   6.065   5.730   2.615 -0.8523 -0.2592  1.4781
19710TIP3   OH280620   4.523   6.035  16.255 -0.0116 -0.0455 -0.2215
19710TIP3    H180621   4.437   6.019  16.216 -0.3022  2.6320 -0.7808
19710TIP3    H280622   4.504   6.080  16.337  0.8637  1.3555 -0.7715
19711TIP3   OH280623   4.732   1.234  13.489  0.3402  0.3514  0.2816
19711TIP3    H180624   4.683   1.244  13.407  1.3717 -1.1668 -0.5403
19711TIP3    H280625   4.724   1.320  13.532 -0.9553  0.8878 -0.9754
19712TIP3   OH280626   0.203   4.368  17.037  0.3570  0.0994 -0.2331
19712TIP3    H180627   0.246   4.311  16.974 -0.7622  0.2359 -1.1402
19712TIP3    H280628   0.136   4.414  16.986  0.2054  1.0557  0.8132
19713TIP3   OH280629   4.914   4.046   5.308  0.5719  0.1504 -0.2278
19713TIP3    H180630   4.848   4.081   5.248 -1.0206  0.0808  1.4427
19713TIP3    H280631   4.902   3.951   5.305 -1.5424  0.2800  2.4039
19714TIP3   OH280632   4.114   1.252   5.920  0.0742  0.8262  0.1278
19714TIP3    H180633   4.072   1.221   5.839 -0.9525  2.4316  0.0378
19714TIP3    H280634   4.207   1.257   5.897 -0.1836  1.1057 -0.9200
19715TIP3   OH280635   1.390   5.869   5.514  0.5201  0.0209  0.1439
19715TIP3    H180636   1.473   5.856   5.469  1.0330  0.5962  0.9095
19715TIP3    H280637   1.411   5.864   5.607  0.3816  3.7405  0.4698
19716TIP3   OH280638   1.536   6.057  11.207 -0.0205 -0.0816 -0.1259
19716TIP3    H180639   1.598   6.057  11.280 -0.6932  0.5737  0.4565
19716TIP3    H280640   1.490   5.974  11.215  0.2082 -0.2034 -0.0617
19717TIP3   OH280641   1.594   1.931   5.007 -0.7170  0.0185 -0.2874
19717TIP3    H180642   1.560   1.851   4.967 -0.6162  0.0157 -0.3683
19717TIP3    H280643   1.622   1.984   4.932  1.6879 -0.9632 -0.1312
19718TIP3   OH280644   3.982   3.341   1.217 -0.3158 -0.4932  0.0484
19718TIP3    H180645   3.946   3.255   1.194 -0.3075 -1.0664  2.1150
19718TIP3    H280646   3.905   3.396   1.233 -0.3244 -1.1528  2.4118
19719TIP3   OH280647   2.530   2.256  11.124  0.3677  0.1780  0.1385
19719TIP3    H180648   2.624   2.265  11.141  0.6287 -0.8055 -0.7077
19719TIP3    H280649   2.515   2.306  11.044  0.7656 -2.1377 -1.4275
19720TIP3   OH280650   4.604   3.680  15.922 -0.3201  0.0103  0.5042
19720TIP3    H180651   4.618   3.652  16.012  0.1460 -1.4772 -0.0022
19720TIP3    H280652   4.514   3.655  15.902 -0.5545  0.7051  0.6790
19721TIP3   OH280653   6.683   5.680  16.607 -0.0998 -0.3727  0.5257
19721TIP3    H180654   6.745   5.732  16.556 -3.2758  0.6057 -2.5318
19721TIP3    H280655   6.662   5.606  16.549 -3.6431  0.6638  0.3997
19722TIP3   OH280656   5.496   0.918   0.128  0.8093  0.0545 -0.2182
19722TIP3    H180657   5.554   0.949   0.197  0.4270  1.0866 -0.3461
19722TIP3    H280658   5.410   0.953   0.152  0.8772  1.3461 -1.7872
19723TIP3   OH280659   3.005   6.607  16.346 -0.0709 -0.0646 -0.2846
19723TIP3    H180660   3.045   6.680  16.299  0.3531  0.4726  0.8913
19723TIP3    H280661   2.911   6.619  16.334 -0.0872  1.7014  1.3877
19724TIP3   OH280662   4.388   2.025  15.286  0.4040  0.1145 -0.2527
19724TIP3    H180663   4.350   2.026  15.374 -0.7499 -0.7734 -0.7249
19724TIP3    H280664   4.327   2.076  15.233  0.0459 -1.0075 -0.9422
19725TIP3   OH280665   4.341   0.296   2.068 -0.0204 -0.1823 -0.0297
19725TIP3    H180666   4.297   0.319   1.986  0.7289 -0.5708 -0.5392
19725TIP3    H280667   4.284   0.332   2.136 -1.2402 -0.8607 -0.6739
19726TIP3   OH280668   6.453   1.302  14.465 -0.2836 -0.0257 -0.0676
19726TIP3    H180669   6.451   1.211  14.494  0.5106  0.1802  0.6443
19726TIP3    H280670   6.544   1.329  14.476 -0.5440  0.9007 -0.1397
19727TIP3   OH280671   0.069   6.061   1.512  0.3691 -0.3632 -0.2370
19727TIP3    H180672   0.142   6.117   1.486  1.0623 -1.1121  0.0575
19727TIP3    H280673   0.074   5.985   1.453 -0.0678 -0.5009 -0.1033
19728TIP3   OH280674   6.629   4.649  14.362 -0.1288  0.1497 -0.3102
19728TIP3    H180675   6.537   4.623  14.369  0.4474 -2.1732 -0.8968
19728TIP3    H280676   6.671   4.609  14.437  0.6063  0.2979 -0.6434
19729TIP3   OH280677   4.722   2.934  13.052  0.1210  0.2263 -0.1034
19729TIP3    H180678   4.708   2.887  13.134  1.9889 -1.4542 -0.7157
19729TIP3    H280679   4.749   2.867  12.990  0.8275  1.8029 -1.5494
19730TIP3   OH280680   4.915   0.895   2.223  0.3280  0.5182 -0.9378
19730TIP3    H180681   4.964   0.839   2.283 -0.2318 -0.5155 -1.4352
19730TIP3    H280682   4.861   0.835   2.171  0.4132  1.4333 -2.1245
19731TIP3   OH280683   2.819   3.810   5.640 -0.7096  0.4311  0.1481
19731TIP3    H180684   2.911   3.785   5.627 -0.9063 -0.2187  0.0387
19731TIP3    H280685   2.815   3.834   5.733 -0.3428  0.8236  0.0672
19732TIP3   OH280686   1.158   0.875  15.012 -0.1334  0.7642 -0.7289
19732TIP3    H180687   1.204   0.923  14.943  0.3102  0.9753 -0.2887
19732TIP3    H280688   1.125   0.944  15.070  0.1229  0.5580 -0.3371
19733TIP3   OH280689   6.512   1.514   3.553  0.1132  0.2071 -0.6969
19733TIP3    H180690   6.448   1.584   3.551 -2.1102 -1.6466  1.7950
19733TIP3    H280691   6.573   1.538   3.623 -0.6507 -0.3362  0.1587
19734TIP3   OH280692   2.683   5.433   0.063  0.1148  0.3920 -0.1387
19734TIP3    H180693   2.747   5.449   0.132  0.1260  0.5337 -0.1829
19734TIP3    H280694   2.729   5.457  -0.018  0.2586 -0.1958 -0.2372
19735TIP3   OH280695   4.031   6.800  13.374  0.2960 -0.0145  0.4153
19735TIP3    H180696   3.939   6.779  13.359  0.0344  0.1278  1.7790
19735TIP3    H280697   4.033   6.895  13.381  0.5755 -0.0064  0.2473
19736TIP3   OH280698   1.741   4.743  13.468 -0.0239  0.6157  0.8041
19736TIP3    H180699   1.786   4.800  13.405  0.9740  0.7243  1.6004
19736TIP3    H280700   1.655   4.784  13.480 -0.1048  0.7700 -0.2362
19737TIP3   OH280701   6.791   2.056  12.263 -0.1561  0.2200  0.1763
19737TIP3    H180702   6.856   2.111  12.307  1.0900 -0.5742 -0.6185
19737TIP3    H280703   6.708   2.102  12.274  0.3922  0.8224  1.9701
19738TIP3   OH280704   6.206   1.661  13.908 -0.5460  0.0368  0.5621
19738TIP3    H180705   6.177   1.582  13.862 -0.9604  0.6865 -0.3013
19738TIP3    H280706   6.207   1.636  14.000  2.3315 -1.9280  0.0560
19739TIP3   OH280707   1.724   4.910  14.786  0.0503  0.4590  0.1974
19739TIP3    H180708   1.663   4.983  14.789  0.5166  0.8812 -0.4579
19739TIP3    H280709   1.698   4.859  14.710 -0.8685 -0.5971  1.1984
19740TIP3   OH280710   1.408   3.765   3.114  0.3204  0.4917 -0.0444
19740TIP3    H180711   1.436   3.690   3.061 -2.3907 -0.7764  0.2664
19740TIP3    H280712   1.452   3.752   3.198  1.2440  0.2179 -0.5570
19741TIP3   OH280713   2.727   3.265  15.264 -0.2931  0.4270 -0.7392
19741TIP3    H180714   2.660   3.202  15.291 -0.9295  1.3533 -0.1080
19741TIP3    H280715   2.787   3.215  15.210 -1.5099 -0.4198 -1.3328
19742TIP3   OH280716   3.885   5.573   1.077 -0.1187  0.5796  0.2318
19742TIP3    H180717   3.833   5.646   1.042  1.3396  1.9889  0.9441
19742TIP3    H280718   3.838   5.547   1.157 -0.2899  1.2027  0.3419
19743TIP3   OH280719   3.138   2.636   2.230  1.0158 -0.4374 -0.3288
19743TIP3    H180720   3.113   2.678   2.148  0.3123 -0.1114  0.0388
19743TIP3    H280721   3.165   2.548   2.205 -0.2241 -0.6969 -0.7904
19744TIP3   OH280722   1.088   0.614   1.730  0.7598 -0.1886  0.0657
19744TIP3    H180723   1.133   0.671   1.793  2.1298 -0.7612 -0.3591
19744TIP3    H280724   1.121   0.643   1.645  1.9898 -2.0242 -0.1148
19745TIP3   OH280725   5.312   0.026   5.673  0.1765 -0.2671  0.6573
19745TIP3    H180726   5.273   0.022   5.585 -0.0227 -0.6476  0.7628
19745TIP3    H280727   5.406   0.025   5.657  0.1443 -0.0798  0.4366
19746TIP3   OH280728   1.585   3.951   4.690  0.1873 -0.2326 -0.1671
19746TIP3    H180729   1.538   3.987   4.766 -2.2174  0.6607 -2.0351
19746TIP3    H280730   1.606   4.027   4.636  2.6164 -0.7753 -0.0739
19747TIP3   OH280731   2.861   1.556  13.371 -0.2407 -0.0347  0.0701
19747TIP3    H180732   2.778   1.519  13.342  0.3695 -1.5751  0.2418
19747TIP3    H280733   2.893   1.606  13.296  0.4528 -2.4855 -1.2859
19748TIP3   OH280734   6.548   0.372  15.763 -0.1956 -0.3553 -0.2853
19748TIP3    H180735   6.546   0.317  15.841  2.5586 -0.2332 -0.0604
19748TIP3    H280736   6.464   0.416  15.762 -0.2636 -0.3286  2.6572
19749TIP3   OH280737   2.486   2.582   1.012 -0.0885 -0.1700  0.1146
19749TIP3    H180738   2.513   2.508   0.957 -0.9226 -1.9645  2.0434
19749TIP3    H280739   2.504   2.659   0.958  0.4751 -1.7761 -2.1028
19750TIP3   OH280740   3.516   1.176   1.253 -0.4524 -0.0809 -0.4620
19750TIP3    H180741   3.469   1.127   1.185 -0.9551 -0.4004  0.1080
19750TIP3    H280742   3.460   1.170   1.330 -0.8205  1.9361 -0.5513
19751TIP3   OH280743   4.252   1.904   1.994  0.0758  0.2341 -0.2607
19751TIP3    H180744   4.185   1.838   2.012  0.2143 -0.5298 -2.4631
19751TIP3    H280745   4.204   1.978   1.957  0.4545 -0.3555 -1.9412
19752TIP3   OH280746   6.480   3.265  14.116 -0.3708  0.2737 -0.3914
19752TIP3    H180747   6.419   3.275  14.043 -1.3549  0.6351  0.4626
19752TIP3    H280748   6.433   3.301  14.191  0.7273  0.1407  0.3724
19753TIP3   OH280749   5.532   5.467  11.585 -0.1365 -0.5074 -0.2267
19753TIP3    H180750   5.556   5.476  11.492  1.5477 -0.4264  0.1974
19753TIP3    H280751   5.437   5.459  11.584 -0.2728  0.8811 -1.8753
19754TIP3   OH280752   0.148   1.657  11.201 -0.4196 -0.4921  0.6984
19754TIP3    H180753   0.145   1.605  11.121 -0.3045  0.8472 -0.1659
19754TIP3    H280754   0.200   1.604  11.261  1.9228 -0.2065 -1.0283
19755TIP3   OH280755   6.107   5.890  15.207  0.4460 -0.0259  0.1643
19755TIP3    H180756   6.054   5.967  15.185  0.5106  0.0383  0.2313
19755TIP3    H280757   6.171   5.884  15.136 -0.2297 -0.6423 -0.3980
19756TIP3   OH280758   5.886   6.625   6.902 -0.2120 -0.1358  0.7303
19756TIP3    H180759   5.856   6.544   6.941 -0.5928 -0.5723 -0.4470
19756TIP3    H280760   5.869   6.615   6.808  1.3889  0.5606  0.3374
19757TIP3   OH280761   2.193   2.855   1.626  0.0523  0.6651  0.7576
19757TIP3    H180762   2.175   2.777   1.573  1.1845  0.8477  0.0918
19757TIP3    H280763   2.175   2.928   1.566 -1.2736  0.9401  1.4617
19758TIP3   OH280764   6.231   4.639  11.358 -0.1678 -0.0083 -0.5677
19758TIP3    H180765   6.211   4.711  11.297  1.5410  0.7952 -0.1887
19758TIP3    H280766   6.281   4.680  11.428  0.6928 -1.5397 -0.2681
19759TIP3   OH280767   0.916   1.790   0.914 -0.3664 -0.7040  0.4676
19759TIP3    H180768   0.903   1.812   0.822  1.3687 -0.8910  0.1665
19759TIP3    H280769   0.828   1.771   0.947 -1.1598  0.6917 -0.8035
19760TIP3   OH280770   2.050   5.864   0.186 -0.4970  0.6946 -0.2535
19760TIP3    H180771   2.080   5.933   0.126 -0.5731  1.4447  0.5697
19760TIP3    H280772   2.078   5.783   0.144  0.9272  1.2951 -0.4790
19761TIP3   OH280773   1.358   4.372  15.069 -0.3440 -0.3873  0.2490
19761TIP3    H180774   1.391   4.325  15.145 -0.2932 -0.1891  0.3509
19761TIP3    H280775   1.378   4.464  15.087 -1.4594 -0.2019  0.5624
19762TIP3   OH280776   1.201   2.485  14.519  0.1408  0.3366  0.1706
19762TIP3    H180777   1.273   2.509  14.577  0.6521 -0.8908  0.0657
19762TIP3    H280778   1.236   2.495  14.430  1.2487 -3.1842  0.1126
19763TIP3   OH280779   2.047   2.977   2.770  0.0369  0.1440 -0.4865
19763TIP3    H180780   2.075   2.902   2.822 -0.0120  1.0902  0.9373
19763TIP3    H280781   2.041   2.944   2.681  0.9439 -1.2963 -0.0224
19764TIP3   OH280782   3.218   4.373  14.173 -0.3706  0.2012 -0.2047
19764TIP3    H180783   3.140   4.428  14.177 -0.8584 -0.5263  0.4314
19764TIP3    H280784   3.246   4.377  14.081 -0.8029  0.9379 -0.3086
19765TIP3   OH280785   3.471   0.549   1.494 -0.1905 -0.6679 -0.2240
19765TIP3    H180786   3.415   0.607   1.545 -0.7816 -2.5499  1.3250
19765TIP3    H280787   3.411   0.488   1.452  0.5182 -1.0647 -0.6763
19766TIP3   OH280788   3.085   0.338  15.004  0.1414 -0.3712  0.0205
19766TIP3    H180789   3.164   0.389  15.024 -0.1487 -0.1738  0.6711
19766TIP3    H280790   3.118   0.257  14.964  0.5990  0.3745 -1.1391
19767TIP3   OH280791   1.484   2.366  12.216  0.0411 -0.3644  0.3122
19767TIP3    H180792   1.536   2.286  12.224  1.0493  0.3791  1.4307
19767TIP3    H280793   1.536   2.433  12.261 -0.3709  1.1193 -1.3530
19768TIP3   OH280794   3.579   6.460  15.914 -0.0205 -0.4058 -0.2781
19768TIP3    H180795   3.501   6.514  15.914 -0.9943 -1.7468  2.0985
19768TIP3    H280796   3.551   6.376  15.876  0.2248 -0.9285  0.6820
19769TIP3   OH280797   1.400   6.747  12.344  0.6583 -0.0083  0.0541
19769TIP3    H180798   1.352   6.673  12.306  0.4144 -0.7905  1.8062
19769TIP3    H280799   1.488   6.739  12.308  0.4020 -0.6493 -0.4470
19770TIP3   OH280800   0.440   2.952  16.291 -0.0333 -0.5925  0.2026
19770TIP3    H180801   0.525   2.969  16.249 -1.5164  1.5028 -2.1407
19770TIP3    H280802   0.426   2.858  16.280  1.8399 -0.9047  0.3377
19771TIP3   OH280803   6.760   3.413  10.371 -0.0832  0.4789 -0.2364
19771TIP3    H180804   6.675   3.370  10.364  0.5379 -0.6556 -1.0469
19771TIP3    H280805   6.821   3.342  10.391  0.8033  1.1433 -0.5293
19772TIP3   OH280806   6.173   0.824  12.282 -0.4752 -0.1768  0.3681
19772TIP3    H180807   6.225   0.761  12.231 -0.5678 -0.5368  0.7203
19772TIP3    H280808   6.224   0.839  12.361 -0.7784 -0.3304  0.5941
19773TIP3   OH280809   0.433   2.136   1.600  0.3242  0.0379 -0.1462
19773TIP3    H180810   0.367   2.196   1.566  2.1084  0.6388 -2.6965
19773TIP3    H280811   0.476   2.184   1.671 -1.1379  0.0903  0.7228
19774TIP3   OH280812   4.964   1.933  15.181  0.1337 -0.1401 -0.1168
19774TIP3    H180813   5.040   1.953  15.235  0.5656 -1.5646 -0.1813
19774TIP3    H280814   4.888   1.954  15.236  0.5570  1.0489  0.0304
19775TIP3   OH280815   0.577   4.955   2.004  0.2422 -0.1497 -0.1842
19775TIP3    H180816   0.653   4.990   1.957  0.1346 -0.2429 -0.4258
19775TIP3    H280817   0.580   4.998   2.089  1.8470 -1.7593  0.6345
19776TIP3   OH280818   2.113   5.202  11.366  0.1597  0.0321  0.0831
19776TIP3    H180819   2.119   5.237  11.277 -2.1695  0.9322  0.2501
19776TIP3    H280820   2.068   5.118  11.356 -0.2120  0.1912  0.4277
19777TIP3   OH280821   0.127   0.810  14.512  0.3666  0.2677 -0.2725
19777TIP3    H180822   0.128   0.823  14.418  1.3359  0.3036 -0.2560
19777TIP3    H280823   0.189   0.739  14.528 -1.3839 -1.2357  0.1234
19778TIP3   OH280824   5.482   3.402   0.180 -0.6784  0.3518  0.1661
19778TIP3    H180825   5.423   3.438   0.112 -0.8086 -1.3609 -0.6592
19778TIP3    H280826   5.485   3.309   0.161 -0.1316 -0.0376  2.1177
19779TIP3   OH280827   5.639   5.468   4.021 -0.1607 -0.3551  0.1741
19779TIP3    H180828   5.647   5.538   4.086 -0.4928  0.0074 -0.1740
19779TIP3    H280829   5.727   5.430   4.015 -0.4049 -1.2294  1.7689
19780TIP3   OH280830   2.676   2.807   4.897  0.2327 -0.4421  0.1159
19780TIP3    H180831   2.637   2.856   4.969  2.0743  0.9118  0.2252
19780TIP3    H280832   2.635   2.844   4.818 -1.8136 -1.9550  0.4320
19781TIP3   OH280833   4.108   5.588  14.194  0.0447  0.1277 -0.0193
19781TIP3    H180834   4.092   5.502  14.233  0.7357  0.8893  2.0285
19781TIP3    H280835   4.195   5.580  14.154 -0.1952 -0.3346 -0.4524
19782TIP3   OH280836   3.485   6.608   0.206  0.4251 -0.2202  0.0001
19782TIP3    H180837   3.518   6.542   0.145  0.9811 -1.5213  1.6915
19782TIP3    H280838   3.537   6.596   0.285 -2.5665 -0.7953  1.9381
19783TIP3   OH280839   0.757   0.683  15.809  0.0761 -0.3547 -0.1636
19783TIP3    H180840   0.841   0.637  15.804  0.0205 -0.3793 -1.0987
19783TIP3    H280841   0.771   0.765  15.762 -0.8196 -1.0149 -1.6638
19784TIP3   OH280842   1.520   1.860   1.049  0.0479  0.2126 -0.1444
19784TIP3    H180843   1.449   1.843   0.988  1.5427 -1.5922 -1.4385
19784TIP3    H280844   1.547   1.950   1.030 -1.6598  0.8149  0.1640
19785TIP3   OH280845   4.108   1.807   4.258 -0.2891 -0.0731 -0.1416
19785TIP3    H180846   4.029   1.852   4.289  0.4907  0.8093  0.6039
19785TIP3    H280847   4.167   1.878   4.231  0.7232 -0.6682  0.4889
19786TIP3   OH280848   5.424   6.318  14.598  0.3822  0.1506  0.4013
19786TIP3    H180849   5.514   6.345  14.578 -0.8704  1.7990 -3.4774
19786TIP3    H280850   5.374   6.399  14.597 -1.3538 -0.8669  1.6313
19787TIP3   OH280851   6.757   5.371   0.753  0.5784 -0.0403  0.3531
19787TIP3    H180852   6.790   5.281   0.764  0.9432  0.0266 -0.1942
19787TIP3    H280853   6.663   5.361   0.743  0.4346 -0.2470  1.7528
19788TIP3   OH280854   0.364   4.348  10.644  0.4303  0.0457 -0.4850
19788TIP3    H180855   0.417   4.269  10.635  0.2405 -0.1467  0.0432
19788TIP3    H280856   0.276   4.320  10.619  0.3292  0.0408 -0.1340
19789TIP3   OH280857   3.953   6.814  11.858 -0.1645  0.2959  0.2125
19789TIP3    H180858   3.925   6.894  11.813  0.3173  1.7244  2.3651
19789TIP3    H280859   3.892   6.805  11.931 -0.1615 -1.2709  0.0380
19790TIP3   OH280860   5.702   1.251  13.992  1.0110  0.4256  0.3700
19790TIP3    H180861   5.609   1.270  13.982  1.2678  1.6558  0.2317
19790TIP3    H280862   5.705   1.168  14.039 -0.1735 -0.7013 -1.4660
19791TIP3   OH280863   0.251   5.250  12.509 -0.3883  0.1356 -0.1496
19791TIP3    H180864   0.296   5.323  12.551  0.6789 -1.1010  0.8988
19791TIP3    H280865   0.178   5.230  12.568  1.1494 -1.6443  1.2201
19792TIP3   OH280866   3.755   6.209   5.771 -0.4366  0.2215 -0.6789
19792TIP3    H180867   3.671   6.181   5.807 -0.5459  0.8008 -0.4682
19792TIP3    H280868   3.754   6.177   5.681 -0.5284 -0.4900 -0.4232
19793TIP3   OH280869   0.385   5.252  16.327 -0.0024 -0.0858  0.5249
19793TIP3    H180870   0.314   5.219  16.271  0.7644 -1.2732  0.2388
19793TIP3    H280871   0.357   5.233  16.416  1.0343 -2.8094  0.3156
19794TIP3   OH280872   1.832   0.605   2.431 -0.2657 -0.1195  0.4410
19794TIP3    H180873   1.853   0.670   2.499 -0.6246 -0.2362  0.6665
19794TIP3    H280874   1.862   0.522   2.468 -0.7096 -0.2222  0.5725
19795TIP3   OH280875   6.696   5.316  13.424  0.4149 -0.1596 -0.0017
19795TIP3    H180876   6.765   5.317  13.357  0.3454  3.0450 -0.0701
19795TIP3    H280877   6.618   5.287  13.377  0.5355  1.3594 -1.1735
19796TIP3   OH280878   1.481   1.169  11.415 -0.3449 -0.0402  0.2131
19796TIP3    H180879   1.440   1.237  11.469  0.8449  1.3904 -0.6369
19796TIP3    H280880   1.572   1.198  11.405 -0.0764 -1.2561 -0.9747
19797TIP3   OH280881   4.335   3.188  15.708  0.1850 -0.1489  0.3964
19797TIP3    H180882   4.373   3.185  15.621 -1.6983  2.7890 -0.5971
19797TIP3    H280883   4.404   3.224  15.764  0.0817  1.8424 -0.7089
19798TIP3   OH280884   4.561   0.436  15.216 -0.1916  0.0736  0.1434
19798TIP3    H180885   4.552   0.364  15.154  0.8614 -0.2951  0.4003
19798TIP3    H280886   4.515   0.407  15.294  0.6442 -0.5355  0.4183
19799TIP3   OH280887   6.433   5.623  13.080 -0.0844  0.1230 -0.5000
19799TIP3    H180888   6.502   5.626  13.146  0.3720  2.0825 -1.0660
19799TIP3    H280889   6.383   5.703  13.093 -0.0292  0.5059 -2.4993
19800TIP3   OH280890   1.934   1.869   4.685  0.5082  0.8278  0.0839
19800TIP3    H180891   2.014   1.827   4.654 -1.0373 -1.4099 -0.9546
19800TIP3    H280892   1.915   1.826   4.768  0.6338  1.7017  0.5718
19801TIP3   OH280893   3.862   2.300   3.911  0.2958  0.5237 -0.5313
19801TIP3    H180894   3.938   2.336   3.864  0.1784  0.2102 -0.9691
19801TIP3    H280895   3.791   2.362   3.892  0.7434  1.4907  0.9045
19802TIP3   OH280896   3.991   1.643  16.653  0.5080 -0.3676  0.4819
19802TIP3    H180897   4.040   1.628  16.572 -1.8215 -2.5631 -0.5830
19802TIP3    H280898   3.921   1.703  16.627  0.1809 -0.5028  1.0572
19803TIP3   OH280899   6.216   1.991   4.812  0.0391 -0.1070 -0.5439
19803TIP3    H180900   6.249   1.912   4.855 -0.2366  0.7055  1.1989
19803TIP3    H280901   6.234   2.062   4.874 -0.7457  1.0374 -1.5963
19804TIP3   OH280902   1.687   0.801   2.267  0.3898  0.4301  0.1130
19804TIP3    H180903   1.758   0.744   2.297 -0.9024 -0.7307  1.0275
19804TIP3    H280904   1.684   0.789   2.172  0.8120 -0.2063  0.1805
19805TIP3   OH280905   1.138   4.010  11.996  0.4713 -0.3243 -0.3287
19805TIP3    H180906   1.149   4.095  11.954 -0.9175 -0.0188 -0.0849
19805TIP3    H280907   1.180   3.948  11.935  1.2348  0.4834 -0.6402
19806TIP3   OH280908   2.508   6.020  14.252  0.3637 -0.2590  0.8304
19806TIP3    H180909   2.449   5.965  14.303 -1.8511  0.4548 -0.8804
19806TIP3    H280910   2.465   6.028  14.167  2.2942  1.3803 -0.0146
19807TIP3   OH280911   5.389   0.428   4.462  0.1822 -0.6077 -0.5286
19807TIP3    H180912   5.483   0.444   4.469  0.0215  0.1177  0.0390
19807TIP3    H280913   5.353   0.461   4.544 -0.7262  0.2552 -1.2631
19808TIP3   OH280914   1.617   4.242   4.923 -0.0879  0.2565  0.2197
19808TIP3    H180915   1.665   4.277   4.848 -0.4691 -1.4602 -0.8521
19808TIP3    H280916   1.671   4.169   4.954  0.4226  1.3815  2.0820
19809TIP3   OH280917   5.053   4.875   3.613 -0.0425 -0.0315  0.5712
19809TIP3    H180918   5.136   4.900   3.653  0.2508  1.5928 -0.9731
19809TIP3    H280919   4.988   4.931   3.655  0.4408  2.5765 -2.0210
19810TIP3   OH280920   1.339   2.567  12.077  0.2851 -0.1974  0.9365
19810TIP3    H180921   1.391   2.638  12.040 -1.3499  0.1984 -0.6740
19810TIP3    H280922   1.403   2.509  12.119  1.9165  0.7069 -0.2750
19811TIP3   OH280923   4.242   1.934   1.044 -0.1405  0.3588 -0.4678
19811TIP3    H180924   4.216   1.858   1.095  0.9878  0.1647 -0.1697
19811TIP3    H280925   4.311   1.976   1.096 -0.7776  1.5981 -0.6119
19812TIP3   OH280926   3.853   5.656  15.349 -0.2113 -0.1358  0.2197
19812TIP3    H180927   3.939   5.659  15.306 -1.2690 -2.0310 -2.1748
19812TIP3    H280928   3.856   5.579  15.405 -0.3112 -0.1234  0.2435
19813TIP3   OH280929   6.713   6.749  14.837 -0.1954 -0.3195 -0.0082
19813TIP3    H180930   6.752   6.824  14.882  0.8486 -1.0105  0.2428
19813TIP3    H280931   6.620   6.754  14.859 -0.1404  0.9172 -0.0109
19814TIP3   OH280932   1.681   6.680   1.589  0.5149 -0.5426  0.5379
19814TIP3    H180933   1.598   6.724   1.571  1.6813  0.3803 -2.9548
19814TIP3    H280934   1.735   6.746   1.633  0.8127  0.2022 -0.9285
19815TIP3   OH280935   5.689   4.860  11.923  0.0822 -0.1872 -0.1593
19815TIP3    H180936   5.655   4.946  11.948 -0.7810 -0.3056 -0.8919
19815TIP3    H280937   5.671   4.804  11.999  1.2842  0.4343  0.5984
19816TIP3   OH280938   2.457   1.867  13.109  0.1600 -0.3142  0.0879
19816TIP3    H180939   2.505   1.949  13.113 -0.8789  0.3146 -0.0766
19816TIP3    H280940   2.505   1.808  13.167  0.3848  0.6866  0.9350
19817TIP3   OH280941   3.452   2.706  13.577  0.0551 -0.0410 -0.9095
19817TIP3    H180942   3.469   2.770  13.508  1.0406 -0.0392 -0.6740
19817TIP3    H280943   3.535   2.697  13.622 -0.8754  0.8554  1.0460
19818TIP3   OH280944   5.806   5.126  14.547 -0.0007  0.2231 -0.1031
19818TIP3    H180945   5.806   5.221  14.549 -1.1826  0.2357 -0.2154
19818TIP3    H280946   5.851   5.103  14.466  0.6105  0.6733  0.1075
19819TIP3   OH280947   0.072   0.966   2.202 -0.3218  0.2701 -0.4436
19819TIP3    H180948   0.165   0.965   2.183  0.0375  0.4357  1.2376
19819TIP3    H280949   0.043   0.876   2.185  0.3150  0.0032 -0.1220
19820TIP3   OH280950   5.759   1.494   4.294 -0.3776  0.1929  0.1786
19820TIP3    H180951   5.817   1.521   4.223  0.4573 -0.9946  0.3874
19820TIP3    H280952   5.762   1.565   4.357 -1.5092  1.4866 -1.1806
19821TIP3   OH280953   4.845   3.507   5.029 -0.0222 -0.3325  0.0057
19821TIP3    H180954   4.934   3.493   4.999 -0.0944  0.0420 -0.3824
19821TIP3    H280955   4.838   3.453   5.108  0.9006  0.5035  0.6758
19822TIP3   OH280956   1.474   4.318  17.225 -0.0866 -0.2325 -0.0415
19822TIP3    H180957   1.469   4.285  17.315 -0.9409 -0.4260 -0.1529
19822TIP3    H280958   1.398   4.279  17.181 -1.3832  2.2337 -0.0616
19823TIP3   OH280959   5.470   4.706   6.150 -0.3104  0.4771  0.6125
19823TIP3    H180960   5.380   4.702   6.118  0.5578 -0.2463 -1.8052
19823TIP3    H280961   5.480   4.626   6.201 -0.4165 -0.4747 -0.8341
19824TIP3   OH280962   3.614   2.598   0.333 -0.7705  0.1559 -0.3183
19824TIP3    H180963   3.603   2.506   0.312 -1.2965 -0.1363  1.1422
19824TIP3    H280964   3.699   2.622   0.297  0.0645 -1.3019  0.6674
19825TIP3   OH280965   1.153   0.229   3.736  0.4560  0.3477  0.4355
19825TIP3    H180966   1.176   0.145   3.776  0.3975 -0.2419 -0.7451
19825TIP3    H280967   1.176   0.218   3.644 -1.8848  0.7471 -0.2143
19826TIP3   OH280968   4.439   5.603  11.946 -0.5375  0.0409 -0.3486
19826TIP3    H180969   4.470   5.663  12.013 -1.6072 -1.1676  1.2642
19826TIP3    H280970   4.516   5.550  11.923  0.0195  0.9797 -0.6613
19827TIP3   OH280971   5.498   2.885   1.498 -0.3418  0.0835  0.7795
19827TIP3    H180972   5.424   2.832   1.525 -1.6572  0.4376 -1.9213
19827TIP3    H280973   5.479   2.973   1.532 -0.7469 -0.0262  0.8341
19828TIP3   OH280974   5.566   0.536   3.410 -0.7356  0.1755  0.2366
19828TIP3    H180975   5.638   0.544   3.472 -1.3689 -2.2255  1.3619
19828TIP3    H280976   5.496   0.590   3.447 -0.7144 -0.3248  1.0272
19829TIP3   OH280977   5.186   3.833  16.168  0.0732 -0.8231 -0.1307
19829TIP3    H180978   5.158   3.897  16.103  0.5199  1.5217  1.9122
19829TIP3    H280979   5.179   3.879  16.252  1.1626 -3.2014  1.3196
19830TIP3   OH280980   3.950   4.330  17.118  0.2023  0.7498  0.2411
19830TIP3    H180981   3.954   4.425  17.127  2.0506  0.5855  1.2702
19830TIP3    H280982   3.856   4.310  17.115 -0.2274  2.4197  1.9385
19831TIP3   OH280983   5.809   4.024   5.482  0.8098 -0.0251 -0.0553
19831TIP3    H180984   5.856   3.956   5.531  2.2163 -0.2886 -1.6964
19831TIP3    H280985   5.724   3.985   5.463  0.6020 -0.2729  1.3671
19832TIP3   OH280986   3.908   0.681  13.572 -0.6624 -0.6947  0.8433
19832TIP3    H180987   3.868   0.599  13.600 -1.9576 -0.0483  0.9220
19832TIP3    H280988   3.899   0.681  13.477 -0.4763 -0.7374  0.8258
19833TIP3   OH280989   0.543   0.720   5.676 -0.1962 -0.0493 -0.0555
19833TIP3    H180990   0.606   0.738   5.746  0.1231  0.2771 -0.4261
19833TIP3    H280991   0.519   0.806   5.642 -1.2767 -0.1333  0.4600
19834TIP3   OH280992   5.735   3.482  12.861  0.4759  0.2236  0.3450
19834TIP3    H180993   5.808   3.525  12.817  0.4168 -0.2159 -0.1866
19834TIP3    H280994   5.775   3.409  12.908  0.4138  0.1541  0.2901
19835TIP3   OH280995   2.420   0.150   5.063  1.1645 -0.0668  0.0177
19835TIP3    H180996   2.396   0.069   5.017 -1.0831  0.3113  0.4765
19835TIP3    H280997   2.515   0.148   5.066  1.1371 -2.8186  0.2168
19836TIP3   OH280998   1.547   6.345  13.320  0.2516  0.1284  0.3035
19836TIP3    H180999   1.515   6.435  13.314  1.7959  0.5883 -1.4933
19836TIP3    H281000   1.555   6.317  13.229  0.7486 -1.4768  0.8353
19837TIP3   OH281001   1.747   6.179   0.187  0.3198  0.2458 -0.2608
19837TIP3    H181002   1.818   6.125   0.152  1.6188  0.3328  2.1604
19837TIP3    H281003   1.782   6.268   0.185 -0.5249  0.5690 -1.0049
19838TIP3   OH281004   5.539   3.676  14.946 -0.1462 -0.2551 -0.2442
19838TIP3    H181005   5.581   3.601  14.986  0.0002  0.2041  0.4687
19838TIP3    H281006   5.592   3.751  14.973 -0.5426  0.1575 -0.5896
19839TIP3   OH281007   2.548   1.811   1.254  0.5535 -0.0958  0.5351
19839TIP3    H181008   2.627   1.842   1.300  1.2205 -1.1038  0.0886
19839TIP3    H281009   2.581   1.769   1.175 -0.3673 -1.3392  0.7927
19840TIP3   OH281010   0.377   0.303   3.045  0.4195  0.1547 -0.3946
19840TIP3    H181011   0.349   0.226   3.094  0.3148  1.0759  1.0357
19840TIP3    H281012   0.334   0.296   2.960  0.2676 -1.2599 -0.2033
19841TIP3   OH281013   4.262   1.621  13.188 -0.0732  0.6786  0.2372
19841TIP3    H181014   4.285   1.700  13.141 -0.5227 -1.1657 -3.2383
19841TIP3    H281015   4.179   1.640  13.231  0.2986  2.3490  0.2222
19842TIP3   OH281016   4.523   5.667  14.738 -0.2320 -0.2743 -0.0177
19842TIP3    H181017   4.536   5.733  14.806 -2.7323 -2.1123  2.3792
19842TIP3    H281018   4.460   5.705  14.678  0.1615  0.4482  0.0282
19843TIP3   OH281019   5.641   0.071  15.590 -0.1482  0.0425  0.2244
19843TIP3    H181020   5.704   0.029  15.530  1.4190 -0.5070  2.1925
19843TIP3    H281021   5.685   0.151  15.618 -0.0779 -0.6041  2.0207
19844TIP3   OH281022   3.017   6.069  14.243  0.0780 -0.2425  0.0330
19844TIP3    H181023   3.051   6.069  14.332  0.6029  3.0564 -0.0875
19844TIP3    H281024   3.096   6.076  14.188 -0.3323 -0.7815 -0.6361
19845TIP3   OH281025   0.701   3.516  15.460  0.0853  0.3997 -0.8829
19845TIP3    H181026   0.718   3.449  15.393 -1.4887 -1.7462  0.7747
19845TIP3    H281027   0.787   3.550  15.483  1.0153 -1.7984 -1.0307
19846TIP3   OH281028   5.083   3.537   2.432  0.5681  0.2749 -0.0842
19846TIP3    H181029   5.012   3.484   2.469  1.1883 -0.1492  0.5166
19846TIP3    H281030   5.050   3.566   2.347  0.7087 -2.1519 -1.0079
19847TIP3   OH281031   4.550   6.394   4.616  0.5158 -0.2441  0.3775
19847TIP3    H181032   4.562   6.476   4.568  1.8449 -0.6572 -0.0246
19847TIP3    H281033   4.637   6.374   4.650  0.3046 -1.7477  0.0613
19848TIP3   OH281034   4.762   0.890  14.924  0.4701 -0.2918  0.1557
19848TIP3    H181035   4.763   0.896  14.828  0.7118  1.8061  0.2508
19848TIP3    H281036   4.783   0.799  14.943 -0.6585 -0.9972 -1.8158
19849TIP3   OH281037   4.659   4.100  13.669 -0.2325  0.6191  0.8700
19849TIP3    H181038   4.594   4.092  13.599 -0.0599  0.2244  0.7532
19849TIP3    H281039   4.680   4.010  13.692 -2.3878  0.6900  3.4064
19850TIP3   OH281040   2.050   4.061   2.130 -0.2177 -0.0539 -0.1262
19850TIP3    H181041   2.075   4.080   2.039 -1.0563 -1.1020 -0.5990
19850TIP3    H281042   2.069   3.968   2.141 -0.7486 -0.0861  0.5573
19851TIP3   OH281043   5.315   2.736   0.222  0.3694  0.2200  0.4270
19851TIP3    H181044   5.224   2.766   0.223 -0.2361 -1.3079 -2.6974
19851TIP3    H281045   5.311   2.645   0.252  1.1914  0.7908  2.3622
19852TIP3   OH281046   0.999   1.085  15.820 -0.4582 -0.2333 -0.1623
19852TIP3    H181047   1.030   1.171  15.849 -0.3104 -0.4246  0.2494
19852TIP3    H281048   1.018   1.027  15.893  0.9391 -0.9537 -1.0714
19853TIP3   OH281049   0.765   4.890  11.005 -0.4014  0.4451  0.3737
19853TIP3    H181050   0.729   4.803  11.024 -0.8196  0.1044 -1.7962
19853TIP3    H281051   0.752   4.901  10.911  1.9243  1.8238  0.1649
19854TIP3   OH281052   1.481   3.397   4.529  0.4358  0.9189  0.1759
19854TIP3    H181053   1.488   3.333   4.457 -0.3961  0.2297  0.6975
19854TIP3    H281054   1.463   3.480   4.485  2.4408  1.0038 -0.5815
19855TIP3   OH281055   1.754   3.133   4.167 -0.7556 -0.1788 -0.0093
19855TIP3    H181056   1.736   3.205   4.107  1.4318 -0.3270 -0.8737
19855TIP3    H281057   1.692   3.065   4.141 -1.2196  0.5104 -0.7453
19856TIP3   OH281058   0.272   4.851   4.492  0.4375 -0.2748 -0.0544
19856TIP3    H181059   0.264   4.802   4.575 -1.0179  0.2074  0.1083
19856TIP3    H281060   0.300   4.785   4.429 -1.2100 -1.2884  0.2315
19857TIP3   OH281061   5.695   6.465  13.113 -0.0865 -0.1871 -0.0355
19857TIP3    H181062   5.742   6.400  13.061  1.2620 -0.7337  1.8163
19857TIP3    H281063   5.759   6.494  13.179 -0.6497  3.0026 -0.7844
19858TIP3   OH281064   1.957   5.565   2.068  0.1900  0.0607  0.0288
19858TIP3    H181065   2.047   5.533   2.076  0.7576  1.9743  1.8541
19858TIP3    H281066   1.905   5.502   2.118  0.4265 -1.1961 -1.2427
19859TIP3   OH281067   1.822   4.289   1.189 -0.8446  0.4832  0.1187
19859TIP3    H181068   1.756   4.324   1.129  0.6874 -0.4167 -2.1661
19859TIP3    H281069   1.899   4.274   1.134  0.3751 -1.0750  2.1769
19860TIP3   OH281070   0.121   6.289  15.500  0.7340 -0.2926 -0.6109
19860TIP3    H181071   0.057   6.277  15.430 -1.4425 -1.1071  1.4711
19860TIP3    H281072   0.081   6.354  15.558  1.9157 -0.5957  0.5636
19861TIP3   OH281073   2.363   2.722  15.550 -0.1525  0.5949 -0.1260
19861TIP3    H181074   2.352   2.816  15.534  1.5598  0.6335 -1.2101
19861TIP3    H281075   2.325   2.680  15.474 -1.6418  0.3645  0.7318
19862TIP3   OH281076   5.102   0.905  11.342  0.5769  0.0322  0.3025
19862TIP3    H181077   5.151   0.850  11.404  0.9069 -0.0857 -0.0668
19862TIP3    H281078   5.046   0.959  11.398 -1.1724 -2.0124  0.6181
19863TIP3   OH281079   4.598   1.314  13.272 -0.1073 -0.0019 -0.4985
19863TIP3    H181080   4.621   1.355  13.189 -1.6610  0.3279 -0.7773
19863TIP3    H281081   4.529   1.368  13.308 -0.4718 -0.9792  0.3109
19864TIP3   OH281082   5.764   5.799   5.065 -0.6190 -0.0661 -0.6143
19864TIP3    H181083   5.693   5.739   5.046 -0.9550  0.0748  0.1837
19864TIP3    H281084   5.765   5.806   5.160  1.5550 -1.3967 -0.4959
19865TIP3   OH281085   2.580   0.364  12.450  0.1450  0.2229  0.2873
19865TIP3    H181086   2.510   0.391  12.509  1.1590  3.6798  0.0328
19865TIP3    H281087   2.594   0.440  12.393  2.3495 -1.3266 -1.3259
19866TIP3   OH281088   5.760   0.085  14.759  0.2778 -0.3176  0.4325
19866TIP3    H181089   5.798   0.096  14.672 -0.0929  1.1364  0.4522
19866TIP3    H281090   5.679   0.137  14.756 -1.4143 -2.8271  0.5891
19867TIP3   OH281091   2.894   1.119  14.386  0.6089 -0.0886  0.0425
19867TIP3    H181092   2.924   1.210  14.381  0.2276  0.0672  0.6258
19867TIP3    H281093   2.915   1.091  14.475 -0.1824 -0.2552  0.1765
19868TIP3   OH281094   2.326   3.526   3.280  0.0431  0.4143 -0.7026
19868TIP3    H181095   2.359   3.559   3.196  0.2722  0.9148 -0.4234
19868TIP3    H281096   2.402   3.485   3.321  0.4534  1.9669  0.1379
19869TIP3   OH281097   6.604   1.876  16.898 -0.4628  0.4819  0.1277
19869TIP3    H181098   6.558   1.811  16.951 -0.9790 -0.1790 -1.1214
19869TIP3    H281099   6.579   1.856  16.808  0.7096  1.3596 -0.4037
19870TIP3   OH281100   5.459   0.210   0.933  0.0104  0.3233  0.4497
19870TIP3    H181101   5.545   0.170   0.925  0.2337  0.9692 -0.4249
19870TIP3    H281102   5.397   0.142   0.905  0.3312  0.3219 -0.2640
19871TIP3   OH281103   4.628   5.157  12.296  0.5719 -0.7917  0.2170
19871TIP3    H181104   4.553   5.144  12.239  0.9055 -0.1324 -0.3653
19871TIP3    H281105   4.699   5.107  12.255  1.4091  1.4197 -1.1382
19872TIP3   OH281106   3.266   3.078   2.224  0.1162 -0.5382  0.1689
19872TIP3    H181107   3.325   3.135   2.174 -1.5700  0.2734 -0.9576
19872TIP3    H281108   3.284   3.100   2.316 -3.3946  5.0485 -0.1970
19873TIP3   OH281109   3.348   5.615  14.636  0.4472 -0.3792  0.3106
19873TIP3    H181110   3.291   5.540  14.652  1.0968 -0.9586 -0.0788
19873TIP3    H281111   3.288   5.688  14.622 -0.2131 -1.0986 -0.6681
19874TIP3   OH281112   2.599   0.209   3.940 -0.4722  0.1851 -0.1389
19874TIP3    H181113   2.683   0.247   3.915 -0.3106  0.8619  1.3980
19874TIP3    H281114   2.540   0.232   3.868  0.6779 -0.4245 -1.2943
19875TIP3   OH281115   2.142   0.125   2.713 -0.5547  0.8572  0.4367
19875TIP3    H181116   2.173   0.133   2.804  1.8154  0.1089 -0.2700
19875TIP3    H281117   2.201   0.182   2.663  0.5883 -1.6469 -1.1448
19876TIP3   OH281118   2.925   2.924  14.276  0.6587  0.1323  0.0347
19876TIP3    H181119   2.870   2.937  14.198  0.4976  0.3404  0.1836
19876TIP3    H281120   2.918   3.006  14.324  1.2258  0.2124 -0.0253
19877TIP3   OH281121   4.951   1.535  14.891 -0.6144  0.0381  0.5247
19877TIP3    H181122   4.931   1.473  14.961  1.1470  0.2282  1.1961
19877TIP3    H281123   4.917   1.619  14.923  0.8551  0.2794  1.4949
19878TIP3   OH281124   2.193   4.646  13.772 -0.1633 -0.4174  0.5137
19878TIP3    H181125   2.121   4.694  13.731 -0.2989 -2.0298 -1.1691
19878TIP3    H281126   2.150   4.581  13.827  0.0014 -1.2130 -0.2957
19879TIP3   OH281127   5.342   4.301   4.204  0.3207  0.2095 -0.1158
19879TIP3    H181128   5.267   4.251   4.236 -0.2773  1.0372 -0.2132
19879TIP3    H281129   5.405   4.299   4.276 -0.3415  0.6565  0.4769
19880TIP3   OH281130   1.403   4.158   3.984 -0.4813  0.2069 -0.1580
19880TIP3    H181131   1.482   4.145   3.932 -1.3826  1.6715 -1.9686
19880TIP3    H281132   1.342   4.201   3.924 -1.8784  1.1356  1.8579
19881TIP3   OH281133   4.426   1.065   2.990  0.2749  0.3076 -0.5577
19881TIP3    H181134   4.394   1.131   2.929 -0.6461  0.6027  0.2239
19881TIP3    H281135   4.351   1.006   3.002  0.3709  0.3763  0.4427
19882TIP3   OH281136   1.628   0.683   5.861 -1.0347  0.2540 -0.2498
19882TIP3    H181137   1.550   0.729   5.830 -0.9830  0.7236  0.3164
19882TIP3    H281138   1.680   0.750   5.905  0.5490  0.3496 -2.1533
19883TIP3   OH281139   5.201   3.108   0.687  0.5543 -0.6445  0.2933
19883TIP3    H181140   5.290   3.084   0.715  1.2902  1.3907 -0.2479
19883TIP3    H281141   5.211   3.194   0.648 -2.0899  0.7563  2.5588
19884TIP3   OH281142   1.823   3.393   0.344 -0.3740  0.8236 -0.7831
19884TIP3    H181143   1.812   3.360   0.255  1.1688 -0.6985 -0.4231
19884TIP3    H281144   1.738   3.378   0.385 -0.7523  0.5045 -1.6595
19885TIP3   OH281145   2.789   4.984  13.179  0.4224  0.5531 -0.2670
19885TIP3    H181146   2.841   5.058  13.212  1.7152  1.6137 -4.3846
19885TIP3    H281147   2.701   5.019  13.170  0.5369  0.9172 -0.0155
19886TIP3   OH281148   1.496   4.736  13.924 -0.0000  0.2069  0.5001
19886TIP3    H181149   1.413   4.752  13.879  0.3894 -1.2775 -0.8045
19886TIP3    H281150   1.490   4.646  13.955  1.0803  0.1229  0.4845
19887TIP3   OH281151   2.660   5.404  14.971 -0.0433 -0.3554  0.5965
19887TIP3    H181152   2.639   5.310  14.975  2.6369 -1.0655 -0.9306
19887TIP3    H281153   2.650   5.427  14.879 -0.6601  0.8957  0.9634
19888TIP3   OH281154   1.897   1.381  15.541 -0.2789  0.3208  0.6254
19888TIP3    H181155   1.897   1.300  15.489  0.1540  0.8246 -0.1639
19888TIP3    H281156   1.818   1.374  15.595 -0.7387 -0.2191 -0.0964
19889TIP3   OH281157   0.570   1.059  14.107  0.5228 -1.0413  0.2570
19889TIP3    H181158   0.603   0.987  14.161  0.4461 -1.3020 -0.0417
19889TIP3    H281159   0.638   1.074  14.042 -0.5075 -2.4882 -1.2078
19890TIP3   OH281160   4.635   0.941   3.738  0.1155 -0.7013  0.0438
19890TIP3    H181161   4.577   0.873   3.703  0.3239 -0.6936 -0.3183
19890TIP3    H281162   4.576   1.004   3.780 -0.2258 -0.1436 -1.2518
19891TIP3   OH281163   2.856   6.723  13.720  0.1098 -0.2150  0.0987
19891TIP3    H181164   2.826   6.633  13.720 -1.0352  0.1231 -2.1807
19891TIP3    H281165   2.942   6.721  13.763  0.2348 -2.4227 -0.2329
19892TIP3   OH281166   6.669   0.424   4.923  0.2733  0.0469  0.1490
19892TIP3    H181167   6.701   0.337   4.897  1.5188  0.8503 -1.0510
19892TIP3    H281168   6.574   0.418   4.911  0.3237 -1.2049  0.2515
19893TIP3   OH281169   1.000   0.987   6.113  0.1483 -0.1923 -0.2087
19893TIP3    H181170   1.058   0.932   6.062  0.0984 -1.3751  0.9849
19893TIP3    H281171   1.043   0.993   6.199 -1.4766 -1.0507  0.6728
19894TIP3   OH281172   6.815   3.861  15.071 -0.3855  0.2708 -0.8285
19894TIP3    H181173   6.744   3.920  15.044 -1.5285 -0.7930 -0.1909
19894TIP3    H281174   6.892   3.894  15.025 -0.9682  2.3450 -0.3944
19895TIP3   OH281175   0.170   6.776   0.722  0.4063 -0.4852  0.2044
19895TIP3    H181176   0.216   6.840   0.775  0.8512 -0.0970 -0.6420
19895TIP3    H281177   0.098   6.825   0.682  0.2643 -0.7007  0.1945
19896TIP3   OH281178   4.845   3.983  17.068  0.0398  0.4718  0.2791
19896TIP3    H181179   4.870   3.898  17.106  0.8671  0.1392 -0.9567
19896TIP3    H281180   4.795   3.960  16.990 -1.2526  1.1417  0.9033
19897TIP3   OH281181   4.471   0.070   0.853 -0.5932 -0.2485  0.3200
19897TIP3    H181182   4.457   0.152   0.900  0.4560 -0.0528  0.2994
19897TIP3    H281183   4.494   0.096   0.765  1.4551 -0.5137  0.7584
19898TIP3   OH281184   2.221   2.391  11.397 -0.2854 -0.3358 -0.0850
19898TIP3    H181185   2.139   2.373  11.443 -0.4841  0.4940 -0.1228
19898TIP3    H281186   2.246   2.306  11.359 -1.5131 -0.4340 -0.7028
19899TIP3   OH281187   3.415   5.293  13.122  0.0011 -0.2576  0.1917
19899TIP3    H181188   3.328   5.255  13.118 -0.0124 -0.2955  0.8306
19899TIP3    H281189   3.400   5.388  13.130  0.0392 -0.0576 -1.9562
19900TIP3   OH281190   3.183   3.564  15.623 -0.0948  0.2581  0.1568
19900TIP3    H181191   3.165   3.475  15.655 -2.0745  0.7179  0.3966
19900TIP3    H281192   3.115   3.618  15.664  0.2378  1.6552 -1.1008
19901TIP3   OH281193   6.590   5.090   3.399 -0.4556  0.1071  0.5842
19901TIP3    H181194   6.597   5.055   3.310 -1.9290  1.8360 -0.2567
19901TIP3    H281195   6.584   5.185   3.386 -1.4568  0.3254  2.4811
19902TIP3   OH281196   0.802   5.229  16.594  0.4679  0.6972 -0.1845
19902TIP3    H181197   0.816   5.175  16.672 -1.6180  1.0352  0.4703
19902TIP3    H281198   0.872   5.294  16.597 -1.2418  2.5794  3.1274
19903TIP3   OH281199   0.457   0.963   4.258  0.0040  0.1849  0.0295
19903TIP3    H181200   0.465   1.016   4.337  0.3950  0.4433 -0.1821
19903TIP3    H281201   0.503   0.882   4.279 -0.6622 -0.1090  0.3815
19904TIP3   OH281202   3.213   0.345   4.412 -0.3253  0.0954  0.3584
19904TIP3    H181203   3.131   0.356   4.363 -0.7580 -1.1453  0.7928
19904TIP3    H281204   3.282   0.360   4.347 -0.8880 -2.7305 -0.9591
19905TIP3   OH281205   4.089   3.812   4.608 -0.2995  0.1374  0.2288
19905TIP3    H181206   4.150   3.844   4.675  1.3834 -2.2043 -0.1283
19905TIP3    H281207   4.058   3.891   4.565  1.1999  1.4846  1.5350
19906TIP3   OH281208   5.697   1.560  11.649  0.0295 -0.0213  0.2007
19906TIP3    H181209   5.678   1.585  11.740 -0.8156 -0.7949  0.2467
19906TIP3    H281210   5.694   1.465  11.650  1.6052 -0.0924 -0.3140
19907TIP3   OH281211   5.514   4.242  15.357 -0.1721 -0.1418 -0.4484
19907TIP3    H181212   5.467   4.174  15.309 -0.4422  0.0923 -0.5151
19907TIP3    H281213   5.512   4.213  15.448 -0.2308 -0.2508 -0.4848
19908TIP3   OH281214   3.451   4.850  11.268 -0.3605  0.0718  0.2738
19908TIP3    H181215   3.361   4.833  11.242 -0.8355  1.2169  1.1151
19908TIP3    H281216   3.492   4.887  11.190 -1.1342  1.2926  0.4248
19909TIP3   OH281217   5.054   3.992   2.330  0.2916  0.3510  0.0211
19909TIP3    H181218   5.091   4.077   2.353  2.2698 -0.6810  0.7305
19909TIP3    H281219   5.125   3.946   2.285 -1.6263  0.0789 -2.8271
19910TIP3   OH281220   5.705   3.592  12.166  0.1765  0.1792  0.1550
19910TIP3    H181221   5.737   3.508  12.133 -1.6727 -0.6343  0.3552
19910TIP3    H281222   5.731   3.656  12.101 -0.3003 -0.8886 -1.0978
19911TIP3   OH281223   5.332   3.966   2.216 -0.2375 -0.2067  0.0908
19911TIP3    H181224   5.308   4.053   2.184  2.3177  0.3857 -0.3424
19911TIP3    H281225   5.337   3.912   2.138 -1.1600 -0.5789  0.2875
19912TIP3   OH281226   2.073   1.605   0.474 -0.0758  0.1567 -0.3364
19912TIP3    H181227   1.981   1.582   0.456 -0.1877  1.1571 -1.0684
19912TIP3    H281228   2.068   1.686   0.524  0.4229  0.5159 -0.8631
19913TIP3   OH281229   2.988   1.977   0.463  0.3509  0.0134 -0.3163
19913TIP3    H181230   3.010   1.909   0.399  0.4526 -0.6010  0.3619
19913TIP3    H281231   2.893   1.986   0.458  0.5681  1.4017 -1.9891
19914TIP3   OH281232   5.086   1.418  16.772  0.5913  0.1022 -1.0855
19914TIP3    H181233   5.060   1.506  16.801  2.1107 -0.1036  1.0278
19914TIP3    H281234   5.164   1.433  16.720  0.6182  0.0462 -1.0608
19915TIP3   OH281235   1.229   0.612  10.857 -0.1012 -0.1295 -0.0300
19915TIP3    H181236   1.316   0.625  10.820 -0.4810  2.2339 -0.1771
19915TIP3    H281237   1.233   0.653  10.943 -0.2021 -2.6987  1.2507
19916TIP3   OH281238   6.283   4.272  17.276  0.1056  0.0503 -0.3390
19916TIP3    H181239   6.272   4.302  17.186  0.7545 -0.7159 -0.6706
19916TIP3    H281240   6.358   4.213  17.274 -2.3700 -3.2970 -0.1059
19917TIP3   OH281241   6.350   0.149  10.880 -0.3724 -0.3624  0.9122
19917TIP3    H181242   6.276   0.156  10.819 -0.0520 -2.3116  0.2620
19917TIP3    H281243   6.427   0.171  10.827 -0.4228  1.1598  1.4583
19918TIP3   OH281244   1.832   0.414  14.546  0.2277 -0.4860 -0.0995
19918TIP3    H181245   1.818   0.335  14.598 -2.2591  0.0294  0.0751
19918TIP3    H281246   1.840   0.484  14.611 -1.2003 -0.0912 -0.3266
19919TIP3   OH281247   5.836   0.835   1.555 -0.3420  0.4822  0.0104
19919TIP3    H181248   5.862   0.883   1.476 -2.1226 -0.2922 -1.0834
19919TIP3    H281249   5.894   0.759   1.556  2.0659  2.2855  1.4080
19920TIP3   OH281250   2.706   0.678   3.813 -0.1443 -0.3843  0.4023
19920TIP3    H181251   2.748   0.755   3.774  0.2242 -0.0726  1.3904
19920TIP3    H281252   2.692   0.703   3.905  1.1375 -1.9461  1.0467
19921TIP3   OH281253   3.560   4.347  14.415 -0.3714 -0.6220  0.0867
19921TIP3    H181254   3.469   4.332  14.437 -0.8509  0.7905 -0.8859
19921TIP3    H281255   3.560   4.427  14.362  1.4473 -0.4490  0.2892
19922TIP3   OH281256   0.868   2.765   4.511 -0.6634 -1.2161 -0.2549
19922TIP3    H181257   0.791   2.819   4.491 -1.2020 -1.4168  1.2069
19922TIP3    H281258   0.870   2.700   4.441 -0.2471  0.4338 -1.8031
19923TIP3   OH281259   3.485   1.194   0.762  0.4557 -0.0088 -0.1030
19923TIP3    H181260   3.533   1.129   0.813  0.2066  0.6230  0.9642
19923TIP3    H281261   3.492   1.164   0.672 -0.5610 -2.0862  0.4908
19924TIP3   OH281262   2.564   4.640  12.986 -0.0820  0.0401  0.4999
19924TIP3    H181263   2.580   4.673  13.075  0.6380 -2.0249  1.1662
19924TIP3    H281264   2.472   4.615  12.987 -0.0922  0.0786  0.6353
19925TIP3   OH281265   5.142   1.231   2.115  0.0615  0.3148 -0.1166
19925TIP3    H181266   5.075   1.180   2.070 -0.6217 -0.2886  1.5174
19925TIP3    H281267   5.212   1.240   2.051 -0.1489 -1.9884 -0.7481
19926TIP3   OH281268   6.373   0.975   5.032  0.6120  0.3359 -0.2096
19926TIP3    H181269   6.398   0.969   5.124  3.1841 -0.6223 -0.9349
19926TIP3    H281270   6.420   1.051   4.999  1.0955 -0.3726 -1.1635
19927TIP3   OH281271   1.997   2.836  10.330 -0.5947  0.1654  0.3781
19927TIP3    H181272   1.934   2.770  10.361  0.0205 -0.1509  0.9598
19927TIP3    H281273   2.078   2.817  10.377 -0.0825  0.6388 -0.2924
19928TIP3   OH281274   1.535   2.270  16.262  0.1575  0.3406  0.0590
19928TIP3    H181275   1.506   2.361  16.266 -3.4425 -0.7183 -0.4646
19928TIP3    H281276   1.627   2.275  16.235  0.3240  3.8200  1.0722
19929TIP3   OH281277   4.894   4.906  15.718  0.1791  0.4245 -0.3968
19929TIP3    H181278   4.818   4.943  15.672  1.5358  1.0997 -2.1808
19929TIP3    H281279   4.860   4.878  15.803 -2.5205 -1.1490 -1.8983
19930TIP3   OH281280   5.654   5.666   2.387 -0.2966  0.3932 -0.2127
19930TIP3    H181281   5.571   5.635   2.424  0.3628 -0.2351  0.7812
19930TIP3    H281282   5.640   5.760   2.373 -1.0875  0.3434  0.1881
19931TIP3   OH281283   4.903   1.621   4.957 -0.7502 -0.9298 -0.5946
19931TIP3    H181284   4.959   1.606   5.032 -1.8905 -0.0090  0.4598
19931TIP3    H281285   4.915   1.544   4.902  3.0458  0.0989 -1.3728
19932TIP3   OH281286   6.379   1.914  16.096 -0.0587 -0.1091  0.5152
19932TIP3    H181287   6.347   1.980  16.035 -0.2244 -1.8354 -1.2867
19932TIP3    H281288   6.300   1.876  16.135 -0.0083 -0.2855  0.4438
19933TIP3   OH281289   4.505   0.345  13.079  0.4329 -0.8010 -0.0381
19933TIP3    H181290   4.457   0.346  13.162 -1.5437 -0.2281 -1.1409
19933TIP3    H281291   4.448   0.392  13.018  2.3126 -0.3202 -1.4837
19934TIP3   OH281292   3.119   5.028   4.658 -0.6236  0.1827 -0.1964
19934TIP3    H181293   3.081   4.942   4.674  1.5567 -0.9763 -0.9251
19934TIP3    H281294   3.209   5.021   4.692 -0.4156  2.1601 -0.2785
19935TIP3   OH281295   4.127   5.168   5.490 -0.3289 -0.2903  0.4539
19935TIP3    H181296   4.088   5.145   5.574  3.3396  0.1453  2.3623
19935TIP3    H281297   4.113   5.262   5.482 -2.6245 -0.6755 -0.5387
19936TIP3   OH281298   0.645   4.174  13.236  0.1150 -0.5856  0.7778
19936TIP3    H181299   0.673   4.126  13.158 -2.0742  1.5730 -1.4322
19936TIP3    H281300   0.626   4.106  13.301  1.1180 -2.4557 -0.8423
19937TIP3   OH281301   6.689   0.220   5.781 -0.3214  0.0071 -0.0123
19937TIP3    H181302   6.601   0.186   5.799  0.2546 -1.4040  0.1891
19937TIP3    H281303   6.699   0.291   5.844 -0.3602 -1.4842  1.7206
19938TIP3   OH281304   4.248   5.610   1.713 -0.6086 -0.3680  0.2503
19938TIP3    H181305   4.294   5.582   1.634 -0.5318  0.2827  0.0607
19938TIP3    H281306   4.244   5.532   1.767  0.8922 -0.3926  0.3541
19939TIP3   OH281307   1.215   6.773  13.013 -0.4402  0.0407  0.6310
19939TIP3    H181308   1.223   6.678  13.003 -0.7794  0.2114 -1.5501
19939TIP3    H281309   1.126   6.792  12.983 -0.4237  1.0315  1.2146
19940TIP3   OH281310   2.770   3.295  12.876 -0.1081  0.3797 -0.1449
19940TIP3    H181311   2.692   3.328  12.832 -0.6115  0.4676  0.8026
19940TIP3    H281312   2.828   3.370  12.881 -0.5310  0.6714  0.4099
19941TIP3   OH281313   0.899   5.962   4.334 -0.6476  0.0316 -0.5261
19941TIP3    H181314   0.988   5.958   4.299 -0.8733  0.1201 -1.1064
19941TIP3    H281315   0.872   5.870   4.341  0.4732 -0.1407  2.1808
19942TIP3   OH281316   1.113   0.159   3.194  0.2666  0.0281  0.2937
19942TIP3    H181317   1.180   0.092   3.185  0.6731  0.4987 -0.1706
19942TIP3    H281318   1.132   0.200   3.279  2.0627  1.7896 -0.9102
19943TIP3   OH281319   4.702   5.146   4.482 -0.6766 -0.1444  0.0923
19943TIP3    H181320   4.760   5.221   4.467 -1.1063  0.0559 -0.5742
19943TIP3    H281321   4.619   5.171   4.443 -1.3413 -0.2772  1.3998
19944TIP3   OH281322   2.915   0.722   6.331  0.3262  0.4483  0.1761
19944TIP3    H181323   2.891   0.773   6.408 -0.7243  0.1067  0.0905
19944TIP3    H281324   2.831   0.691   6.296  0.9294 -1.3762  0.2701
19945TIP3   OH281325   0.085   0.383   2.926  0.1999  0.8146 -0.5029
19945TIP3    H181326   0.091   0.449   2.857  1.5507  1.1808 -0.0493
19945TIP3    H281327   0.060   0.433   3.004 -0.5729  0.5113 -0.5462
19946TIP3   OH281328   5.782   2.580   4.638  0.6366  0.4634 -0.0204
19946TIP3    H181329   5.705   2.633   4.615  0.4979  0.7723  1.1519
19946TIP3    H281330   5.831   2.573   4.556  0.0129  1.3346 -0.4777
19947TIP3   OH281331   1.496   6.116  15.769 -0.4283 -0.2740 -0.0694
19947TIP3    H181332   1.405   6.092  15.751 -0.0732 -0.6834 -1.3389
19947TIP3    H281333   1.520   6.175  15.698  0.3027 -0.1527  0.2671
19948TIP3   OH281334   5.994   5.722   1.712  0.0497  0.0500  0.1008
19948TIP3    H181335   5.972   5.630   1.728  1.9323 -0.3227  0.6942
19948TIP3    H281336   5.944   5.771   1.778 -2.6673 -0.3329 -1.6225
19949TIP3   OH281337   1.761   3.953   5.165 -0.1049 -0.6613 -0.0705
19949TIP3    H181338   1.745   3.878   5.222  0.4477 -0.4565  0.3543
19949TIP3    H281339   1.746   4.029   5.221 -1.0332 -0.4450 -0.5999
19950TIP3   OH281340   4.082   4.483  14.596 -0.7161  0.0853  0.0123
19950TIP3    H181341   4.156   4.528  14.556 -0.8582 -1.1281 -1.6807
19950TIP3    H281342   4.065   4.531  14.677  0.6894  1.5396 -0.5358
19951TIP3   OH281343   5.976   2.584   1.991 -0.1113  0.2448  0.0051
19951TIP3    H181344   6.053   2.627   2.028 -0.3534 -0.1218  0.9462
19951TIP3    H281345   5.922   2.561   2.067 -1.1794  0.5505 -0.6403
19952TIP3   OH281346   2.387   1.268   2.085 -0.7013  0.5786  0.4942
19952TIP3    H181347   2.393   1.324   2.163 -2.4334  0.5200  0.6761
19952TIP3    H281348   2.345   1.188   2.116  0.6751 -0.3715 -0.0305
19953TIP3   OH281349   4.860   6.510  14.350  0.1163 -0.7188 -0.4387
19953TIP3    H181350   4.946   6.528  14.386 -1.4809 -1.1370  3.8411
19953TIP3    H281351   4.829   6.595  14.319 -0.2401  0.7116  3.5083
19954TIP3   OH281352   1.699   1.674   5.769 -0.5580 -0.0342 -0.2762
19954TIP3    H181353   1.718   1.584   5.796 -2.7012 -0.7249 -0.9608
19954TIP3    H281354   1.612   1.693   5.804  0.4359  2.2882  1.0350
19955TIP3   OH281355   5.967   4.733   0.850 -0.5058  0.0740 -0.4561
19955TIP3    H181356   5.893   4.785   0.884  0.6990  0.5185  1.5767
19955TIP3    H281357   6.036   4.798   0.835  0.5555 -0.7387  0.8032
19956TIP3   OH281358   1.554   3.828  15.974 -0.1391 -0.0584  0.3747
19956TIP3    H181359   1.579   3.867  15.891  1.7335 -0.0770  0.8959
19956TIP3    H281360   1.505   3.896  16.020 -0.5431  0.2006 -0.4421
19957TIP3   OH281361   2.476   1.881  16.879 -0.7962  0.5442 -0.0762
19957TIP3    H181362   2.388   1.849  16.900 -0.0289 -0.0984  2.3146
19957TIP3    H281363   2.526   1.866  16.959  0.9476  2.9092 -0.6933
19958TIP3   OH281364   1.793   3.844   2.769  0.1327  0.2390 -0.4221
19958TIP3    H181365   1.713   3.893   2.791 -0.9367 -0.7701 -1.9136
19958TIP3    H281366   1.850   3.855   2.845 -0.7976  2.2801  0.0267
19959TIP3   OH281367   0.465   2.754   4.317 -0.4353 -0.3045 -0.2055
19959TIP3    H181368   0.447   2.847   4.333  1.4968  0.0356  0.1111
19959TIP3    H281369   0.518   2.727   4.393  1.3357 -0.9563 -1.6432
19960TIP3   OH281370   4.888   3.777  16.107 -0.0640 -0.6580  0.6288
19960TIP3    H181371   4.957   3.833  16.072  0.2114 -0.6961  1.1076
19960TIP3    H281372   4.810   3.833  16.109 -0.0093 -0.5708  0.2300
19961TIP3   OH281373   4.540   1.962  14.376 -0.0238 -0.5802  0.2645
19961TIP3    H181374   4.606   1.973  14.308 -0.0700 -1.4816  0.0690
19961TIP3    H281375   4.456   1.979  14.333  0.0128 -0.2789  0.3104
19962TIP3   OH281376   4.191   0.165  13.736  0.3169 -0.1756  0.6420
19962TIP3    H181377   4.209   0.251  13.773  2.2143 -0.9710  1.6904
19962TIP3    H281378   4.252   0.157  13.662  0.5772 -0.8183  0.9151
19963TIP3   OH281379   4.246   0.489  15.630 -0.6508  0.0125 -0.0089
19963TIP3    H181380   4.288   0.444  15.703 -0.3031  0.2753 -0.0472
19963TIP3    H281381   4.243   0.581  15.658  0.7053  0.3366 -0.9063
19964TIP3   OH281382   5.850   4.725  13.724 -0.0442 -0.4574 -0.2186
19964TIP3    H181383   5.856   4.786  13.798 -0.3642 -0.3774 -0.2565
19964TIP3    H281384   5.913   4.657  13.744 -1.3475 -1.3470  0.9664
19965TIP3   OH281385   5.934   0.476   0.114  0.5887 -0.5471  1.0143
19965TIP3    H181386   5.965   0.449   0.200 -0.2050 -0.7154  1.2595
19965TIP3    H281387   5.916   0.569   0.123 -0.8370 -0.8482  1.4558
19966TIP3   OH281388   2.622   4.051  14.581 -0.4789 -0.0827  0.2439
19966TIP3    H181389   2.566   3.989  14.534 -0.7929 -0.2701  0.8589
19966TIP3    H281390   2.562   4.099  14.638  0.1198 -0.9389  1.5996
19967TIP3   OH281391   0.725   1.441  12.384  0.4074  0.6078 -0.0238
19967TIP3    H181392   0.727   1.440  12.289 -1.1640  1.7807 -0.1040
19967TIP3    H281393   0.638   1.475  12.406  0.8400  0.6240  1.8179
19968TIP3   OH281394   0.604   1.172  16.397  0.2362 -0.0059 -0.2061
19968TIP3    H181395   0.548   1.249  16.404  0.4198  0.2151 -1.1424
19968TIP3    H281396   0.544   1.099  16.382  0.1466  0.1172 -0.4404
19969TIP3   OH281397   0.346   6.023  14.976  0.7821  0.1300  0.3194
19969TIP3    H181398   0.301   6.006  15.059  1.4602  1.7950  1.0465
19969TIP3    H281399   0.279   6.006  14.909  0.4066 -1.8144  1.1570
19970TIP3   OH281400   5.129   1.468   4.360  0.1115 -0.0676 -0.1474
19970TIP3    H181401   5.141   1.429   4.446  1.5294  0.3294 -0.1487
19970TIP3    H281402   5.041   1.505   4.362 -0.6859 -1.9497  0.3588
19971TIP3   OH281403   3.863   2.928  16.602 -0.4233  0.3384  0.4118
19971TIP3    H181404   3.919   2.866  16.650 -0.0375  0.3109 -0.0755
19971TIP3    H281405   3.897   2.928  16.513 -0.5703  1.0809  0.3512
19972TIP3   OH281406   5.483   4.951   3.884 -0.3514 -0.2789  0.0448
19972TIP3    H181407   5.465   5.024   3.944  0.9700 -0.2122  0.3769
19972TIP3    H281408   5.431   4.971   3.807 -0.6321  0.6033  0.4483
19973TIP3   OH281409   0.374   1.041  17.035  0.1877 -0.2886  0.4165
19973TIP3    H181410   0.395   0.961  16.986 -0.1202 -0.0876 -0.0476
19973TIP3    H281411   0.344   1.102  16.968  0.6701  0.3027  0.7456
19974TIP3   OH281412   1.008   1.781  11.795 -0.4066  0.5848  0.5490
19974TIP3    H181413   0.987   1.690  11.776  0.8492 -0.1355  2.4430
19974TIP3    H281414   1.099   1.791  11.767 -0.6706  1.3872 -0.0473
19975TIP3   OH281415   6.047   5.369   0.520 -0.1107  0.5889  0.2069
19975TIP3    H181416   6.068   5.287   0.475  0.7744  1.1979 -0.5075
19975TIP3    H281417   6.117   5.429   0.495 -1.5435  2.0164 -0.4455
19976TIP3   OH281418   2.821   6.206  15.819  0.5624 -0.4557 -0.3332
19976TIP3    H181419   2.915   6.214  15.809  0.4869 -1.2168 -1.7932
19976TIP3    H281420   2.799   6.264  15.892  2.3225 -1.2755  0.8718
19977TIP3   OH281421   6.540   3.907  11.527 -0.1626 -0.1732  0.2576
19977TIP3    H181422   6.508   3.893  11.616  0.9739 -0.4193  0.6260
19977TIP3    H281423   6.635   3.906  11.534 -0.0545  0.8872 -0.7929
19978TIP3   OH281424   5.405   6.764  11.519 -0.0357  0.3443  0.2899
19978TIP3    H181425   5.399   6.669  11.522  0.3244  0.2448 -1.6826
19978TIP3    H281426   5.483   6.785  11.569  1.1093 -0.5608 -1.0796
19979TIP3   OH281427   4.205   5.835  14.780  0.0907 -0.0963 -0.3774
19979TIP3    H181428   4.273   5.896  14.751 -0.8085  0.4261 -1.4403
19979TIP3    H281429   4.155   5.884  14.845  0.3368 -0.2444 -0.0802
19980TIP3   OH281430   0.161   1.688   3.957 -0.5993 -0.5473  0.3395
19980TIP3    H181431   0.175   1.645   4.041  0.6232  3.5656  2.3372
19980TIP3    H281432   0.221   1.643   3.897  2.4070 -0.1081  2.9051
19981TIP3   OH281433   6.604   4.464  12.255 -0.4253 -0.4817 -0.7047
19981TIP3    H181434   6.668   4.501  12.194 -1.9575  0.9694 -1.4584
19981TIP3    H281435   6.656   4.438  12.331  0.9680  1.2820 -1.0240
19982TIP3   OH281436   0.297   5.049   4.063 -0.2461 -0.1686  0.0126
19982TIP3    H181437   0.219   5.103   4.053 -1.4204 -1.7886  0.1885
19982TIP3    H281438   0.366   5.098   4.020 -0.9541  2.1619  1.4401
19983TIP3   OH281439   2.890   6.639   3.772  0.0830  0.3061 -0.0859
19983TIP3    H181440   2.980   6.669   3.758  0.9962 -2.2869 -0.0758
19983TIP3    H281441   2.851   6.638   3.685 -0.3413  2.6226  0.0631
19984TIP3   OH281442   6.020   0.437  11.180  0.4999  0.0769  0.2182
19984TIP3    H181443   5.925   0.423  11.185  0.6392 -0.4338  1.4420
19984TIP3    H281444   6.040   0.429  11.086 -1.0150  2.5386 -0.3590
19985TIP3   OH281445   3.790   6.817  12.636  0.4013  0.5057  0.1660
19985TIP3    H181446   3.849   6.893  12.632  0.7106  0.3828  2.1881
19985TIP3    H281447   3.706   6.850  12.603  0.4645  1.8051  1.2747
19986TIP3   OH281448   1.221   1.802   0.331  0.9567  0.4052 -0.5186
19986TIP3    H181449   1.196   1.836   0.245  1.9773  0.2871 -0.8739
19986TIP3    H281450   1.287   1.863   0.363 -0.0768  0.9555  0.5927
19987TIP3   OH281451   6.022   2.588   1.249  0.3023 -0.2302  0.3231
19987TIP3    H181452   5.964   2.591   1.325 -0.2784  0.8573 -0.1489
19987TIP3    H281453   6.015   2.498   1.217 -1.9327  0.1318 -0.3243
19988TIP3   OH281454   2.330   0.446  12.547  0.1502  0.7244 -0.1170
19988TIP3    H181455   2.338   0.541  12.542  1.1463  0.6994  0.9758
19988TIP3    H281456   2.331   0.426  12.640  1.6192 -0.4883 -0.3612
19989TIP3   OH281457   4.377   4.029   0.671  0.0996 -0.2470  0.4511
19989TIP3    H181458   4.429   4.106   0.646  0.0155 -0.5374 -0.6641
19989TIP3    H281459   4.298   4.065   0.712  0.3433  0.2442  0.4882
19990TIP3   OH281460   2.648   6.542   0.751  0.1982  0.1734  0.0151
19990TIP3    H181461   2.742   6.531   0.759  0.0231  0.4964  3.4618
19990TIP3    H281462   2.630   6.533   0.658  3.2541 -2.7602 -0.3730
19991TIP3   OH281463   4.648   4.107  15.748  0.1138 -0.5110 -0.1050
19991TIP3    H181464   4.605   4.156  15.678 -0.2553 -1.0835 -0.2797
19991TIP3    H281465   4.641   4.163  15.825  0.7975  0.2630 -0.5911
19992TIP3   OH281466   2.636   0.326   3.427  0.5673  0.5151 -0.0416
19992TIP3    H181467   2.591   0.327   3.511 -1.0063  1.9313 -0.8613
19992TIP3    H281468   2.596   0.254   3.378 -0.7816  1.7024 -0.7283
19993TIP3   OH281469   5.087   0.133   3.544  0.5629  0.3659  0.2633
19993TIP3    H181470   5.073   0.216   3.589 -0.6677  0.8877 -1.0466
19993TIP3    H281471   5.114   0.157   3.455  0.6745 -0.6185  0.0169
19994TIP3   OH281472   6.307   5.919   5.823 -0.1940 -0.2574  0.3749
19994TIP3    H181473   6.395   5.893   5.851 -0.4746 -0.5644  0.9846
19994TIP3    H281474   6.278   5.981   5.890  0.6396  2.0193 -1.2916
19995TIP3   OH281475   0.902   5.152   5.000  0.4551 -0.9053  0.3821
19995TIP3    H181476   0.893   5.068   4.954 -0.5203 -0.2846 -0.5667
19995TIP3    H281477   0.932   5.213   4.933 -2.0195  0.2550  0.2962
19996TIP3   OH281478   2.480   2.424  10.905 -0.2942  0.4937 -0.3246
19996TIP3    H181479   2.440   2.505  10.873 -1.3739 -0.5291 -1.6294
19996TIP3    H281480   2.482   2.367  10.829  0.5044 -0.6955  0.5755
19997TIP3   OH281481   3.947   2.799  11.323 -0.4983 -0.0827  0.4777
19997TIP3    H181482   4.015   2.745  11.362 -0.3871  0.2650  0.7767
19997TIP3    H281483   3.992   2.881  11.300 -0.7494  0.0375  0.4126
19998TIP3   OH281484   2.196   2.785  12.148 -0.6560  0.1317  0.5383
19998TIP3    H181485   2.175   2.878  12.152  0.7249  0.4894 -0.3319
19998TIP3    H281486   2.194   2.756  12.239  0.4726  1.3589  0.9715
19999TIP3   OH281487   4.288   3.003  12.680  0.1667 -0.2357  0.4039
19999TIP3    H181488   4.356   2.937  12.667 -0.6449 -0.7238 -1.5526
19999TIP3    H281489   4.326   3.084  12.645 -0.4096 -0.6141 -1.1448
20000TIP3   OH281490   4.117   5.679   4.637  0.0587 -0.7923  0.2311
20000TIP3    H181491   4.102   5.746   4.570 -0.4266  0.7765  1.8930
20000TIP3    H281492   4.175   5.720   4.700  0.6873 -2.3492  0.6962
20001TIP3   OH281493   1.403   5.851   6.340  0.5623 -0.2858  0.2165
20001TIP3    H181494   1.457   5.780   6.304  0.4741 -0.7007  0.9117
20001TIP3    H281495   1.377   5.821   6.427  1.9365  1.3057  1.2064
20002TIP3   OH281496   3.604   5.225   4.680  0.4306 -0.5702  0.2675
20002TIP3    H181497   3.692   5.188   4.676  0.4025 -0.7758  1.4545
20002TIP3    H281498   3.587   5.257   4.591  1.5370 -0.9010 -0.0636
20003TIP3   OH281499   4.803   0.339   1.341  0.3192 -0.4868  0.3385
20003TIP3    H181500   4.887   0.297   1.363 -0.1187 -0.7040  1.6609
20003TIP3    H281501   4.827   0.428   1.315  0.9633 -0.5110  0.8228
20004TIP3   OH281502   2.825   3.782  10.843 -0.3409 -0.0609  0.2224
20004TIP3    H181503   2.771   3.855  10.873  2.4895  1.5534  1.6898
20004TIP3    H281504   2.869   3.814  10.764  1.3011  0.0784  1.1523
20005TIP3   OH281505   2.926   1.145  11.127  0.6898  0.6693  0.0252
20005TIP3    H181506   2.850   1.199  11.147 -0.9902 -0.6704 -2.4183
20005TIP3    H281507   2.978   1.198  11.066  1.6931  1.5452  1.6185
20006TIP3   OH281508   5.790   2.408  15.585 -0.3392  0.6377 -0.1411
20006TIP3    H181509   5.755   2.494  15.609 -0.0397  0.0839  2.3959
20006TIP3    H281510   5.712   2.353  15.574 -0.5104  1.0952 -1.3027
20007TIP3   OH281511   1.329   1.636  15.359 -0.1103 -0.0130  0.0520
20007TIP3    H181512   1.300   1.607  15.272 -0.2179 -0.3704  0.2048
20007TIP3    H281513   1.388   1.710  15.342  0.9664 -0.9635 -0.3952
20008TIP3   OH281514   1.391   0.587   5.471  0.1961  0.1325  0.4070
20008TIP3    H181515   1.367   0.671   5.432 -0.3806 -1.0205 -1.7662
20008TIP3    H281516   1.323   0.571   5.537  0.6679  1.6466  1.2984
20009TIP3   OH281517   0.395   2.016  15.017 -0.7549 -0.9784 -0.3152
20009TIP3    H181518   0.380   2.094  15.072  1.6300  0.2974 -1.4131
20009TIP3    H281519   0.325   1.955  15.043 -2.5874  1.4456  0.6812
20010TIP3   OH281520   1.216   1.714   3.674 -0.5985 -0.0620  0.3411
20010TIP3    H181521   1.257   1.797   3.646 -0.7449 -0.2120 -0.3223
20010TIP3    H281522   1.123   1.726   3.656 -0.8919  0.3403  2.0072
20011TIP3   OH281523   1.045   4.449  15.792 -0.9215 -0.5212  0.3661
20011TIP3    H181524   1.114   4.473  15.853 -0.2210 -1.5804  0.0121
20011TIP3    H281525   1.075   4.482  15.707 -2.2904  1.6899  0.7274
20012TIP3   OH281526   6.486   2.564   2.527  0.2787 -0.0680  0.0433
20012TIP3    H181527   6.414   2.514   2.566 -0.3779  1.2487  0.5680
20012TIP3    H281528   6.458   2.579   2.436  1.2813 -2.1467 -0.6221
20013TIP3   OH281529   2.517   1.212   0.059  0.2308  0.1934  0.1427
20013TIP3    H181530   2.585   1.266   0.099  0.9699  1.1383 -2.3114
20013TIP3    H281531   2.438   1.267   0.062  0.9741  1.4681 -2.3219
20014TIP3   OH281532   1.674   4.949  15.801  0.2637 -0.1607  0.3009
20014TIP3    H181533   1.637   4.876  15.851  1.2170 -1.5398 -0.9863
20014TIP3    H281534   1.753   4.974  15.851 -0.9805  1.1272  1.6653
20015TIP3   OH281535   1.606   1.161   2.611 -0.3447  1.1672  0.4427
20015TIP3    H181536   1.521   1.205   2.618 -0.7879  0.3494  0.1611
20015TIP3    H281537   1.652   1.186   2.691 -1.7699 -0.3400  1.7691
20016TIP3   OH281538   2.959   2.309   0.430  0.1258  0.2193  0.8803
20016TIP3    H181539   2.919   2.360   0.359  0.7973 -0.8835 -0.2994
20016TIP3    H281540   3.035   2.361   0.456  1.7147 -0.9004 -1.3863
20017TIP3   OH281541   5.232   1.665  12.200  0.0259 -0.2170  0.3028
20017TIP3    H181542   5.155   1.611  12.185 -0.9868  0.7887  1.8328
20017TIP3    H281543   5.217   1.706  12.285 -0.3124  4.3141 -1.8086
20018TIP3   OH281544   6.652   3.852  16.548 -0.1447  0.5610  0.3868
20018TIP3    H181545   6.734   3.881  16.508 -1.0293  1.4674 -0.7972
20018TIP3    H281546   6.637   3.765  16.510  0.9588 -0.2259  1.6665
20019TIP3   OH281547   1.227   2.369  12.330  0.4038  0.5216 -0.1591
20019TIP3    H181548   1.309   2.399  12.290  0.4797  1.2085  0.4877
20019TIP3    H281549   1.160   2.424  12.291  0.1726 -0.4058 -1.0883
20020TIP3   OH281550   4.783   6.187   3.197 -0.7098  0.0614 -0.3585
20020TIP3    H181551   4.700   6.154   3.231 -0.6291 -0.3315 -0.5360
20020TIP3    H281552   4.780   6.282   3.212 -0.5680 -0.1340  0.9663
20021TIP3   OH281553   4.878   4.470   5.540 -0.1930  0.5759 -0.6535
20021TIP3    H181554   4.940   4.537   5.569 -0.1482 -0.0420  0.7452
20021TIP3    H281555   4.931   4.392   5.527 -0.6720  0.0163  0.6483
20022TIP3   OH281556   3.900   1.560  14.882  0.8334  0.4202 -0.1302
20022TIP3    H181557   3.804   1.553  14.886  0.5779  2.3577 -2.0178
20022TIP3    H281558   3.918   1.651  14.905  2.2263  0.1797 -0.2118
20023TIP3   OH281559   6.201   2.782   4.138 -0.6818  0.0945 -0.7613
20023TIP3    H181560   6.201   2.841   4.062 -3.3817  0.7406 -0.3428
20023TIP3    H281561   6.127   2.723   4.122  0.4745 -1.5993  0.0312
20024TIP3   OH281562   3.659   4.687   4.176 -0.3047  0.3377 -0.2684
20024TIP3    H181563   3.632   4.713   4.264  0.4054 -0.2639  0.1352
20024TIP3    H281564   3.592   4.722   4.118 -1.0621  0.2641  0.5645
20025TIP3   OH281565   3.937   5.067   4.345 -0.2624  0.3965  0.4167
20025TIP3    H181566   3.958   5.121   4.269  1.0821 -0.6908 -0.0129
20025TIP3    H281567   3.871   5.005   4.312  1.4324 -1.0810 -0.3425
20026TIP3   OH281568   1.659   6.342  15.268  0.2885 -0.6769 -0.0957
20026TIP3    H181569   1.672   6.252  15.238 -1.1692 -1.1931  0.7827
20026TIP3    H281570   1.609   6.333  15.349 -2.2470  1.0418 -1.4314
20027TIP3   OH281571   2.406   6.052   1.207 -0.2614  0.1693  0.6942
20027TIP3    H181572   2.391   6.100   1.126 -0.9937  0.8686  1.2429
20027TIP3    H281573   2.470   6.106   1.254 -0.7727  0.4015  1.1261
20028TIP3   OH281574   2.742   1.298   1.044  0.4798  0.2330  1.1062
20028TIP3    H181575   2.829   1.328   1.015  0.6696  0.4649  1.9024
20028TIP3    H281576   2.737   1.324   1.136 -0.6492  0.6832  0.9224
20029TIP3   OH281577   0.656   5.919   0.596  0.0296 -0.0918 -0.1035
20029TIP3    H181578   0.707   5.930   0.516  2.5039 -1.3585  1.2301
20029TIP3    H281579   0.621   6.006   0.614  0.7080  0.5390 -1.7195
20030TIP3   OH281580   2.822   1.682   3.425  0.3741 -0.3977 -0.2954
20030TIP3    H181581   2.780   1.597   3.412 -0.8229  0.3052 -1.1815
20030TIP3    H281582   2.762   1.744   3.384  2.3834  0.6331 -1.7619
20031TIP3   OH281583   6.079   5.828   5.350  0.1111  0.0536  0.5696
20031TIP3    H181584   6.111   5.787   5.270  0.3406 -1.2710  1.3261
20031TIP3    H281585   6.138   5.903   5.364  0.6423 -0.2568  0.0159
20032TIP3   OH281586   5.059   4.961  13.569  0.1978  0.3833  0.1879
20032TIP3    H181587   5.110   4.931  13.644 -0.1830  0.5268  0.5020
20032TIP3    H281588   5.109   5.036  13.535  0.8053 -0.1918 -0.2086
20033TIP3   OH281589   6.609   0.479   0.850 -0.0128  0.2740 -0.2290
20033TIP3    H181590   6.688   0.524   0.878 -0.3576  1.6484 -1.3600
20033TIP3    H281591   6.538   0.537   0.877 -0.5524 -0.3198 -0.3670
20034TIP3   OH281592   5.642   3.449  15.089  0.0914  0.3856  0.4646
20034TIP3    H181593   5.654   3.455  15.184  0.2319 -0.0727  0.4770
20034TIP3    H281594   5.560   3.401  15.078 -0.8216  1.9190  0.3618
20035TIP3   OH281595   6.470   5.534   6.360 -0.0797 -0.4343  0.0125
20035TIP3    H181596   6.487   5.440   6.367  1.5580 -0.0375  1.9750
20035TIP3    H281597   6.552   5.574   6.389 -1.8897  1.6149  2.3932
20036TIP3   OH281598   5.121   6.453   5.408  0.2628  0.3072 -0.2367
20036TIP3    H181599   5.035   6.460   5.367  1.1865  0.8666 -2.1242
20036TIP3    H281600   5.123   6.524   5.472 -0.7164  0.1860 -0.0567
20037TIP3   OH281601   2.896   6.208  12.683 -0.1423  0.3643 -0.1874
20037TIP3    H181602   2.977   6.220  12.634 -1.1100  1.6305 -1.5450
20037TIP3    H281603   2.892   6.282  12.743  0.0776 -0.1173  0.4277
20038TIP3   OH281604   5.143   6.449  14.060  0.1978  0.4277 -0.5138
20038TIP3    H181605   5.077   6.436  13.992  0.4015 -1.1314 -0.4266
20038TIP3    H281606   5.224   6.415  14.022  0.2296 -0.8404  0.6561
20039TIP3   OH281607   3.126   4.429  16.339  0.1501  0.0464 -0.1941
20039TIP3    H181608   3.077   4.348  16.346 -0.4989  0.5665  1.7746
20039TIP3    H281609   3.207   4.413  16.387 -2.1050  2.0328  4.7510
20040TIP3   OH281610   1.958   5.847  14.094 -0.6865  0.1656  0.1336
20040TIP3    H181611   2.008   5.854  14.175 -0.9898 -0.0620  0.3431
20040TIP3    H281612   2.009   5.787  14.040 -0.5933  0.1499  0.2391
20041TIP3   OH281613   3.906   4.742   6.132 -0.3234  0.3018 -0.5958
20041TIP3    H181614   3.836   4.677   6.135 -0.2759  0.1903 -1.7173
20041TIP3    H281615   3.985   4.692   6.110 -0.3914  0.8171 -2.0433
20042TIP3   OH281616   5.591   5.349   3.655  0.0341 -0.0551 -0.3923
20042TIP3    H181617   5.679   5.382   3.637 -0.5281  1.7064 -0.0284
20042TIP3    H281618   5.537   5.428   3.662 -1.0715 -0.9827  2.0469
20043TIP3   OH281619   0.413   6.557   4.127  0.0654 -0.2340  0.4389
20043TIP3    H181620   0.497   6.512   4.119 -0.2631 -0.6098 -1.0682
20043TIP3    H281621   0.348   6.493   4.098 -0.8876 -0.3805  2.8203
20044TIP3   OH281622   4.860   4.572  15.501 -0.4749 -0.4048  0.2345
20044TIP3    H181623   4.860   4.667  15.511  0.5077 -0.3780  0.0004
20044TIP3    H281624   4.839   4.540  15.589  0.0970  0.0154  0.5343
20045TIP3   OH281625   2.736   2.808  10.976  0.3861  0.0041  0.1103
20045TIP3    H181626   2.772   2.728  10.937  0.8768 -0.0544  0.6730
20045TIP3    H281627   2.667   2.835  10.916  0.4515 -0.6512 -0.2670
20046TIP3   OH281628   3.497   1.837   6.756  0.6461 -0.0862  0.7574
20046TIP3    H181629   3.568   1.875   6.705  2.6454  1.1519  4.2443
20046TIP3    H281630   3.529   1.750   6.781  1.1804  0.6274  2.6703
20047TIP3   OH281631   3.480   6.048  16.701 -0.1751 -0.2759  0.6447
20047TIP3    H181632   3.385   6.054  16.710 -0.6083  0.8899 -3.6951
20047TIP3    H281633   3.515   6.114  16.761 -2.3589  2.5307 -1.0761
20048TIP3   OH281634   1.911   4.679  11.515 -0.1196 -0.2846 -0.7396
20048TIP3    H181635   1.924   4.585  11.528  1.1876 -0.1874 -1.2667
20048TIP3    H281636   1.877   4.686  11.426  2.0234 -0.1056 -1.5761
20049TIP3   OH281637   4.995   3.193   2.429  0.0973 -0.0234 -0.7656
20049TIP3    H181638   4.986   3.168   2.521 -0.8760 -1.8654 -1.3351
20049TIP3    H281639   4.924   3.255   2.415 -1.2253 -1.5386 -0.8660
20050TIP3   OH281640   4.563   1.593   2.047 -0.3818 -0.2416 -0.2333
20050TIP3    H181641   4.483   1.582   2.097 -0.2755  0.6248  0.1303
20050TIP3    H281642   4.562   1.685   2.018 -0.1644 -0.5700 -1.3309
20051TIP3   OH281643   3.598   5.583   0.323  0.4425  0.7033 -0.5578
20051TIP3    H181644   3.629   5.674   0.320 -1.3519  1.2952 -1.4265
20051TIP3    H281645   3.636   5.548   0.404  2.6363  1.6620 -1.1209
20052TIP3   OH281646   0.901   0.410   4.330  0.0497  0.4265  0.0911
20052TIP3    H181647   0.902   0.357   4.250  0.6072  1.5168 -0.6539
20052TIP3    H281648   0.811   0.404   4.362  0.2435 -1.3802  0.3220
20053TIP3   OH281649   4.977   6.514  14.856  0.4789  0.1561  0.5539
20053TIP3    H181650   4.957   6.603  14.828  2.6017  0.2519 -0.7128
20053TIP3    H281651   4.940   6.458  14.788  0.8622  0.1586  0.3417
20054TIP3   OH281652   0.601   3.595   5.529 -0.4607 -0.2181  0.3203
20054TIP3    H181653   0.517   3.621   5.490 -1.9774 -1.3363  2.7517
20054TIP3    H281654   0.621   3.511   5.487  0.2703  0.8003 -1.4249
20055TIP3   OH281655   4.075   0.779   0.683 -0.3870 -0.5485  0.2603
20055TIP3    H181656   4.053   0.870   0.700 -1.5302 -1.3698  3.3843
20055TIP3    H281657   4.148   0.760   0.742  0.0688 -1.5730 -0.6069
20056TIP3   OH281658   0.911   5.611   4.904  0.6282 -0.1010 -0.1834
20056TIP3    H181659   0.941   5.585   4.817 -0.7520  0.2925 -0.7995
20056TIP3    H281660   0.909   5.706   4.901  1.4444 -0.0539  0.5913
20057TIP3   OH281661   3.242   3.298   6.136  0.4519 -0.4888 -0.3722
20057TIP3    H181662   3.289   3.292   6.053  0.3226  1.1837 -0.5808
20057TIP3    H281663   3.236   3.392   6.153 -3.4942 -0.5883 -0.7633
20058TIP3   OH281664   5.598   2.417  16.316 -0.4163  0.3275 -0.1701
20058TIP3    H181665   5.585   2.504  16.279 -1.4865  0.7540  1.1710
20058TIP3    H281666   5.553   2.358  16.255 -2.7438  1.0945  0.7552
20059TIP3   OH281667   0.735   5.137  11.075  0.1042  0.1664  0.1175
20059TIP3    H181668   0.803   5.160  11.139 -0.0805  2.4782 -0.4898
20059TIP3    H281669   0.758   5.048  11.048  3.4599  1.2265 -0.7710
20060TIP3   OH281670   5.371   6.098  16.592 -0.1445 -0.4328 -0.2821
20060TIP3    H181671   5.312   6.028  16.566  0.2734 -0.5338 -0.9546
20060TIP3    H281672   5.424   6.116  16.514  1.1333 -0.7650  0.4898
20061TIP3   OH281673   0.471   2.767   2.183 -0.8249  0.0189 -0.0537
20061TIP3    H181674   0.456   2.796   2.273  1.7347  1.6976 -0.1344
20061TIP3    H281675   0.393   2.796   2.136 -1.4292  0.6293  1.2754
20062TIP3   OH281676   5.723   4.571   0.093 -0.6242 -0.1076  0.4123
20062TIP3    H181677   5.802   4.517   0.088  1.0611  2.4258 -1.4931
20062TIP3    H281678   5.665   4.533   0.026 -0.3824 -0.9431  0.6617
20063TIP3   OH281679   0.979   3.314  13.634 -0.2105  0.3014  0.3061
20063TIP3    H181680   0.893   3.326  13.675 -0.1572 -1.9932  1.1897
20063TIP3    H281681   0.974   3.365  13.553 -2.0837  0.9378  0.7903
20064TIP3   OH281682   5.447   4.886   5.676  0.5962  0.7878  0.7838
20064TIP3    H181683   5.515   4.876   5.743 -0.4745 -2.1028  1.5147
20064TIP3    H281684   5.387   4.951   5.713 -0.4986 -1.4855  3.1611
20065TIP3   OH281685   4.366   2.127   3.171  0.3662  0.3765 -0.0768
20065TIP3    H181686   4.364   2.222   3.185  1.4301  0.5021 -0.7414
20065TIP3    H281687   4.439   2.096   3.224 -0.3308 -0.1513  0.5798
20066TIP3   OH281688   5.068   2.835   3.133  0.3289  0.3388 -0.0725
20066TIP3    H181689   5.101   2.924   3.123  1.5396 -0.1601 -0.6664
20066TIP3    H281690   4.977   2.845   3.157  0.4096  1.7426 -0.3492
20067TIP3   OH281691   1.541   4.340  12.445  0.6259  0.3886 -0.4439
20067TIP3    H181692   1.629   4.375  12.459  0.4940 -0.1442  2.0762
20067TIP3    H281693   1.552   4.269  12.382  1.6924  1.5013 -1.5357
20068TIP3   OH281694   2.036   5.291  12.640 -0.5565  0.7271 -0.0962
20068TIP3    H181695   2.003   5.262  12.555  0.9184 -0.5826 -0.2435
20068TIP3    H281696   2.123   5.251  12.647 -0.8628  0.3866  2.2452
20069TIP3   OH281697   0.708   6.061  13.179  0.2288  0.1541 -0.3190
20069TIP3    H181698   0.754   6.122  13.236 -2.4845  2.6878 -0.6965
20069TIP3    H281699   0.642   6.114  13.134 -1.7125 -2.8850 -1.3061
20070TIP3   OH281700   4.398   5.432  10.856  0.1249 -0.4571 -0.5235
20070TIP3    H181701   4.454   5.506  10.881 -0.9495  0.1278  0.1558
20070TIP3    H281702   4.317   5.473  10.825 -0.1023 -1.3203 -1.0701
20071TIP3   OH281703   1.534   3.179   5.259  0.2281 -0.2803 -0.2159
20071TIP3    H181704   1.556   3.114   5.192 -2.1584 -1.5458  0.1670
20071TIP3    H281705   1.465   3.232   5.220 -0.8687 -0.7450  1.0651
20072TIP3   OH281706   0.748   4.276   4.153  0.1797  0.2878  0.3758
20072TIP3    H181707   0.809   4.204   4.165  0.5671 -0.0329 -2.9797
20072TIP3    H281708   0.661   4.236   4.160  0.3989 -0.3074 -0.2281
20073TIP3   OH281709   2.410   1.897   5.628 -0.1041 -0.4577 -0.4442
20073TIP3    H181710   2.472   1.839   5.584  0.2140  0.5519 -1.3483
20073TIP3    H281711   2.449   1.984   5.621 -0.7676 -0.0674  0.5481
20074TIP3   OH281712   1.747   6.181  13.439  0.6355  0.2358 -0.3854
20074TIP3    H181713   1.670   6.182  13.382  0.9060  0.5585 -0.7465
20074TIP3    H281714   1.815   6.138  13.387  0.0589 -2.1782  0.7699
20075TIP3   OH281715   5.923   5.691  17.140 -0.0539  0.5837  0.1977
20075TIP3    H181716   5.902   5.744  17.063  0.5099 -0.1373 -0.4677
20075TIP3    H281717   5.838   5.661  17.172 -0.1408 -2.1842 -2.3748
20076TIP3   OH281718   6.723   4.174  16.381 -0.1108  0.3451 -0.6302
20076TIP3    H181719   6.763   4.089  16.401  2.9410  1.0218 -3.4063
20076TIP3    H281720   6.756   4.232  16.450 -2.2083 -0.6347  1.2823
20077TIP3   OH281721   0.744   2.643  13.124  0.2760 -0.3425  0.2399
20077TIP3    H181722   0.734   2.711  13.057  1.8819 -1.1122 -0.8281
20077TIP3    H281723   0.824   2.597  13.098  1.1586 -0.3842  2.9399
20078TIP3   OH281724   1.895   4.521  16.507 -0.3304  0.2096  0.3464
20078TIP3    H181725   1.860   4.464  16.575  1.4883  1.2422  2.1840
20078TIP3    H281726   1.987   4.497  16.499 -0.5151  0.0951 -1.7738
20079TIP3   OH281727   0.957   4.521   3.502  0.1212  0.1609 -0.0881
20079TIP3    H181728   0.868   4.556   3.505  1.0988  2.6931  0.1581
20079TIP3    H281729   1.012   4.591   3.537  2.3530 -0.9547 -1.2518
20080TIP3   OH281730   0.834   4.936   3.603  0.3190 -0.3631  0.2750
20080TIP3    H181731   0.902   4.962   3.666 -0.7534  0.6468  1.0296
20080TIP3    H281732   0.880   4.934   3.519  1.4836 -0.5202  0.8930
20081TIP3   OH281733   5.823   3.489   0.571  0.1559  0.3671  0.0486
20081TIP3    H181734   5.917   3.481   0.555 -0.1535 -2.8118 -0.4370
20081TIP3    H281735   5.791   3.546   0.501  1.1617 -1.5509 -2.0226
20082TIP3   OH281736   1.018   6.683  16.112  0.2794 -0.1685  0.3232
20082TIP3    H181737   1.021   6.591  16.089 -0.9973 -0.4517  1.2146
20082TIP3    H281738   1.109   6.713  16.107  0.5423 -1.1795 -1.0952
20083TIP3   OH281739   3.605   1.061  16.941 -0.6047 -0.2138 -0.0962
20083TIP3    H181740   3.634   1.151  16.954  1.7080 -1.0762  0.9249
20083TIP3    H281741   3.635   1.039  16.853  1.3895 -0.9002  0.7246
20084TIP3   OH281742   6.216   3.890   2.032  0.0734 -0.4109 -0.2685
20084TIP3    H181743   6.259   3.975   2.047  0.8207 -0.9242  0.5335
20084TIP3    H281744   6.129   3.902   2.069  0.5198 -0.3116  0.7692
20085TIP3   OH281745   4.049   5.215  12.066  0.1665 -0.5826  0.2963
20085TIP3    H181746   4.118   5.189  12.005 -0.2174 -2.6719  0.7142
20085TIP3    H281747   4.093   5.218  12.151  0.0452 -0.5610  0.3579
20086TIP3   OH281748   1.293   1.691   4.881 -0.2673 -0.3173  0.0482
20086TIP3    H181749   1.253   1.763   4.930  0.5831 -0.6096  1.1881
20086TIP3    H281750   1.306   1.726   4.793  0.6165  1.1062  0.7308
20087TIP3   OH281751   0.063   3.703   1.727  0.5018 -0.1313 -0.1594
20087TIP3    H181752   0.026   3.678   1.812  0.4346 -0.6404 -0.3360
20087TIP3    H281753   0.092   3.794   1.739 -2.7287  1.0384 -0.6318
20088TIP3   OH281754   6.626   1.565  15.758  0.3022 -0.2528  0.2366
20088TIP3    H181755   6.716   1.588  15.782  0.5791 -0.9407 -0.1103
20088TIP3    H281756   6.630   1.549  15.664 -0.5049  1.1516 -0.0527
20089TIP3   OH281757   5.572   0.247  14.696  0.3728 -0.2041 -0.2961
20089TIP3    H181758   5.530   0.326  14.730  0.8681 -0.6635  1.4220
20089TIP3    H281759   5.540   0.241  14.606  0.8318  2.2994 -0.6829
20090TIP3   OH281760   4.421   0.403   5.485  0.2520 -0.4094  0.4434
20090TIP3    H181761   4.490   0.337   5.484  0.7948  0.1513  0.5148
20090TIP3    H281762   4.423   0.439   5.574 -0.7503 -1.0256  0.7304
20091TIP3   OH281763   2.313   0.398  12.997  0.2332 -0.8774 -0.2091
20091TIP3    H181764   2.246   0.333  13.017 -1.1565  0.7246  0.4759
20091TIP3    H281765   2.332   0.439  13.082  1.0717 -0.3826 -0.6333
20092TIP3   OH281766   5.346   3.827   2.667 -0.5555 -0.3400 -0.5053
20092TIP3    H181767   5.343   3.903   2.608  0.6702  1.0498  1.1397
20092TIP3    H281768   5.341   3.751   2.609 -2.3220  0.9867 -2.1601
20093TIP3   OH281769   3.103   1.915  14.619 -0.3364 -0.7162 -0.4734
20093TIP3    H181770   3.092   1.982  14.552  0.7254 -1.5860 -1.5302
20093TIP3    H281771   3.014   1.893  14.646 -0.6881  1.2726  0.0532
20094TIP3   OH281772   3.538   6.793   4.812  0.0044 -0.6101  0.2690
20094TIP3    H181773   3.542   6.887   4.794 -0.2958 -0.8146 -0.9135
20094TIP3    H281774   3.515   6.753   4.728 -0.3015 -1.7077  0.8579
20095TIP3   OH281775   5.416   4.350   1.488 -0.0836  0.1092  0.2132
20095TIP3    H181776   5.488   4.402   1.523  0.6926 -1.7667  1.4569
20095TIP3    H281777   5.339   4.383   1.535  0.0657  1.5234 -0.4952
20096TIP3   OH281778   4.250   0.721  12.096 -0.2155  0.1525  0.0441
20096TIP3    H181779   4.265   0.686  12.008  1.2961 -1.1317  0.7831
20096TIP3    H281780   4.182   0.787  12.085  0.0094  0.0440 -2.1023
20097TIP3   OH281781   1.450   4.126   6.157  0.1406  0.3945 -0.2886
20097TIP3    H181782   1.395   4.114   6.233  3.0901 -0.2560  1.8502
20097TIP3    H281783   1.469   4.037   6.127  0.1996  0.5979 -0.8658
20098TIP3   OH281784   3.823   0.643   2.002  0.1178 -0.1774  0.6776
20098TIP3    H181785   3.755   0.576   1.996 -0.0927  0.1119 -0.3419
20098TIP3    H281786   3.903   0.595   2.024 -0.2193 -0.6359  0.9081
20099TIP3   OH281787   4.583   2.030  17.011  0.2330 -0.1179  0.0485
20099TIP3    H181788   4.509   2.074  17.052 -1.1831 -2.4791  0.1416
20099TIP3    H281789   4.603   2.083  16.934 -0.2460  1.6372  1.1058
20100TIP3   OH281790   5.409   5.615   2.568  0.2148  0.7216 -0.0277
20100TIP3    H181791   5.332   5.635   2.514  0.4847 -0.6075 -0.9431
20100TIP3    H281792   5.373   5.591   2.653 -0.4170 -0.1987 -0.5467
20101TIP3   OH281793   5.994   2.371  12.575  0.3529  0.2148  0.1636
20101TIP3    H181794   6.006   2.340  12.485  1.4528  0.2436  0.2932
20101TIP3    H281795   6.060   2.440  12.586  0.1877  0.2544  0.9747
20102TIP3   OH281796   3.472   0.244  12.594 -0.5897 -1.5390  0.0369
20102TIP3    H181797   3.409   0.315  12.590 -0.1873 -1.2963 -2.8733
20102TIP3    H281798   3.547   0.281  12.641 -0.7789 -0.3742 -0.5820
20103TIP3   OH281799   3.553   5.833  13.549  0.4476 -0.1094 -0.0313
20103TIP3    H181800   3.461   5.840  13.575  0.8824 -1.3177  1.9749
20103TIP3    H281801   3.584   5.924  13.549  0.3066  0.0140  3.4863
20104TIP3   OH281802   1.105   2.611  15.081  0.1890 -0.3101  0.3181
20104TIP3    H181803   1.150   2.689  15.048  1.2176 -1.1719 -0.3542
20104TIP3    H281804   1.122   2.544  15.015 -2.1436 -0.6637  0.0140
20105TIP3   OH281805   4.203   4.465  13.390 -0.2898  0.0575 -0.1227
20105TIP3    H181806   4.126   4.517  13.414  1.1865  1.8535  0.9042
20105TIP3    H281807   4.187   4.379  13.430 -0.7730  1.0810  1.9931
20106TIP3   OH281808   2.514   3.771  13.968  0.0265 -0.3499 -0.0035
20106TIP3    H181809   2.606   3.786  13.944  0.5679 -0.4976  1.8168
20106TIP3    H281810   2.518   3.749  14.061 -1.8584 -0.4630  0.0660
20107TIP3   OH281811   1.051   6.095  13.522  0.9314 -0.1013 -0.1391
20107TIP3    H181812   1.107   6.165  13.557  1.6657 -0.1352 -1.2038
20107TIP3    H281813   1.029   6.042  13.598  1.4847  0.5245  0.4714
20108TIP3   OH281814   4.271   0.923  14.816  0.2313 -0.2270  0.1296
20108TIP3    H181815   4.248   0.893  14.904  0.8555 -1.9728 -0.2815
20108TIP3    H281816   4.288   0.842  14.767  2.3713  0.8142 -0.9023
20109TIP3   OH281817   5.397   1.300  12.574  0.0022  0.2907  0.5502
20109TIP3    H181818   5.432   1.390  12.577  1.2748 -0.1996  0.7020
20109TIP3    H281819   5.473   1.245  12.590 -0.6110 -0.8567 -0.4367
20110TIP3   OH281820   3.057   4.816  12.788  0.3238 -0.1006 -0.6765
20110TIP3    H181821   2.985   4.802  12.727  0.0566  1.1917 -0.6745
20110TIP3    H281822   3.061   4.911  12.798  1.2978 -0.2314  0.1999
20111TIP3   OH281823   4.436   4.935   1.458 -0.3482  0.5484 -0.8960
20111TIP3    H181824   4.460   5.016   1.503 -2.3585 -0.7691  2.7956
20111TIP3    H281825   4.364   4.960   1.400 -0.5261  1.5527 -0.2516
20112TIP3   OH281826   5.217   5.416  17.183  0.5308  0.2374 -0.2063
20112TIP3    H181827   5.292   5.392  17.128  0.5104  0.7648 -0.4687
20112TIP3    H281828   5.257   5.444  17.266  0.6865  1.3060 -0.6247
20113TIP3   OH281829   3.049   2.497  16.396 -0.1091 -0.2699 -0.0323
20113TIP3    H181830   3.128   2.502  16.449  0.5851 -0.0569 -1.0740
20113TIP3    H281831   3.078   2.515  16.307 -1.3939  0.1964 -0.3744
20114TIP3   OH281832   3.520   5.689  10.578 -0.1201 -0.2958 -0.5871
20114TIP3    H181833   3.546   5.626  10.511 -0.6903 -1.1068 -0.0504
20114TIP3    H281834   3.583   5.677  10.649 -0.6331 -0.7482 -0.1996
20115TIP3   OH281835   4.779   2.688  15.697 -0.4282 -0.1947 -0.4019
20115TIP3    H181836   4.740   2.714  15.781 -0.6232  0.8087 -0.8000
20115TIP3    H281837   4.711   2.635  15.655 -0.6366 -0.0321 -0.2738
20116TIP3   OH281838   1.125   5.916   3.450  0.0428  0.5073  0.1522
20116TIP3    H181839   1.198   5.951   3.399  0.7234 -1.0148  0.0611
20116TIP3    H281840   1.048   5.964   3.419  0.8806  1.5849 -0.2897
20117TIP3   OH281841   3.783   5.031   3.355 -0.1058 -0.1758 -0.1289
20117TIP3    H181842   3.690   5.008   3.349 -0.7355  1.6905  1.8164
20117TIP3    H281843   3.828   4.957   3.314 -2.4238 -1.1803 -0.9923
20118TIP3   OH281844   0.618   4.632  14.338  0.0754  0.2804 -0.5110
20118TIP3    H181845   0.593   4.604  14.426  0.1504 -1.7489 -1.1125
20118TIP3    H281846   0.705   4.671  14.348  0.2143 -0.2310  0.2711
20119TIP3   OH281847   3.771   4.350   3.492 -0.2200  0.2081  0.1624
20119TIP3    H181848   3.706   4.347   3.562 -0.2885 -1.6282  0.0394
20119TIP3    H281849   3.757   4.269   3.442  1.6857  0.1246 -0.2844
20120TIP3   OH281850   3.042   0.654   0.911  0.3675 -0.6381  0.0197
20120TIP3    H181851   3.058   0.724   0.848  0.2014 -1.0887 -0.5295
20120TIP3    H281852   3.124   0.647   0.960  0.2050  0.2853  0.4197
20121TIP3   OH281853   4.161   0.248   1.190 -0.3188  0.3389  0.0326
20121TIP3    H181854   4.256   0.238   1.189 -0.0036  3.0729 -1.5515
20121TIP3    H281855   4.131   0.200   1.113  0.1630  2.3783 -1.4777
20122TIP3   OH281856   2.018   2.980  12.631 -0.1675 -0.2636  0.0679
20122TIP3    H181857   2.075   2.924  12.578  0.4977 -0.2814  0.7890
20122TIP3    H281858   2.027   3.067  12.591 -2.3407 -0.9111 -1.9675
20123TIP3   OH281859   4.884   3.879   2.525 -1.2944  0.2529 -0.5763
20123TIP3    H181860   4.832   3.813   2.480 -2.0011  0.6614 -0.3687
20123TIP3    H281861   4.940   3.917   2.457 -2.1860  0.7055 -1.0599
20124TIP3   OH281862   5.394   6.444   5.933 -0.0574  0.2750 -0.2043
20124TIP3    H181863   5.369   6.527   5.893 -1.7081  0.7030  1.6231
20124TIP3    H281864   5.316   6.388   5.922  0.5556 -0.5866 -0.2385
20125TIP3   OH281865   4.369   5.536   2.917 -0.1481  0.2496  0.0312
20125TIP3    H181866   4.459   5.509   2.935 -0.2517 -0.4852 -0.5495
20125TIP3    H281867   4.351   5.604   2.983  0.5433 -0.1923  0.6828
20126TIP3   OH281868   4.520   2.390   3.148 -0.2573  0.2816 -0.3050
20126TIP3    H181869   4.498   2.467   3.095 -0.9287  1.3067  1.4063
20126TIP3    H281870   4.615   2.397   3.161  0.0142 -0.3107 -1.8529
20127TIP3   OH281871   2.831   5.351   2.024 -0.5050  0.0841  0.3175
20127TIP3    H181872   2.852   5.387   1.938 -1.3426  0.1182  0.1290
20127TIP3    H281873   2.917   5.333   2.064 -0.1233 -2.0162 -1.3843
20128TIP3   OH281874   0.068   3.008  16.785 -0.4334 -0.5853 -0.2519
20128TIP3    H181875  -0.024   3.032  16.792 -0.4138 -0.9527  1.2201
20128TIP3    H281876   0.073   2.956  16.704 -1.8298 -2.1086  0.6284
20129TIP3   OH281877   3.074   1.644   0.856  0.3569 -0.5679 -0.5894
20129TIP3    H181878   3.133   1.719   0.857 -0.0604 -0.2425 -0.1287
20129TIP3    H281879   3.007   1.668   0.791 -0.6603  0.1523  0.7034
20130TIP3   OH281880   4.383   6.433   0.489  0.5545 -0.3582  0.1556
20130TIP3    H181881   4.451   6.383   0.533  0.3115 -0.6656  0.1889
20130TIP3    H281882   4.356   6.499   0.553 -0.1748 -1.1495  0.6677
20131TIP3   OH281883   6.060   2.218  12.353 -0.1931  0.1374  0.2507
20131TIP3    H181884   6.086   2.128  12.336  1.3962  0.4402  0.9723
20131TIP3    H281885   6.074   2.263  12.270 -2.0920 -0.4923 -0.4489
20132TIP3   OH281886   3.137   1.601  12.708 -0.2269 -0.0859 -0.2537
20132TIP3    H181887   3.140   1.671  12.773  0.1369  0.0484 -0.4110
20132TIP3    H281888   3.142   1.520  12.759  1.2864  0.0406 -0.1791
20133TIP3   OH281889   3.719   5.495  12.361 -0.2941 -0.0193 -0.0507
20133TIP3    H181890   3.696   5.553  12.433 -0.9399  0.0840 -0.3391
20133TIP3    H281891   3.803   5.457  12.387  0.3143  1.3163 -0.0301
20134TIP3   OH281892   1.238   5.255  14.767  0.1387  0.5485 -0.7175
20134TIP3    H181893   1.275   5.177  14.807 -0.4703  0.2456 -0.7335
20134TIP3    H281894   1.191   5.223  14.690  0.0648  0.9517 -0.8430
20135TIP3   OH281895   0.972   2.057  16.879 -0.2808  0.1477  0.3618
20135TIP3    H181896   0.984   1.967  16.848  1.0876  0.1914  0.7238
20135TIP3    H281897   0.879   2.062  16.901 -0.1882 -1.4738  1.2359
20136TIP3   OH281898   3.574   0.120  17.187  0.2396 -0.2778  0.0106
20136TIP3    H181899   3.525   0.045  17.153  0.9590 -0.4363 -0.7096
20136TIP3    H281900   3.605   0.090  17.272  0.0596 -0.6024 -0.0357
20137TIP3   OH281901   4.571   5.859  14.911 -0.6607 -0.3599 -0.2756
20137TIP3    H181902   4.618   5.853  14.995 -1.2044 -0.8395  0.0025
20137TIP3    H281903   4.582   5.950  14.884 -1.6899  0.1615  1.0307
20138TIP3   OH281904   5.372   0.652  16.333 -0.5526 -0.2598 -0.6908
20138TIP3    H181905   5.301   0.636  16.395 -1.0218  0.8927 -0.9135
20138TIP3    H281906   5.445   0.680  16.387 -0.8895  0.5161 -0.6350
20139TIP3   OH281907   1.213   4.850  13.407  0.4039  0.6760  0.5508
20139TIP3    H181908   1.218   4.770  13.459  1.8982  1.4134  1.5880
20139TIP3    H281909   1.270   4.912  13.453  1.7572  1.3586 -1.9948
20140TIP3   OH281910   1.713   5.398   1.721 -0.1874  0.4280 -0.3064
20140TIP3    H181911   1.631   5.359   1.752 -0.4426  2.4547  1.6895
20140TIP3    H281912   1.685   5.463   1.657  0.0864 -0.8520 -1.7685
20141TIP3   OH281913   4.351   1.919   3.496  0.5150 -0.0699  0.3278
20141TIP3    H181914   4.418   1.966   3.447  1.0959 -1.3983 -0.1731
20141TIP3    H281915   4.372   1.827   3.483 -2.8526 -0.5956 -1.8643
20142TIP3   OH281916   6.818   1.591   0.825  0.1042 -0.1795  0.3570
20142TIP3    H181917   6.883   1.647   0.782 -0.1329 -0.0248  0.2017
20142TIP3    H281918   6.845   1.590   0.917  1.1694 -1.2777  0.0464
20143TIP3   OH281919   0.204   4.394  14.396 -0.2725 -0.9229 -0.0854
20143TIP3    H181920   0.110   4.412  14.401 -0.0734  0.0666  0.2169
20143TIP3    H281921   0.246   4.479  14.410  0.6744 -1.3801 -0.0726
20144TIP3   OH281922   5.785   6.293   4.163 -0.3433 -0.6423  0.0548
20144TIP3    H181923   5.741   6.369   4.124 -0.1429 -1.2419 -1.3943
20144TIP3    H281924   5.714   6.234   4.187 -0.4672 -0.2936  0.5461
20145TIP3   OH281925   5.855   4.002  10.719 -0.4957  0.0508  0.3237
20145TIP3    H181926   5.787   4.041  10.665 -0.6529 -0.1169  0.4003
20145TIP3    H281927   5.808   3.953  10.787 -0.3005  0.8651  1.0540
20146TIP3   OH281928   4.469   0.838  12.509 -0.7560 -0.3359 -0.4606
20146TIP3    H181929   4.561   0.860  12.492  0.1203 -1.4865  2.4747
20146TIP3    H281930   4.434   0.917  12.552 -0.3692 -0.8667  0.8657
20147TIP3   OH281931   2.044   5.125  16.861  0.3130  0.3601  0.1986
20147TIP3    H181932   2.001   5.040  16.875 -0.9768  1.0704  0.6165
20147TIP3    H281933   2.031   5.143  16.768  0.5595  0.1138  0.1153
20148TIP3   OH281934   1.705   4.751   3.509  0.4846 -0.0909 -0.0716
20148TIP3    H181935   1.736   4.746   3.600 -1.9658 -0.6421  0.7609
20148TIP3    H281936   1.615   4.783   3.516  0.6627  0.9785 -2.4080
20149TIP3   OH281937   3.403   5.486  15.949 -0.4302 -0.2463  0.0278
20149TIP3    H181938   3.310   5.468  15.964 -0.8387  1.0573 -0.9444
20149TIP3    H281939   3.444   5.399  15.950 -1.6455 -0.8292  0.4884
20150TIP3   OH281940   4.932   3.471  16.107  0.1561 -0.0676 -0.6395
20150TIP3    H181941   4.843   3.434  16.114  0.2829 -0.2865 -0.1857
20150TIP3    H281942   4.918   3.565  16.096 -0.1907 -0.2909 -2.3558
20151TIP3   OH281943   5.270   4.229   3.946 -0.9138 -0.7144 -0.3306
20151TIP3    H181944   5.279   4.255   4.037 -1.1375 -0.7313 -0.3040
20151TIP3    H281945   5.178   4.245   3.925 -0.7104 -0.0866 -0.7473
20152TIP3   OH281946   1.921   5.652   5.686 -0.2658  0.1387  0.0333
20152TIP3    H181947   2.009   5.683   5.703 -0.5744  0.3199  1.3003
20152TIP3    H281948   1.863   5.723   5.715 -0.9128 -0.9948  1.5970
20153TIP3   OH281949   1.409   6.126  16.282  0.4545 -0.4199  0.2480
20153TIP3    H181950   1.384   6.083  16.364 -1.6765  0.6401  0.2029
20153TIP3    H281951   1.389   6.061  16.214 -0.4844 -0.2429  0.3560
20154TIP3   OH281952   2.620   6.198   2.898  0.1091 -0.1253 -0.1475
20154TIP3    H181953   2.650   6.264   2.961 -1.2621  0.2951  0.0872
20154TIP3    H281954   2.591   6.249   2.823  0.0817 -0.5252 -0.4082
20155TIP3   OH281955   1.445   5.822  16.280 -0.4160 -0.1694 -0.4723
20155TIP3    H181956   1.360   5.822  16.324 -0.8368  0.0222 -1.2689
20155TIP3    H281957   1.426   5.858  16.193  0.5714  0.3274 -0.4810
20156TIP3   OH281958   2.510   5.965   5.152 -0.6899 -0.1428  0.5310
20156TIP3    H181959   2.472   5.968   5.240  0.1745 -0.1378  0.9066
20156TIP3    H281960   2.468   5.890   5.110 -0.3358 -0.7845  1.3072
20157TIP3   OH281961   0.786   0.997   4.749  0.6460 -0.1141 -0.1102
20157TIP3    H181962   0.759   0.962   4.664 -0.3248  0.3313  0.0035
20157TIP3    H281963   0.802   1.090   4.733 -2.0040  0.5314  0.6963
20158TIP3   OH281964   1.945   0.152  11.700  0.1323 -0.0755 -0.5928
20158TIP3    H181965   2.014   0.101  11.657  0.7589  0.1175  0.1783
20158TIP3    H281966   1.904   0.090  11.760  0.5638  0.1852 -0.0217
20159TIP3   OH281967   5.381   6.255  12.164 -0.0031 -0.4821  0.0644
20159TIP3    H181968   5.290   6.255  12.194 -0.6867  0.3359 -1.8936
20159TIP3    H281969   5.395   6.345  12.132  0.8917 -1.1084 -1.3573
20160TIP3   OH281970   3.227   1.411  14.251 -0.2409 -0.1093  0.0902
20160TIP3    H181971   3.280   1.334  14.230 -0.9519 -0.1275 -1.8044
20160TIP3    H281972   3.278   1.459  14.315  1.0456 -1.2453 -0.0608
20161TIP3   OH281973   2.318   4.181   0.747  0.3244 -0.8666 -0.4502
20161TIP3    H181974   2.389   4.209   0.690  0.0024  2.9231  0.9146
20161TIP3    H281975   2.239   4.218   0.708 -0.1518 -0.0238  1.2524
20162TIP3   OH281976   6.112   3.163  16.097 -0.6188  0.3075  0.8211
20162TIP3    H181977   6.083   3.072  16.093  1.0996 -0.1870 -1.0305
20162TIP3    H281978   6.204   3.158  16.123  0.3106  1.3002 -2.0341
20163TIP3   OH281979   5.711   1.404  14.647  0.3032  0.3677  0.3696
20163TIP3    H181980   5.795   1.402  14.601  0.8457 -0.7010  1.3637
20163TIP3    H281981   5.690   1.311  14.663  0.6708  0.7135  3.1692
20164TIP3   OH281982   5.304   0.396  16.140  0.5902  0.1951  0.0933
20164TIP3    H181983   5.239   0.461  16.164  0.4222  0.3926 -0.8979
20164TIP3    H281984   5.337   0.363  16.224  0.0991  0.9668  0.5895
20165TIP3   OH281985   2.396   5.790   5.563 -0.2936 -0.2551 -0.4591
20165TIP3    H181986   2.338   5.815   5.635  0.0576  0.0943 -0.2971
20165TIP3    H281987   2.482   5.783   5.604 -0.0555  0.1666 -0.8956
20166TIP3   OH281988   4.034   3.619   0.180 -0.2433  0.5067  0.1007
20166TIP3    H181989   4.007   3.604   0.089 -0.9617  1.5591  0.1249
20166TIP3    H281990   4.117   3.667   0.173 -0.0140  0.0994  0.0076
20167TIP3   OH281991   4.050   5.200   1.547  0.3361 -0.8303 -0.2079
20167TIP3    H181992   3.980   5.211   1.612 -0.7522 -0.5474 -1.4042
20167TIP3    H281993   4.125   5.246   1.585 -0.0464 -1.3317  1.1958
20168TIP3   OH281994   4.194   3.643   5.207 -0.0580 -0.6506  0.4763
20168TIP3    H181995   4.113   3.661   5.254 -1.4598 -1.2088 -1.6277
20168TIP3    H281996   4.263   3.680   5.261 -1.7930  0.5070  1.9327
20169TIP3   OH281997   1.926   4.852   2.279  0.5040 -0.0923 -0.4913
20169TIP3    H181998   1.888   4.908   2.212  1.1544  1.1956  0.1882
20169TIP3    H281999   1.878   4.875   2.359 -1.4520 -2.8242 -0.7885
20170TIP3   OH282000   6.708   1.947   4.846  0.3750  0.6388  0.0722
20170TIP3    H182001   6.663   2.031   4.840  0.0355  0.4025 -0.6889
20170TIP3    H282002   6.693   1.906   4.761 -2.6540 -1.8392  1.7230
20171TIP3   OH282003   0.822   0.429  17.041 -0.1671 -0.4960 -0.1172
20171TIP3    H182004   0.910   0.427  17.003 -0.4106 -2.2340 -0.6318
20171TIP3    H282005   0.764   0.420  16.966 -0.7838 -0.0018  0.2912
20172TIP3   OH282006   4.548   6.753  16.716 -0.2755  1.1790 -0.2582
20172TIP3    H182007   4.631   6.745  16.762 -0.6548  1.2879  0.4539
20172TIP3    H282008   4.572   6.784  16.629  0.8029 -2.8017 -1.4958
20173TIP3   OH282009   4.566   4.363  17.026  0.1621 -0.5186 -0.0065
20173TIP3    H182010   4.573   4.326  16.939 -0.1651  2.0241 -1.1574
20173TIP3    H282011   4.472   4.368  17.043  0.2172 -0.7489  0.3839
20174TIP3   OH282012   1.516   0.488   3.232 -0.0011 -0.3099 -0.7960
20174TIP3    H182013   1.451   0.460   3.167  0.7628  0.6652 -1.9920
20174TIP3    H282014   1.600   0.461   3.195  0.4824  0.7088 -0.4613
20175TIP3   OH282015   4.874   6.328  17.019  0.1934  0.2365  0.0577
20175TIP3    H182016   4.895   6.235  17.028 -0.6557 -0.1135 -1.4585
20175TIP3    H282017   4.782   6.334  17.042  0.3609  0.7967  0.6158
20176TIP3   OH282018   4.747   3.083  11.491  0.1571 -0.0016 -0.1748
20176TIP3    H182019   4.758   3.177  11.509 -1.0403 -0.1269  1.3572
20176TIP3    H282020   4.780   3.040  11.570 -0.6766 -0.8034 -0.2574
20177TIP3   OH282021   1.607   5.774  13.671 -0.1284 -0.5353 -0.1577
20177TIP3    H182022   1.655   5.828  13.735  0.3257 -0.1213 -0.8422
20177TIP3    H282023   1.531   5.827  13.647  0.5230 -0.0259 -1.1224
20178TIP3   OH282024   1.786   1.061  17.176 -0.1534 -0.5602  0.1912
20178TIP3    H182025   1.773   1.072  17.082 -0.7799 -0.0297  0.3388
20178TIP3    H282026   1.738   1.133  17.216 -1.5941 -1.9385  1.0092
20179TIP3   OH282027   0.258   6.267  13.579  0.5737  0.4302  0.1809
20179TIP3    H182028   0.312   6.194  13.611  2.9529  2.9297  2.1691
20179TIP3    H282029   0.236   6.316  13.659 -1.8222  1.3426 -1.0045
20180TIP3   OH282030   0.893   6.697   3.714  0.2656 -0.1299 -0.6733
20180TIP3    H182031   0.816   6.754   3.719 -0.3004 -0.7490 -1.9019
20180TIP3    H282032   0.941   6.713   3.795 -0.3884  1.3660 -0.5714
20181TIP3   OH282033   1.148   6.749   6.336 -0.6173  0.3070 -0.7217
20181TIP3    H182034   1.166   6.660   6.306 -0.6160 -0.5832  1.7926
20181TIP3    H282035   1.224   6.771   6.391 -0.7460  1.7678 -1.1180
20182TIP3   OH282036   1.026   1.268   3.932  0.2083 -0.4420 -0.6790
20182TIP3    H182037   1.080   1.243   4.007  0.6210 -1.2032 -1.2282
20182TIP3    H282038   1.010   1.361   3.944 -0.2579 -0.6966  0.6949
20183TIP3   OH282039   2.704   3.526  11.599 -0.2347 -0.1022  0.3115
20183TIP3    H182040   2.617   3.499  11.570  0.5428 -1.2567 -1.0077
20183TIP3    H282041   2.764   3.477  11.543  1.2686  2.7338 -0.6842
20184TIP3   OH282042   1.860   1.839  16.370  0.9800 -0.2870 -0.6754
20184TIP3    H182043   1.895   1.856  16.458 -0.0031 -5.2050  0.8048
20184TIP3    H282044   1.765   1.849  16.380  0.9511  0.2536 -1.4878
20185TIP3   OH282045   3.014   1.692  10.326  0.1192 -0.0335  0.5500
20185TIP3    H182046   3.080   1.643  10.277 -0.0891 -0.3725  0.6064
20185TIP3    H282047   3.007   1.776  10.279 -0.2658 -0.4529 -0.1503
20186TIP3   OH282048   1.393   1.799   1.899 -0.0002 -0.1020 -0.5930
20186TIP3    H182049   1.321   1.797   1.963 -0.7223  0.5663 -1.3750
20186TIP3    H282050   1.455   1.863   1.934 -0.3481  0.1910 -0.5083
20187TIP3   OH282051   4.476   2.144   3.834 -0.1643 -0.0109 -0.0191
20187TIP3    H182052   4.460   2.200   3.910  2.1063  1.9055 -0.9119
20187TIP3    H282053   4.489   2.205   3.762 -0.0387 -1.7693 -1.5068
20188TIP3   OH282054   1.255   1.671  11.705 -0.2731  0.3352 -0.0333
20188TIP3    H182055   1.285   1.689  11.616  1.8723 -1.2213  0.3668
20188TIP3    H282056   1.334   1.648  11.754 -1.5736  0.0733  2.0154
20189TIP3   OH282057   6.705   4.357   3.066  0.5229  0.5985 -0.5324
20189TIP3    H182058   6.630   4.341   3.123  1.5468 -0.3065  0.6083
20189TIP3    H282059   6.726   4.271   3.029  1.4153  0.6899 -0.2722
20190TIP3   OH282060   3.554   4.612  14.255  0.6454  0.2991  0.0016
20190TIP3    H182061   3.635   4.588  14.209  0.7329 -0.9070  0.7717
20190TIP3    H282062   3.583   4.676  14.320  0.4527  2.3552 -1.8671
20191TIP3   OH282063   3.371   5.210   5.327 -0.2200  0.6105 -0.2089
20191TIP3    H182064   3.419   5.184   5.405  0.9465 -0.3129 -1.2126
20191TIP3    H282065   3.345   5.127   5.286 -1.5171  1.0870 -0.3956
20192TIP3   OH282066   3.910   5.383  11.753  0.3090 -0.1086  0.0850
20192TIP3    H182067   3.987   5.408  11.804 -0.6726  0.0769  1.4890
20192TIP3    H282068   3.944   5.320  11.688  1.6739  0.1534  0.5303
20193TIP3   OH282069   2.742   5.991   1.400 -0.0815  0.3949 -0.9994
20193TIP3    H182070   2.822   6.026   1.440  0.6057  0.2120 -2.1856
20193TIP3    H282071   2.768   5.904   1.368 -1.9386 -1.6125  2.5942
20194TIP3   OH282072   3.548   3.554  12.743  0.0916 -0.4851 -0.2460
20194TIP3    H182073   3.641   3.575  12.745  0.0516 -0.3106 -0.2576
20194TIP3    H282074   3.539   3.492  12.671  0.1821 -0.4287 -0.3061
20195TIP3   OH282075   0.738   0.683  13.880  0.1222 -0.0725 -0.3942
20195TIP3    H182076   0.815   0.739  13.875 -0.2584  0.4868 -0.0405
20195TIP3    H282077   0.665   0.743  13.893 -0.3602 -0.6062 -0.6022
20196TIP3   OH282078   4.439   6.606   0.821  0.0770  0.1996 -0.2516
20196TIP3    H182079   4.383   6.638   0.750 -0.8298  0.1896  0.4612
20196TIP3    H282080   4.444   6.512   0.807 -0.7401  0.0941  0.1518
20197TIP3   OH282081   2.546   6.265   5.401 -0.2342 -0.2861 -0.0233
20197TIP3    H182082   2.484   6.197   5.375 -1.9124  0.5255  1.7606
20197TIP3    H282083   2.554   6.255   5.496  0.0890  1.5080  0.1517
20198TIP3   OH282084   1.226   3.575  13.987 -0.0965 -0.1870  0.3587
20198TIP3    H182085   1.303   3.535  13.945 -0.4966 -2.2532  1.5170
20198TIP3    H282086   1.153   3.519  13.961 -1.3337  2.0877 -1.1717
20199TIP3   OH282087   5.471   5.678  15.573 -0.3260 -0.4115  0.1324
20199TIP3    H182088   5.501   5.618  15.641  0.7024 -0.2411 -0.1649
20199TIP3    H282089   5.547   5.691  15.517 -1.0091 -0.1164 -0.7427
20200TIP3   OH282090   0.044   0.553   0.554  0.3231  0.1025 -0.1080
20200TIP3    H182091   0.062   0.586   0.466 -2.6325  1.4513 -0.2788
20200TIP3    H282092   0.026   0.631   0.606  2.1439 -0.6844  1.7432
20201TIP3   OH282093   2.292   1.787   3.459 -0.0936  0.4165  0.5539
20201TIP3    H182094   2.363   1.729   3.488 -0.2477 -0.4827 -0.7907
20201TIP3    H282095   2.305   1.795   3.364 -0.8844  1.4852  0.5292
20202TIP3   OH282096   3.933   5.314  12.900 -0.0752  0.1181  0.3778
20202TIP3    H182097   3.856   5.349  12.944 -1.0350 -0.9178 -0.4519
20202TIP3    H282098   3.905   5.230  12.866  1.0784  0.2643 -0.9710
20203TIP3   OH282099   1.139   0.540   4.512 -0.0740  0.3028 -0.6015
20203TIP3    H182100   1.153   0.515   4.603 -0.6085 -0.2139 -0.6664
20203TIP3    H282101   1.044   0.537   4.500 -0.0067  0.3987 -1.1679
20204TIP3   OH282102   1.240   2.371   2.312  0.2310  0.2093  0.6404
20204TIP3    H182103   1.254   2.428   2.388  0.5416  0.8009  0.1364
20204TIP3    H282104   1.286   2.414   2.240 -0.0457 -0.3615  0.1174
20205TIP3   OH282105   5.766   5.609  11.633 -0.1829  0.2091  0.5133
20205TIP3    H182106   5.831   5.544  11.609  0.2821  1.4171 -1.5656
20205TIP3    H282107   5.682   5.563  11.625  0.3392 -1.4279  3.4751
20206TIP3   OH282108   6.481   3.751  14.996  0.2056 -0.3343  0.0039
20206TIP3    H182109   6.515   3.799  15.072 -0.7000 -1.0782  0.9095
20206TIP3    H282110   6.538   3.674  14.989  0.5118 -0.0804 -0.2915
20207TIP3   OH282111   0.991   3.428   2.289 -0.4527  0.2766  0.1671
20207TIP3    H182112   0.905   3.440   2.330 -1.3592 -3.0543 -0.5683
20207TIP3    H282113   1.044   3.385   2.357  0.2519  1.1238  0.1691
20208TIP3   OH282114   0.454   3.990  14.108 -0.6318 -0.1149  0.0244
20208TIP3    H182115   0.391   4.062  14.115 -0.2100  0.4950 -2.0702
20208TIP3    H282116   0.496   4.003  14.022 -0.8322 -3.0937 -0.5678
20209TIP3   OH282117   5.457   3.244   4.546 -0.3402  0.2614 -0.0353
20209TIP3    H182118   5.379   3.215   4.499  0.0712 -1.2025  0.1565
20209TIP3    H282119   5.445   3.339   4.557 -1.3526  0.2913 -1.3473
20210TIP3   OH282120   0.111   1.930  12.517 -0.6119  0.0529  0.0289
20210TIP3    H182121   0.054   1.897  12.448 -1.2593 -2.2895  1.6214
20210TIP3    H282122   0.054   1.985  12.572 -0.5298  0.4244 -0.2547
20211TIP3   OH282123   1.719   3.838   4.271 -0.6142 -0.1224 -0.3610
20211TIP3    H182124   1.741   3.915   4.220  2.5527 -0.6507  0.1183
20211TIP3    H282125   1.729   3.765   4.210 -1.0662 -0.3889 -0.1223
20212TIP3   OH282126   6.037   0.636  12.990 -0.2100 -0.1343 -0.0437
20212TIP3    H182127   5.999   0.647  13.077 -1.2629 -2.2218 -0.2007
20212TIP3    H282128   5.974   0.676  12.931  0.5823  1.4265  0.1600
20213TIP3   OH282129   3.137   1.013  16.234 -0.8511 -0.2106 -0.0216
20213TIP3    H182130   3.060   1.005  16.291 -1.1226 -1.4794 -0.5400
20213TIP3    H282131   3.107   1.069  16.162 -0.8451  0.4730  0.4982
20214TIP3   OH282132   4.629   1.405   1.820 -0.1654 -0.1682 -0.3749
20214TIP3    H182133   4.646   1.453   1.901 -0.5180 -0.0214 -0.3873
20214TIP3    H282134   4.551   1.447   1.783  0.4852  0.3066 -1.2155
20215TIP3   OH282135   2.080   2.642  14.392 -0.0295  0.0770 -0.7523
20215TIP3    H182136   2.157   2.673  14.343  0.4179  0.3993  0.1540
20215TIP3    H282137   2.016   2.621  14.324  0.7723  0.0379 -1.5059
20216TIP3   OH282138   5.372   2.341   5.187 -0.6331 -0.2392  0.1045
20216TIP3    H182139   5.361   2.270   5.251  0.0498  0.5567  1.1115
20216TIP3    H282140   5.398   2.416   5.239 -1.5231  0.8149 -0.9400
20217TIP3   OH282141   3.569   5.955  14.444 -0.0871  0.4021 -0.1873
20217TIP3    H182142   3.622   5.939  14.366 -0.5121  1.3492 -0.6829
20217TIP3    H282143   3.627   5.934  14.517  1.3011  2.2716 -0.6948
20218TIP3   OH282144   2.624   6.089  15.671 -0.4897  0.1345 -0.1302
20218TIP3    H182145   2.553   6.150  15.652  0.3142  0.6354 -1.5542
20218TIP3    H282146   2.690   6.142  15.715 -1.0086 -0.3474  1.2591
20219TIP3   OH282147   4.982   2.336  15.225 -0.6340  0.6518  0.0588
20219TIP3    H182148   5.067   2.322  15.183 -0.8769  0.4100 -0.3520
20219TIP3    H282149   4.943   2.409  15.177 -0.9280  0.3506 -0.1594
20220TIP3   OH282150   5.905   6.476  16.653  0.4025 -0.0414 -0.2507
20220TIP3    H182151   5.890   6.562  16.693  3.3404  0.0923  0.6828
20220TIP3    H282152   5.963   6.493  16.579 -1.3530 -0.8904 -1.8741
20221TIP3   OH282153   3.444   6.313  16.887 -0.3107  0.0502  0.0426
20221TIP3    H182154   3.371   6.278  16.836  0.1923 -0.3057 -0.4300
20221TIP3    H282155   3.402   6.367  16.954 -0.9709  0.9497 -1.0577
20222TIP3   OH282156   6.352   6.667   5.498 -0.2289 -0.3442 -0.3870
20222TIP3    H182157   6.394   6.700   5.418 -1.2455 -0.4868 -0.9880
20222TIP3    H282158   6.314   6.745   5.539 -1.7882 -0.6029 -1.3026
20223TIP3   OH282159   6.650   2.138  17.245 -0.1126 -0.2405  0.0553
20223TIP3    H182160   6.738   2.111  17.273 -0.1653  0.5800  1.0777
20223TIP3    H282161   6.657   2.149  17.150  0.6100 -1.2096 -0.0080
20224TIP3   OH282162   5.548   2.455  12.435 -0.5381 -0.1861 -0.4087
20224TIP3    H182163   5.559   2.394  12.362  0.8905  2.1341 -2.2498
20224TIP3    H282164   5.634   2.497  12.443 -1.3001  1.1129  1.2127
20225TIP3   OH282165   5.590   2.374  17.180  0.0146 -0.6023 -0.2664
20225TIP3    H182166   5.684   2.386  17.191 -0.3672  2.5184  0.0993
20225TIP3    H282167   5.560   2.341  17.265  0.4121  1.0732  0.5469
20226TIP3   OH282168   2.628   5.330   0.910 -0.8022 -0.5018  0.0890
20226TIP3    H182169   2.721   5.355   0.905 -0.7650 -0.4685  0.9448
20226TIP3    H282170   2.630   5.234   0.911 -0.7795 -0.5011  0.1215
20227TIP3   OH282171   2.173   1.694  13.741 -0.1298  0.1325 -0.3119
20227TIP3    H182172   2.153   1.627  13.677  1.7182  0.3709 -1.1750
20227TIP3    H282173   2.268   1.686  13.757 -0.2308  1.2260  1.0485
20228TIP3   OH282174   5.793   2.794   0.812 -0.2563  0.1160  0.2629
20228TIP3    H182175   5.700   2.775   0.826 -0.1590  0.3769  1.2572
20228TIP3    H282176   5.793   2.852   0.735 -0.9285  0.2580  0.3617
20229TIP3   OH282177   5.706   0.139  11.943  0.2923 -0.2903  0.1614
20229TIP3    H182178   5.631   0.132  12.002 -0.3463 -1.7691 -0.7909
20229TIP3    H282179   5.773   0.083  11.983 -0.2413 -1.5258 -0.6322
20230TIP3   OH282180   5.554   0.528  16.715  0.2107 -0.0675  0.3124
20230TIP3    H182181   5.512   0.601  16.670  0.8531 -0.4483 -0.9231
20230TIP3    H282182   5.567   0.560  16.805 -0.9950  0.7244  0.2183
20231TIP3   OH282183   3.348   4.409  16.587 -0.0267  0.1047  0.0799
20231TIP3    H182184   3.422   4.363  16.626 -0.2966 -0.8964 -0.5660
20231TIP3    H282185   3.365   4.501  16.605  0.6429 -0.2256  1.1805
20232TIP3   OH282186   4.814   2.220  12.443 -0.4088 -0.4468 -0.0048
20232TIP3    H182187   4.795   2.310  12.469 -1.9605 -1.1952  1.5027
20232TIP3    H282188   4.816   2.224  12.347 -0.1024  1.2506  0.0441
20233TIP3   OH282189   5.289   6.018  13.778 -0.2732  0.2938  0.1603
20233TIP3    H182190   5.225   6.084  13.753  0.4203  0.7701 -0.3832
20233TIP3    H282191   5.237   5.941  13.799 -0.9834  0.3332 -1.3328
20234TIP3   OH282192   3.374   3.913  14.600 -0.1978  0.0504 -0.0032
20234TIP3    H182193   3.320   3.937  14.524 -1.1326 -0.7218  0.4179
20234TIP3    H282194   3.331   3.955  14.674 -0.4692 -0.9278  0.3977
20235TIP3   OH282195   3.377   1.590  15.488  0.4213 -0.1888  0.5945
20235TIP3    H182196   3.309   1.565  15.550 -0.5574  0.5771 -0.1562
20235TIP3    H282197   3.351   1.677  15.457  1.5222 -0.0618 -0.0056
20236TIP3   OH282198   2.661   0.705   0.556 -0.2389  0.2714 -0.4711
20236TIP3    H182199   2.566   0.716   0.546 -0.2975 -0.7457 -1.1930
20236TIP3    H282200   2.671   0.614   0.584  0.5219  0.3500 -0.4931
20237TIP3   OH282201   4.930   3.649  11.910  0.3395  0.6183  0.1999
20237TIP3    H182202   4.845   3.616  11.937 -0.6171  0.4243 -2.8616
20237TIP3    H282203   4.932   3.739  11.942 -0.8856  0.5242  0.5596
20238TIP3   OH282204   1.497   4.495   0.790  0.2068 -0.3322 -0.5108
20238TIP3    H182205   1.411   4.526   0.761  0.0677  0.1860  0.4174
20238TIP3    H282206   1.543   4.473   0.709 -0.3176  0.6707 -1.1013
20239TIP3   OH282207   2.638   0.877  12.547  0.0330  0.6117 -0.3209
20239TIP3    H182208   2.657   0.922  12.629  0.3281  0.6085 -0.3860
20239TIP3    H282209   2.717   0.888  12.495 -0.1833  0.6864 -0.6384
20240TIP3   OH282210   1.227   5.550   6.024 -0.5174 -0.0295 -0.6453
20240TIP3    H182211   1.279   5.599   5.959 -0.8104 -0.9614 -1.6053
20240TIP3    H282212   1.147   5.527   5.977  0.3470 -2.9175 -0.7966
20241TIP3   OH282213   4.398   5.241   2.733  0.7430  0.8198 -0.2446
20241TIP3    H182214   4.448   5.266   2.655  0.9849 -1.0579 -0.7087
20241TIP3    H282215   4.415   5.148   2.744 -0.1150  0.8423  1.4718
20242LIG      S82216   3.382   3.817  16.598  0.2038  0.0378  0.0882
20242LIG     O182217   3.139   3.806  16.381 -0.6309 -0.4013  0.0087
20242LIG     O282218   4.010   3.753  16.169 -0.4431  0.5996 -0.3919
20242LIG     O382219   3.835   3.710  16.044 -0.3810  0.9088 -0.0712
20242LIG     N182220   3.101   3.509  16.271  0.2434 -0.0271 -0.1450
20242LIG     N282221   3.701   3.767  16.345 -0.4580 -0.1038  0.7384
20242LIG     N382222   3.752   3.566  16.451  0.1790 -0.6506  0.2902
20242LIG     N482223   3.911   3.689  16.142  0.5756  0.1562 -0.3379
20242LIG     N582224   3.796   3.441  16.447 -0.2702 -0.0118 -0.6562
20242LIG     C182225   3.042   3.646  16.226 -0.2019  0.3912 -0.7240
20242LIG     C282226   3.123   3.773  16.251 -0.1205  0.6049  0.2994
20242LIG     C382227   3.231   3.907  16.377 -0.1184  0.1112 -0.4602
20242LIG     C482228   3.296   3.949  16.512  0.2399 -0.2499 -0.6604
20242LIG     C582229   3.199   3.851  16.171 -0.4272  1.2637  0.0089
20242LIG     C682230   3.493   3.746  16.472 -0.1325 -0.1234 -0.7573
20242LIG     C782231   3.271   3.936  16.249 -0.0770 -0.3569 -0.2375
20242LIG     C882232   3.617   3.825  16.452 -0.5126  0.4613  0.1648
20242LIG     C982233   3.228   3.485  16.206  0.2294  0.6421 -0.2972
20242LIG    C1082234   3.101   3.492  16.411  0.4542 -0.8060  0.5456
20242LIG    C1182235   3.780   3.651  16.349  0.5960 -0.1982  0.3779
20242LIG    C1282236   3.866   3.603  16.246 -0.2911  0.4264  0.0735
20242LIG    C1382237   3.923   3.473  16.260 -0.2329  0.0912  0.0540
20242LIG    C1482238   3.884   3.391  16.366  1.2101  0.3790  0.3172
20242LIG     H182239   2.945   3.667  16.277 -0.7869  2.2957 -2.5285
20242LIG     H282240   3.026   3.634  16.117  0.7679  3.1222 -1.2145
20242LIG     H382241   3.365   4.031  16.484 -1.8618  2.1410  0.8718
20242LIG     H482242   3.221   3.994  16.581  1.0854  1.9742 -1.1483
20242LIG     H582243   3.204   3.856  16.063 -0.8297 -1.8339 -0.2147
20242LIG     H682244   3.431   3.724  16.382 -0.9598 -0.8710 -0.0187
20242LIG     H782245   3.522   3.651  16.522 -1.4867  1.6678  3.6393
20242LIG     H882246   3.343   4.008  16.215 -0.5374  0.8456  1.3057
20242LIG     H982247   3.584   3.926  16.420  0.3895  1.1563  1.3997
20242LIG    H1082248   3.675   3.827  16.547 -0.0662 -0.7763 -0.0656
20242LIG    H1182249   3.305   3.464  16.283  0.2599  1.7032 -0.0270
20242LIG    H1282250   3.261   3.577  16.152 -1.8960  0.8933 -1.1936
20242LIG    H1382251   3.228   3.404  16.130  0.6471 -1.6394  2.0557
20242LIG    H1482252   3.128   3.386  16.432  0.1931 -0.5919  1.9676
20242LIG    H1582253   2.998   3.508  16.450 -0.4350  0.1754 -2.0553
20242LIG    H1682254   3.170   3.558  16.468 -1.0558 -0.5783  2.1462
20242LIG    H1782255   3.718   3.839  16.275  1.2714  0.3255  1.5606
20242LIG    H1882256   4.006   3.433  16.205 -2.1700 -3.0714 -0.6640
20242LIG    H1982257   3.921   3.291  16.382  0.2762  0.0216  0.2557
   6.82013   6.82013  17.29240
